<event>
12    6  0.1556619E-007  0.1520187E+04  0.7818608E-02  0.8871139E-01
          2   -1    0    0  501    0  0.00000000000E+00  0.00000000000E+00  0.10014394789E+04  0.10014394789E+04  0.00000000000E+00 0. -1.
         -1   -1    0    0    0  501 -0.00000000000E+00 -0.00000000000E+00 -0.57691147936E+03  0.57691147936E+03  0.00000000000E+00 0.  1.
         24    2    1    2    0    0 -0.10682522707E+02 -0.45398658215E+03  0.33051479807E+03  0.56738088117E+03  0.80393404632E+02 0.  0.
        254    2    1    2    0    0  0.10682522707E+02  0.45398658215E+03  0.94013201465E+02  0.10109700771E+04  0.89833405904E+03 0.  0.
         23    2    4    4    0    0 -0.38449258338E+03  0.43396719956E+03 -0.27071845461E+02  0.58720380083E+03  0.88956966702E+02 0.  0.
         23    2    4    4    0    0  0.39517510609E+03  0.20019382584E+02  0.12108504693E+03  0.42376627625E+03  0.91389978375E+02 0.  0.
          4    1    3    3  502    0  0.19126952084E+02 -0.39068915036E+03  0.28336766903E+03  0.48301251366E+03  0.00000000000E+00 0. -1.
         -3    1    3    3    0  502 -0.29809474791E+02 -0.63297431790E+02  0.47147129038E+02  0.84368367503E+02  0.00000000000E+00 0.  1.
         11    1    5    5    0    0 -0.41565998134E+02  0.89739464263E+02 -0.21849981444E+02  0.10128339122E+03  0.00000000000E+00 0. -1.
        -11    1    5    5    0    0 -0.34292658524E+03  0.34422773530E+03 -0.52218640173E+01  0.48592040962E+03  0.00000000000E+00 0.  1.
          2    1    6    6  503    0  0.18003720560E+03 -0.13338047428E+02  0.96417405344E+02  0.20466464024E+03  0.00000000000E+00 0. -1.
         -2    1    6    6    0  503  0.21513790048E+03  0.33357430012E+02  0.24667641582E+02  0.21910163601E+03  0.00000000000E+00 0.  1.
<mgrwt>
<rscale>  0 0.15201867E+04</rscale>
<asrwt>0</asrwt>
<pdfrwt beam="1">  1        2 0.15406761E+00 0.15201867E+04</pdfrwt>
<pdfrwt beam="2">  1       -1 0.88755612E-01 0.15201867E+04</pdfrwt>
<totfact> 0.34468612E+01</totfact>
</mgrwt>
</event>
<event>
12    6  0.1556619E-007  0.1798042E+04  0.7818608E-02  0.8707341E-01
          2   -1    0    0  501    0  0.00000000000E+00  0.00000000000E+00  0.11012643523E+04  0.11012643523E+04  0.00000000000E+00 0. -1.
         -1   -1    0    0    0  501 -0.00000000000E+00 -0.00000000000E+00 -0.73391926903E+03  0.73391926903E+03  0.00000000000E+00 0.  1.
         24    2    1    2    0    0  0.14480595510E+03 -0.36738368115E+03  0.68337009952E+03  0.79350890624E+03  0.81988764819E+02 0.  0.
        254    2    1    2    0    0 -0.14480595510E+03  0.36738368115E+03 -0.31602501630E+03  0.10416747150E+04  0.91064530265E+03 0.  0.
         23    2    4    4    0    0  0.84485840516E+02  0.37692252550E+03 -0.56566478205E+03  0.69090998842E+03  0.90396454434E+02 0.  0.
         23    2    4    4    0    0 -0.22929179562E+03 -0.95388443510E+01  0.24963976574E+03  0.35076472663E+03  0.89722704579E+02 0.  0.
          4    1    3    3  502    0  0.11365161705E+03 -0.22976381056E+03  0.37322599004E+03  0.45277559380E+03  0.00000000000E+00 0. -1.
         -3    1    3    3    0  502  0.31154338055E+02 -0.13761987059E+03  0.31014410948E+03  0.34073331244E+03  0.00000000000E+00 0.  1.
         11    1    5    5    0    0  0.71389930740E+02  0.17687473451E+03 -0.33327751728E+03  0.38399882480E+03  0.00000000000E+00 0. -1.
        -11    1    5    5    0    0  0.13095909776E+02  0.20004779098E+03 -0.23238726476E+03  0.30691116362E+03  0.00000000000E+00 0.  1.
          2    1    6    6  503    0 -0.11416620348E+03  0.22404307327E+02  0.17415466805E+03  0.20944145580E+03  0.00000000000E+00 0. -1.
         -2    1    6    6    0  503 -0.11512559214E+03 -0.31943151678E+02  0.75485097696E+02  0.14132327083E+03  0.00000000000E+00 0.  1.
<mgrwt>
<rscale>  0 0.17980424E+04</rscale>
<asrwt>0</asrwt>
<pdfrwt beam="1">  1        2 0.16942528E+00 0.17980424E+04</pdfrwt>
<pdfrwt beam="2">  1       -1 0.11291066E+00 0.17980424E+04</pdfrwt>
<totfact> 0.16799524E+01</totfact>
</mgrwt>
</event>
<event>
12    6  0.1556619E-007  0.1652230E+04  0.7818608E-02  0.8789088E-01
          2   -1    0    0  501    0  0.00000000000E+00  0.00000000000E+00  0.90777509426E+03  0.90777509426E+03  0.00000000000E+00 0. -1.
         -1   -1    0    0    0  501 -0.00000000000E+00 -0.00000000000E+00 -0.75180093269E+03  0.75180093269E+03  0.00000000000E+00 0.  1.
         24    2    1    2    0    0 -0.83351679438E+02 -0.26859595440E+03  0.56111024043E+03  0.63266373198E+03  0.79544997743E+02 0.  0.
        254    2    1    2    0    0  0.83351679438E+02  0.26859595440E+03 -0.40513607886E+03  0.10269122950E+04  0.90073432820E+03 0.  0.
         23    2    4    4    0    0  0.29774632466E+03 -0.11375345067E+03 -0.46904367786E+03  0.57465159517E+03  0.92896516102E+02 0.  0.
         23    2    4    4    0    0 -0.21439464522E+03  0.38234940507E+03  0.63907599008E+02  0.45226069980E+03  0.91101196033E+02 0.  0.
          2    1    3    3  502    0 -0.61995200013E+02 -0.24400652299E+03  0.53368156301E+03  0.59008355237E+03  0.00000000000E+00 0. -1.
         -1    1    3    3    0  502 -0.21356479425E+02 -0.24589431405E+02  0.27428677419E+02  0.42580179606E+02  0.00000000000E+00 0.  1.
         11    1    5    5    0    0  0.90870298174E+02 -0.31212747634E+02 -0.74509613852E+02  0.12158671499E+03  0.00000000000E+00 0.  1.
        -11    1    5    5    0    0  0.20687602648E+03 -0.82540703039E+02 -0.39453406401E+03  0.45306488018E+03  0.00000000000E+00 0. -1.
          2    1    6    6  503    0 -0.17308581992E+03  0.29119757740E+03  0.86591478368E+02  0.34964669921E+03  0.00000000000E+00 0. -1.
         -2    1    6    6    0  503 -0.41308825303E+02  0.91151827673E+02 -0.22683879360E+02  0.10261400060E+03  0.00000000000E+00 0.  1.
<mgrwt>
<rscale>  0 0.16522302E+04</rscale>
<asrwt>0</asrwt>
<pdfrwt beam="1">  1        2 0.13965771E+00 0.16522302E+04</pdfrwt>
<pdfrwt beam="2">  1       -1 0.11566168E+00 0.16522302E+04</pdfrwt>
<totfact> 0.21381154E+01</totfact>
</mgrwt>
</event>
<event>
12    6  0.1556619E-007  0.2651363E+04  0.7818608E-02  0.8350961E-01
          2   -1    0    0  501    0  0.00000000000E+00  0.00000000000E+00  0.18049300924E+04  0.18049300924E+04  0.00000000000E+00 0. -1.
         -1   -1    0    0    0  501 -0.00000000000E+00 -0.00000000000E+00 -0.97368384232E+03  0.97368384232E+03  0.00000000000E+00 0.  1.
         24    2    1    2    0    0  0.16080261832E+03  0.29191223867E+03  0.15451908227E+04  0.15821047470E+04  0.66109869830E+02 0.  0.
        254    2    1    2    0    0 -0.16080261832E+03 -0.29191223867E+03 -0.71394457259E+03  0.11965091877E+04  0.90047051390E+03 0.  0.
         23    2    4    4    0    0  0.22990662996E+03  0.75163347181E+02  0.46000071281E+02  0.26201635099E+03  0.89610124275E+02 0.  0.
         23    2    4    4    0    0 -0.39070924827E+03 -0.36707558585E+03 -0.75994464387E+03  0.93449283672E+03  0.91448333583E+02 0.  0.
          4    1    3    3  502    0  0.14808165934E+03  0.28530088995E+03  0.15144232673E+04  0.15481610408E+04  0.00000000000E+00 0. -1.
         -3    1    3    3    0  502  0.12720958976E+02  0.66113487186E+01  0.30767555392E+02  0.33943706249E+02  0.00000000000E+00 0.  1.
         11    1    5    5    0    0  0.23524958546E+03  0.80245885095E+02  0.50130323176E+02  0.25356423020E+03  0.00000000000E+00 0. -1.
        -11    1    5    5    0    0 -0.53429555065E+01 -0.50825379141E+01 -0.41302518947E+01  0.84521207934E+01  0.00000000000E+00 0.  1.
          2    1    6    6  503    0 -0.21713049964E+03 -0.14267537895E+03 -0.34705870790E+03  0.43353392527E+03  0.00000000000E+00 0. -1.
         -2    1    6    6    0  503 -0.17357874863E+03 -0.22440020690E+03 -0.41288593597E+03  0.50095891144E+03  0.00000000000E+00 0.  1.
<mgrwt>
<rscale>  0 0.26513629E+04</rscale>
<asrwt>0</asrwt>
<pdfrwt beam="1">  1        2 0.27768155E+00 0.26513629E+04</pdfrwt>
<pdfrwt beam="2">  1       -1 0.14979751E+00 0.26513629E+04</pdfrwt>
<totfact> 0.30101863E+00</totfact>
</mgrwt>
</event>
<event>
12    6  0.1556619E-007  0.1145572E+04  0.7818608E-02  0.9161879E-01
         -1   -1    0    0    0  501 -0.00000000000E+00  0.00000000000E+00  0.82195820267E+03  0.82195820267E+03  0.00000000000E+00 0.  1.
          2   -1    0    0  501    0  0.00000000000E+00 -0.00000000000E+00 -0.39914884024E+03  0.39914884024E+03  0.00000000000E+00 0. -1.
         24    2    1    2    0    0  0.23592671909E+02 -0.12974273756E+03 -0.82377709402E+02  0.17463037773E+03  0.79497733931E+02 0.  0.
        254    2    1    2    0    0 -0.23592671909E+02  0.12974273756E+03  0.50518707183E+03  0.10464766652E+04  0.90692317266E+03 0.  0.
         23    2    4    4    0    0 -0.17347094020E+03  0.26942166506E+03  0.68372488112E+03  0.76038307381E+03  0.89568438467E+02 0.  0.
         23    2    4    4    0    0  0.14987826829E+03 -0.13967892750E+03 -0.17853780929E+03  0.28609359138E+03  0.89443253454E+02 0.  0.
          2    1    3    3  502    0 -0.28029509725E+02 -0.28770892033E+02 -0.16053262592E+02  0.43256501057E+02  0.00000000000E+00 0. -1.
         -1    1    3    3    0  502  0.51622181634E+02 -0.10097184553E+03 -0.66324446810E+02  0.13137387667E+03  0.00000000000E+00 0.  1.
         11    1    5    5    0    0 -0.62687782349E+02  0.14089334661E+03  0.23948704259E+03  0.28484159940E+03  0.00000000000E+00 0.  1.
        -11    1    5    5    0    0 -0.11078315785E+03  0.12852831845E+03  0.44423783853E+03  0.47554147441E+03  0.00000000000E+00 0. -1.
          1    1    6    6  503    0  0.69165759402E+02 -0.49441409874E+02 -0.13069638647E+03  0.15591632602E+03  0.00000000000E+00 0. -1.
         -1    1    6    6    0  503  0.80712508886E+02 -0.90237517624E+02 -0.47841422821E+02  0.13017726535E+03  0.00000000000E+00 0.  1.
<mgrwt>
<rscale>  0 0.11455718E+04</rscale>
<asrwt>0</asrwt>
<pdfrwt beam="1">  1        2 0.61407514E-01 0.11455718E+04</pdfrwt>
<pdfrwt beam="2">  1       -1 0.12645511E+00 0.11455718E+04</pdfrwt>
<totfact> 0.49131223E+01</totfact>
</mgrwt>
</event>
<event>
12    6  0.1556619E-007  0.1695643E+04  0.7818608E-02  0.8763853E-01
         -1   -1    0    0    0  501 -0.00000000000E+00  0.00000000000E+00  0.51497919351E+03  0.51497919351E+03  0.00000000000E+00 0.  1.
          2   -1    0    0  501    0  0.00000000000E+00 -0.00000000000E+00 -0.13957875443E+04  0.13957875443E+04  0.00000000000E+00 0. -1.
         24    2    1    2    0    0 -0.56045396572E+03  0.23474861901E+03 -0.49510293993E+03  0.78783103992E+03  0.79594374904E+02 0.  0.
        254    2    1    2    0    0  0.56045396572E+03 -0.23474861901E+03 -0.38570541084E+03  0.11229356979E+04  0.86197468395E+03 0.  0.
         23    2    4    4    0    0  0.91031895756E+02 -0.48754551742E+03 -0.11218986752E+03  0.51661507684E+03  0.91198320416E+02 0.  0.
         23    2    4    4    0    0  0.46942206997E+03  0.25279689841E+03 -0.27351554332E+03  0.60632062102E+03  0.92469408010E+02 0.  0.
          2    1    3    3  502    0 -0.51364479719E+03  0.21655314412E+03 -0.42204666883E+03  0.69917782615E+03  0.00000000000E+00 0. -1.
         -1    1    3    3    0  502 -0.46809168530E+02  0.18195474888E+02 -0.73056271098E+02  0.88653213769E+02  0.00000000000E+00 0.  1.
         11    1    5    5    0    0  0.12305866575E+02 -0.18681407768E+03 -0.81664267489E+02  0.20425470999E+03  0.00000000000E+00 0. -1.
        -11    1    5    5    0    0  0.78726029182E+02 -0.30073143974E+03 -0.30525600029E+02  0.31236036685E+03  0.00000000000E+00 0.  1.
          4    1    6    6  503    0  0.67866054389E+02  0.24392885664E+02 -0.57158984258E+01  0.72342834505E+02  0.00000000000E+00 0. -1.
         -4    1    6    6    0  503  0.40155601558E+03  0.22840401275E+03 -0.26779964490E+03  0.53397778652E+03  0.00000000000E+00 0.  1.
<mgrwt>
<rscale>  0 0.16956433E+04</rscale>
<asrwt>0</asrwt>
<pdfrwt beam="1">  1        2 0.21473655E+00 0.16956433E+04</pdfrwt>
<pdfrwt beam="2">  1       -1 0.79227568E-01 0.16956433E+04</pdfrwt>
<totfact> 0.25140372E+01</totfact>
</mgrwt>
</event>
<event>
12    6  0.1556619E-007  0.1317521E+04  0.7818608E-02  0.9015785E-01
         -1   -1    0    0    0  501 -0.00000000000E+00  0.00000000000E+00  0.11922172212E+04  0.11922172212E+04  0.00000000000E+00 0.  1.
          2   -1    0    0  501    0  0.00000000000E+00 -0.00000000000E+00 -0.36399832799E+03  0.36399832799E+03  0.00000000000E+00 0. -1.
         24    2    1    2    0    0  0.10447555307E+03  0.85848876561E+02 -0.13597002979E+03  0.20699985061E+03  0.77948177370E+02 0.  0.
        254    2    1    2    0    0 -0.10447555307E+03 -0.85848876561E+02  0.96418892300E+03  0.13492156986E+04  0.93404365596E+03 0.  0.
         23    2    4    4    0    0 -0.21970332347E+03  0.38300594835E+03  0.48317901809E+03  0.66157726678E+03  0.96225825931E+02 0.  0.
         23    2    4    4    0    0  0.11522777040E+03 -0.46885482491E+03  0.48100990491E+03  0.68763843179E+03  0.91508460515E+02 0.  0.
          4    1    3    3  502    0  0.69199897114E+02  0.10989388920E+02 -0.83543648601E+02  0.10903638682E+03  0.00000000000E+00 0. -1.
         -3    1    3    3    0  502  0.35275655955E+02  0.74859487640E+02 -0.52426381193E+02  0.97963463790E+02  0.00000000000E+00 0.  1.
         11    1    5    5    0    0 -0.15305964722E+03  0.32706211449E+03  0.42089118739E+03  0.55456854758E+03  0.00000000000E+00 0.  1.
        -11    1    5    5    0    0 -0.66643676246E+02  0.55943833862E+02  0.62287830705E+02  0.10700871920E+03  0.00000000000E+00 0. -1.
          4    1    6    6  503    0 -0.46930729241E+01 -0.87478643299E+01 -0.17069794993E+01  0.10072926229E+02  0.00000000000E+00 0. -1.
         -4    1    6    6    0  503  0.11992084332E+03 -0.46010696058E+03  0.48271688441E+03  0.67756550557E+03  0.00000000000E+00 0.  1.
<mgrwt>
<rscale>  0 0.13175205E+04</rscale>
<asrwt>0</asrwt>
<pdfrwt beam="1">  1        2 0.55999743E-01 0.13175205E+04</pdfrwt>
<pdfrwt beam="2">  1       -1 0.18341803E+00 0.13175205E+04</pdfrwt>
<totfact> 0.19493144E+01</totfact>
</mgrwt>
</event>
<event>
12    6  0.1556619E-007  0.2161932E+04  0.7818608E-02  0.8534442E-01
          2   -1    0    0  501    0  0.00000000000E+00  0.00000000000E+00  0.35446032965E+04  0.35446032965E+04  0.00000000000E+00 0. -1.
         -1   -1    0    0    0  501 -0.00000000000E+00 -0.00000000000E+00 -0.32965247129E+03  0.32965247129E+03  0.00000000000E+00 0.  1.
         24    2    1    2    0    0 -0.68377121137E+02 -0.76667333788E+03  0.52645170424E+03  0.93584339167E+03  0.78663963352E+02 0.  0.
        254    2    1    2    0    0  0.68377121137E+02  0.76667333788E+03  0.26884991210E+04  0.29384123761E+04  0.90209552206E+03 0.  0.
         23    2    4    4    0    0  0.77847550072E+02  0.50098388609E+03  0.25917147305E+04  0.26423064145E+04  0.88050262731E+02 0.  0.
         23    2    4    4    0    0 -0.94704289350E+01  0.26568945179E+03  0.96784390520E+02  0.29610596164E+03  0.87355300080E+02 0.  0.
          4    1    3    3  502    0 -0.21423250889E+01 -0.37456998340E+02  0.48996691595E+02  0.61711360937E+02  0.00000000000E+00 0. -1.
         -3    1    3    3    0  502 -0.66234796048E+02 -0.72921633954E+03  0.47745501265E+03  0.87413203074E+03  0.00000000000E+00 0.  1.
         11    1    5    5    0    0  0.77923216344E+02  0.50361588553E+03  0.25451585497E+04  0.25956758331E+04  0.00000000000E+00 0. -1.
        -11    1    5    5    0    0 -0.75666271607E-01 -0.26319994409E+01  0.46556180806E+02  0.46630581357E+02  0.00000000000E+00 0.  1.
          3    1    6    6  503    0  0.28773806178E+02  0.12835692272E+03  0.16713572589E+02  0.13260005672E+03  0.00000000000E+00 0. -1.
         -3    1    6    6    0  503 -0.38244235113E+02  0.13733252907E+03  0.80070817932E+02  0.16350590492E+03  0.00000000000E+00 0.  1.
<mgrwt>
<rscale>  0 0.21619318E+04</rscale>
<asrwt>0</asrwt>
<pdfrwt beam="1">  1        2 0.54532356E+00 0.21619318E+04</pdfrwt>
<pdfrwt beam="2">  1       -1 0.50715767E-01 0.21619318E+04</pdfrwt>
<totfact> 0.30950982E+00</totfact>
</mgrwt>
</event>
<event>
12    6  0.1556619E-007  0.1195427E+04  0.7818608E-02  0.9116868E-01
         -1   -1    0    0    0  501 -0.00000000000E+00  0.00000000000E+00  0.16932551496E+03  0.16932551496E+03  0.00000000000E+00 0.  1.
          2   -1    0    0  501    0  0.00000000000E+00 -0.00000000000E+00 -0.21099099924E+04  0.21099099924E+04  0.00000000000E+00 0. -1.
         24    2    1    2    0    0  0.13075377551E+03  0.80925874274E+02 -0.80704221101E+03  0.82512714211E+03  0.76629781135E+02 0.  0.
        254    2    1    2    0    0 -0.13075377551E+03 -0.80925874274E+02 -0.11335422664E+04  0.14541083653E+04  0.89770124271E+03 0.  0.
         23    2    4    4    0    0 -0.32371376786E+03  0.25507435514E+03 -0.26441508480E+03  0.49790115994E+03  0.90203646574E+02 0.  0.
         23    2    4    4    0    0  0.19295999235E+03 -0.33600022941E+03 -0.86912718165E+03  0.95620720531E+03  0.93917244402E+02 0.  0.
          2    1    3    3  502    0  0.10856634301E+03  0.85451534652E+02 -0.76498482795E+03  0.77736117899E+03  0.00000000000E+00 0. -1.
         -1    1    3    3    0  502  0.22187432499E+02 -0.45256603784E+01 -0.42057383060E+02  0.47765963118E+02  0.00000000000E+00 0.  1.
         11    1    5    5    0    0 -0.19294445821E+03  0.95129390427E+02 -0.12783397555E+03  0.25023726777E+03  0.00000000000E+00 0. -1.
        -11    1    5    5    0    0 -0.13076930965E+03  0.15994496471E+03 -0.13658110925E+03  0.24766389217E+03  0.00000000000E+00 0.  1.
          1    1    6    6  503    0  0.18788761315E+03 -0.25102052848E+03 -0.68558399424E+03  0.75388226803E+03  0.00000000000E+00 0. -1.
         -1    1    6    6    0  503  0.50723792009E+01 -0.84979700935E+02 -0.18354318741E+03  0.20232493728E+03  0.00000000000E+00 0.  1.
<mgrwt>
<rscale>  0 0.11954273E+04</rscale>
<asrwt>0</asrwt>
<pdfrwt beam="1">  1        2 0.32460156E+00 0.11954273E+04</pdfrwt>
<pdfrwt beam="2">  1       -1 0.26050078E-01 0.11954273E+04</pdfrwt>
<totfact> 0.85304547E+01</totfact>
</mgrwt>
</event>
<event>
12    6  0.1556619E-007  0.1292911E+04  0.7818608E-02  0.9035206E-01
         -1   -1    0    0    0  501 -0.00000000000E+00  0.00000000000E+00  0.84705563835E+03  0.84705563835E+03  0.00000000000E+00 0.  1.
          2   -1    0    0  501    0  0.00000000000E+00 -0.00000000000E+00 -0.49336134014E+03  0.49336134014E+03  0.00000000000E+00 0. -1.
         24    2    1    2    0    0 -0.24061192103E+03 -0.10047987180E+03 -0.10811283278E+03  0.29416409465E+03  0.82787854143E+02 0.  0.
        254    2    1    2    0    0  0.24061192103E+03  0.10047987180E+03  0.46180713099E+03  0.10462528838E+04  0.90188079562E+03 0.  0.
         23    2    4    4    0    0  0.21199357994E+03 -0.15295489560E+03 -0.19221897409E+03  0.33696472477E+03  0.90887918405E+02 0.  0.
         23    2    4    4    0    0  0.28618341084E+02  0.25343476740E+03  0.65402610508E+03  0.70928815906E+03  0.10144631918E+03 0.  0.
          4    1    3    3  502    0 -0.53659918277E+02 -0.28343769890E+02  0.10081203017E+02  0.61517369704E+02  0.00000000000E+00 0. -1.
         -3    1    3    3    0  502 -0.18695200275E+03 -0.72136101913E+02 -0.11819403580E+03  0.23264672495E+03  0.00000000000E+00 0.  1.
         11    1    5    5    0    0  0.20919547571E+03 -0.11772788786E+03 -0.17813957333E+03  0.29892525859E+03  0.00000000000E+00 0. -1.
        -11    1    5    5    0    0  0.27981042335E+01 -0.35227007733E+02 -0.14079400767E+02  0.38039466177E+02  0.00000000000E+00 0.  1.
          4    1    6    6  503    0 -0.31892288848E+02  0.13451044949E+03  0.38326478389E+03  0.40743352057E+03  0.00000000000E+00 0. -1.
         -4    1    6    6    0  503  0.60510629932E+02  0.11892431791E+03  0.27076132119E+03  0.30185463849E+03  0.00000000000E+00 0.  1.
<mgrwt>
<rscale>  0 0.12929107E+04</rscale>
<asrwt>0</asrwt>
<pdfrwt beam="1">  1        2 0.75901745E-01 0.12929107E+04</pdfrwt>
<pdfrwt beam="2">  1       -1 0.13031625E+00 0.12929107E+04</pdfrwt>
<totfact> 0.35364055E+01</totfact>
</mgrwt>
</event>
<event>
12    6  0.1556619E-007  0.1967135E+04  0.7818608E-02  0.8622142E-01
         -1   -1    0    0    0  501 -0.00000000000E+00  0.00000000000E+00  0.52626018932E+03  0.52626018932E+03  0.00000000000E+00 0.  1.
          2   -1    0    0  501    0  0.00000000000E+00 -0.00000000000E+00 -0.18382640786E+04  0.18382640786E+04  0.00000000000E+00 0. -1.
         24    2    1    2    0    0  0.29639620172E+03 -0.18217500158E+03  0.31801947164E+03  0.47810586249E+03  0.80064922476E+02 0.  0.
        254    2    1    2    0    0 -0.29639620172E+03  0.18217500158E+03 -0.16300233609E+04  0.18864184054E+04  0.88349295619E+03 0.  0.
         23    2    4    4    0    0 -0.22932610337E+03  0.14793364857E+03 -0.17115414107E+04  0.17355555830E+04  0.91128234103E+02 0.  0.
         23    2    4    4    0    0 -0.67070098348E+02  0.34241353003E+02  0.81518049797E+02  0.15086282243E+03  0.10219359276E+03 0.  0.
          4    1    3    3  502    0  0.25445374500E+03 -0.15376386634E+03  0.22744863705E+03  0.37432995796E+03  0.00000000000E+00 0. -1.
         -3    1    3    3    0  502  0.41942456726E+02 -0.28411135236E+02  0.90570834591E+02  0.10377590453E+03  0.00000000000E+00 0.  1.
         11    1    5    5    0    0 -0.50324097710E+02  0.52015607456E+02 -0.26032191711E+03  0.27019555651E+03  0.00000000000E+00 0. -1.
        -11    1    5    5    0    0 -0.17900200566E+03  0.95918041118E+02 -0.14512194936E+04  0.14653600265E+04  0.00000000000E+00 0.  1.
          1    1    6    6  503    0 -0.88907982913E+02  0.23041234325E+02  0.35038732599E+02  0.98301783743E+02  0.00000000000E+00 0. -1.
         -1    1    6    6    0  503  0.21837884565E+02  0.11200118677E+02  0.46479317198E+02  0.52561038687E+02  0.00000000000E+00 0.  1.
<mgrwt>
<rscale>  0 0.19671352E+04</rscale>
<asrwt>0</asrwt>
<pdfrwt beam="1">  1        2 0.28280986E+00 0.19671352E+04</pdfrwt>
<pdfrwt beam="2">  1       -1 0.80963106E-01 0.19671352E+04</pdfrwt>
<totfact> 0.13252817E+01</totfact>
</mgrwt>
</event>
<event>
12    6  0.1556619E-007  0.2111160E+04  0.7818608E-02  0.8556343E-01
         -1   -1    0    0    0  501 -0.00000000000E+00  0.00000000000E+00  0.91981783046E+03  0.91981783046E+03  0.00000000000E+00 0.  1.
          2   -1    0    0  501    0  0.00000000000E+00 -0.00000000000E+00 -0.12113803248E+04  0.12113803248E+04  0.00000000000E+00 0. -1.
         24    2    1    2    0    0  0.14217897812E+03 -0.76177720746E+03  0.25878826375E+03  0.82081425390E+03  0.79027199931E+02 0.  0.
        254    2    1    2    0    0 -0.14217897812E+03  0.76177720746E+03 -0.55035075809E+03  0.13103839014E+04  0.90205356624E+03 0.  0.
         23    2    4    4    0    0 -0.40112759384E+03  0.37298302819E+03 -0.61610219121E+03  0.82932203941E+03  0.90407130147E+02 0.  0.
         23    2    4    4    0    0  0.25894861572E+03  0.38879417927E+03  0.65751433121E+02  0.48106186194E+03  0.94244175617E+02 0.  0.
          4    1    3    3  502    0  0.48438927809E+02 -0.10654467392E+03  0.37542875596E+02  0.12291283406E+03  0.00000000000E+00 0. -1.
         -3    1    3    3    0  502  0.93740050314E+02 -0.65523253354E+03  0.22124538816E+03  0.69790141985E+03  0.00000000000E+00 0.  1.
         11    1    5    5    0    0 -0.76174942649E+02  0.12221248174E+03 -0.17837019858E+03  0.22924755249E+03  0.00000000000E+00 0. -1.
        -11    1    5    5    0    0 -0.32495265119E+03  0.25077054645E+03 -0.43773199264E+03  0.60007448693E+03  0.00000000000E+00 0.  1.
          3    1    6    6  503    0  0.41049409675E+02  0.16561182704E+02 -0.26852265210E+01  0.44345656481E+02  0.00000000000E+00 0. -1.
         -3    1    6    6    0  503  0.21789920604E+03  0.37223299657E+03  0.68436659642E+02  0.43671620546E+03  0.00000000000E+00 0.  1.
<mgrwt>
<rscale>  0 0.21111601E+04</rscale>
<asrwt>0</asrwt>
<pdfrwt beam="1">  1        2 0.18636620E+00 0.21111601E+04</pdfrwt>
<pdfrwt beam="2">  1       -1 0.14151044E+00 0.21111601E+04</pdfrwt>
<totfact> 0.79765782E+00</totfact>
</mgrwt>
</event>
<event>
12    6  0.1556619E-007  0.2546097E+04  0.7818608E-02  0.8386745E-01
         -1   -1    0    0    0  501 -0.00000000000E+00  0.00000000000E+00  0.24732492507E+04  0.24732492507E+04  0.00000000000E+00 0.  1.
          2   -1    0    0  501    0  0.00000000000E+00 -0.00000000000E+00 -0.65527234970E+03  0.65527234970E+03  0.00000000000E+00 0. -1.
         24    2    1    2    0    0 -0.32048814017E+03  0.78195824354E+02  0.20943138855E+04  0.21215447741E+04  0.77293872956E+02 0.  0.
        254    2    1    2    0    0  0.32048814017E+03 -0.78195824354E+02 -0.27633698452E+03  0.10069768262E+04  0.91039165451E+03 0.  0.
         23    2    4    4    0    0  0.43891735931E+03  0.29494371071E+03 -0.34306264507E+02  0.53786196687E+03  0.92077873710E+02 0.  0.
         23    2    4    4    0    0 -0.11842921914E+03 -0.37313953506E+03 -0.24203072001E+03  0.46911485936E+03  0.90726452981E+02 0.  0.
          2    1    3    3  502    0 -0.10920394646E+03  0.51628859029E+02  0.94276304301E+03  0.95046998704E+03  0.00000000000E+00 0. -1.
         -1    1    3    3    0  502 -0.21128419372E+03  0.26566965325E+02  0.11515508425E+04  0.11710747871E+04  0.00000000000E+00 0.  1.
         11    1    5    5    0    0  0.11535003662E+03  0.58542785577E+02 -0.45095624424E+02  0.13699089033E+03  0.00000000000E+00 0.  1.
        -11    1    5    5    0    0  0.32356732269E+03  0.23640092513E+03  0.10789359917E+02  0.40087107654E+03  0.00000000000E+00 0. -1.
          4    1    6    6  503    0 -0.88386376801E+02 -0.18218355149E+03 -0.16431452627E+03  0.26077243256E+03  0.00000000000E+00 0. -1.
         -4    1    6    6    0  503 -0.30042842338E+02 -0.19095598357E+03 -0.77716193742E+02  0.20834242680E+03  0.00000000000E+00 0.  1.
<mgrwt>
<rscale>  0 0.25460965E+04</rscale>
<asrwt>0</asrwt>
<pdfrwt beam="1">  1        2 0.10081113E+00 0.25460965E+04</pdfrwt>
<pdfrwt beam="2">  1       -1 0.38049988E+00 0.25460965E+04</pdfrwt>
<totfact> 0.43808962E-01</totfact>
</mgrwt>
</event>
<event>
12    6  0.1556619E-007  0.1603305E+04  0.7818608E-02  0.8818520E-01
         -1   -1    0    0    0  501 -0.00000000000E+00  0.00000000000E+00  0.43147652597E+03  0.43147652597E+03  0.00000000000E+00 0.  1.
          2   -1    0    0  501    0  0.00000000000E+00 -0.00000000000E+00 -0.14894128496E+04  0.14894128496E+04  0.00000000000E+00 0. -1.
         24    2    1    2    0    0  0.99081771120E+02 -0.49261010616E+03 -0.10863801217E+03  0.51974141978E+03  0.76465754997E+02 0.  0.
        254    2    1    2    0    0 -0.99081771120E+02  0.49261010616E+03 -0.94929831142E+03  0.14011479557E+04  0.89975907651E+03 0.  0.
         23    2    4    4    0    0  0.25223243598E+02  0.65051072252E+03 -0.31445538222E+03  0.72870617356E+03  0.91269314904E+02 0.  0.
         23    2    4    4    0    0 -0.12430501472E+03 -0.15790061636E+03 -0.63484292921E+03  0.67244178219E+03  0.93637942835E+02 0.  0.
          4    1    3    3  502    0  0.32727469618E+02 -0.49505035442E+02 -0.30568912908E+01  0.59423735881E+02  0.00000000000E+00 0. -1.
         -3    1    3    3    0  502  0.66354301502E+02 -0.44310507072E+03 -0.10558112088E+03  0.46031768390E+03  0.00000000000E+00 0.  1.
         11    1    5    5    0    0 -0.31781247916E+02  0.22879753288E+03 -0.12816843579E+03  0.26416946588E+03  0.00000000000E+00 0. -1.
        -11    1    5    5    0    0  0.57004491514E+02  0.42171318964E+03 -0.18628694643E+03  0.46453670767E+03  0.00000000000E+00 0.  1.
          4    1    6    6  503    0 -0.21859126545E+02 -0.31597838173E+02 -0.38775162208E+02  0.54587159615E+02  0.00000000000E+00 0. -1.
         -4    1    6    6    0  503 -0.10244588817E+03 -0.12630277819E+03 -0.59606776700E+03  0.61785462257E+03  0.00000000000E+00 0.  1.
<mgrwt>
<rscale>  0 0.16033049E+04</rscale>
<asrwt>0</asrwt>
<pdfrwt beam="1">  1        2 0.22914043E+00 0.16033049E+04</pdfrwt>
<pdfrwt beam="2">  1       -1 0.66381005E-01 0.16033049E+04</pdfrwt>
<totfact> 0.32332517E+01</totfact>
</mgrwt>
</event>
<event>
12    6  0.1556619E-007  0.2710691E+04  0.7818608E-02  0.8331544E-01
         -1   -1    0    0    0  501 -0.00000000000E+00  0.00000000000E+00  0.76827256495E+03  0.76827256495E+03  0.00000000000E+00 0.  1.
          2   -1    0    0  501    0  0.00000000000E+00 -0.00000000000E+00 -0.23910289960E+04  0.23910289960E+04  0.00000000000E+00 0. -1.
         24    2    1    2    0    0 -0.10421767302E+04  0.45738678695E+03 -0.26249404170E+03  0.11706464247E+04  0.78580658494E+02 0.  0.
        254    2    1    2    0    0  0.10421767302E+04 -0.45738678695E+03 -0.13602623893E+04  0.19886551362E+04  0.89950012415E+03 0.  0.
         23    2    4    4    0    0  0.54212500380E+03 -0.88530030922E+02 -0.12254973758E+04  0.13461710387E+04  0.92712249770E+02 0.  0.
         23    2    4    4    0    0  0.50005172636E+03 -0.36885675603E+03 -0.13476501350E+03  0.64248409752E+03  0.92288521433E+02 0.  0.
          4    1    3    3  502    0 -0.27316408386E+03  0.12677438021E+03 -0.10473100927E+03  0.31883999826E+03  0.00000000000E+00 0. -1.
         -3    1    3    3    0  502 -0.76901264630E+03  0.33061240674E+03 -0.15776303243E+03  0.85180642640E+03  0.00000000000E+00 0.  1.
         11    1    5    5    0    0  0.17888968747E+03 -0.55860917525E+01 -0.31332645137E+03  0.36084094811E+03  0.00000000000E+00 0. -1.
        -11    1    5    5    0    0  0.36323531633E+03 -0.82943939169E+02 -0.91217092444E+03  0.98533009062E+03  0.00000000000E+00 0.  1.
          4    1    6    6  503    0  0.60814161549E+01  0.56476098059E+01 -0.14995540623E+01  0.84337287930E+01  0.00000000000E+00 0. -1.
         -4    1    6    6    0  503  0.49397031021E+03 -0.37450436583E+03 -0.13326545944E+03  0.63405036872E+03  0.00000000000E+00 0.  1.
<mgrwt>
<rscale>  0 0.27106914E+04</rscale>
<asrwt>0</asrwt>
<pdfrwt beam="1">  1        2 0.36785061E+00 0.27106914E+04</pdfrwt>
<pdfrwt beam="2">  1       -1 0.11819578E+00 0.27106914E+04</pdfrwt>
<totfact> 0.25754345E+00</totfact>
</mgrwt>
</event>
<event>
12    6  0.1556619E-007  0.1646376E+04  0.7818608E-02  0.8792553E-01
         -1   -1    0    0    0  501 -0.00000000000E+00  0.00000000000E+00  0.95807360743E+03  0.95807360743E+03  0.00000000000E+00 0.  1.
          2   -1    0    0  501    0  0.00000000000E+00 -0.00000000000E+00 -0.70729269395E+03  0.70729269395E+03  0.00000000000E+00 0. -1.
         24    2    1    2    0    0 -0.54510190699E+03 -0.17103561994E+03  0.17638603895E+03  0.60311994652E+03  0.79071884115E+02 0.  0.
        254    2    1    2    0    0  0.54510190699E+03  0.17103561994E+03  0.74394874523E+02  0.10622463549E+04  0.89243680379E+03 0.  0.
         23    2    4    4    0    0  0.57386881043E+03 -0.23939670248E+03 -0.29144841358E+02  0.62847345525E+03  0.86563672697E+02 0.  0.
         23    2    4    4    0    0 -0.28766903439E+02  0.41043232243E+03  0.10353971588E+03  0.43377289961E+03  0.90311846641E+02 0.  0.
          4    1    3    3  502    0 -0.70729108064E+01  0.60373691941E+01  0.78215159060E+01  0.12151214142E+02  0.00000000000E+00 0. -1.
         -3    1    3    3    0  502 -0.53802899619E+03 -0.17707298914E+03  0.16856452304E+03  0.59096873238E+03  0.00000000000E+00 0.  1.
         11    1    5    5    0    0  0.32839393541E+02 -0.20008402328E+01  0.14684867930E+02  0.36028800644E+02  0.00000000000E+00 0.  1.
        -11    1    5    5    0    0  0.54102941689E+03 -0.23739586225E+03 -0.43829709288E+02  0.59244465461E+03  0.00000000000E+00 0. -1.
          1    1    6    6  503    0 -0.48890943564E+02  0.32527796064E+03  0.54342036053E+02  0.33339036117E+03  0.00000000000E+00 0. -1.
         -1    1    6    6    0  503  0.20124040126E+02  0.85154361790E+02  0.49197679829E+02  0.10038253844E+03  0.00000000000E+00 0.  1.
<mgrwt>
<rscale>  0 0.16463760E+04</rscale>
<asrwt>0</asrwt>
<pdfrwt beam="1">  1        2 0.10881426E+00 0.16463760E+04</pdfrwt>
<pdfrwt beam="2">  1       -1 0.14739594E+00 0.16463760E+04</pdfrwt>
<totfact> 0.16139192E+01</totfact>
</mgrwt>
</event>
<event>
12    6  0.1556619E-007  0.1705005E+04  0.7818608E-02  0.8758515E-01
          2   -1    0    0  501    0  0.00000000000E+00  0.00000000000E+00  0.17542554726E+04  0.17542554726E+04  0.00000000000E+00 0. -1.
         -1   -1    0    0    0  501 -0.00000000000E+00 -0.00000000000E+00 -0.41428417030E+03  0.41428417030E+03  0.00000000000E+00 0.  1.
         24    2    1    2    0    0 -0.58727279476E+03  0.17922896689E+03  0.53907973650E+03  0.82094412065E+03  0.79560850219E+02 0.  0.
        254    2    1    2    0    0  0.58727279476E+03 -0.17922896689E+03  0.80089156579E+03  0.13475955222E+04  0.89307000475E+03 0.  0.
         23    2    4    4    0    0  0.13386260443E+03 -0.32492524356E+03 -0.52370948849E+02  0.36603658253E+03  0.88002572113E+02 0.  0.
         23    2    4    4    0    0  0.45341019033E+03  0.14569627668E+03  0.85326251463E+03  0.98155893971E+03  0.92697505437E+02 0.  0.
          2    1    3    3  502    0 -0.13371624380E+03  0.45010039822E+02  0.82021662391E+02  0.16319770415E+03  0.00000000000E+00 0. -1.
         -1    1    3    3    0  502 -0.45355655096E+03  0.13421892707E+03  0.45705807411E+03  0.65774641649E+03  0.00000000000E+00 0.  1.
         11    1    5    5    0    0  0.18284224622E+02 -0.12263185348E+03 -0.48170041467E+02  0.13301592857E+03  0.00000000000E+00 0. -1.
        -11    1    5    5    0    0  0.11557837981E+03 -0.20229339008E+03 -0.42009073811E+01  0.23302065396E+03  0.00000000000E+00 0.  1.
          4    1    6    6  503    0  0.14533273791E+03  0.39051192614E+02  0.18889049906E+03  0.24150822137E+03  0.00000000000E+00 0. -1.
         -4    1    6    6    0  503  0.30807745242E+03  0.10664508406E+03  0.66437201557E+03  0.74005071834E+03  0.00000000000E+00 0.  1.
<mgrwt>
<rscale>  0 0.17050047E+04</rscale>
<asrwt>0</asrwt>
<pdfrwt beam="1">  1        2 0.26988545E+00 0.17050047E+04</pdfrwt>
<pdfrwt beam="2">  1       -1 0.63736027E-01 0.17050047E+04</pdfrwt>
<totfact> 0.24746152E+01</totfact>
</mgrwt>
</event>
<event>
12    6  0.1556619E-007  0.1687263E+04  0.7818608E-02  0.8768662E-01
         -1   -1    0    0    0  501 -0.00000000000E+00  0.00000000000E+00  0.67027035856E+03  0.67027035856E+03  0.00000000000E+00 0.  1.
          2   -1    0    0  501    0  0.00000000000E+00 -0.00000000000E+00 -0.10618319054E+04  0.10618319054E+04  0.00000000000E+00 0. -1.
         24    2    1    2    0    0  0.28461263963E+03 -0.52680850595E+03 -0.19378091449E+03  0.63473988592E+03  0.82535588578E+02 0.  0.
        254    2    1    2    0    0 -0.28461263963E+03  0.52680850595E+03 -0.19778063232E+03  0.10973623780E+04  0.89808432430E+03 0.  0.
         23    2    4    4    0    0 -0.14934415937E+03  0.25599173278E+03  0.34850145692E+03  0.46618403781E+03  0.89659614322E+02 0.  0.
         23    2    4    4    0    0 -0.13526848026E+03  0.27081677316E+03 -0.54628208924E+03  0.63117834019E+03  0.91228776842E+02 0.  0.
          2    1    3    3  502    0  0.28518986697E+03 -0.52156594792E+03 -0.19943505444E+03  0.62700768670E+03  0.00000000000E+00 0. -1.
         -1    1    3    3    0  502 -0.57722733867E+00 -0.52425580322E+01  0.56541399517E+01  0.77321992159E+01  0.00000000000E+00 0.  1.
         11    1    5    5    0    0 -0.14430212724E+03  0.17778098390E+03  0.28309211172E+03  0.36410208168E+03  0.00000000000E+00 0.  1.
        -11    1    5    5    0    0 -0.50420321348E+01  0.78210748880E+02  0.65409345201E+02  0.10208195613E+03  0.00000000000E+00 0. -1.
          2    1    6    6  503    0 -0.68392948807E+02  0.69331347295E+02 -0.23515434366E+03  0.25452307657E+03  0.00000000000E+00 0. -1.
         -2    1    6    6    0  503 -0.66875531453E+02  0.20148542587E+03 -0.31112774558E+03  0.37665526362E+03  0.00000000000E+00 0.  1.
<mgrwt>
<rscale>  0 0.16872634E+04</rscale>
<asrwt>0</asrwt>
<pdfrwt beam="1">  1        2 0.16335875E+00 0.16872634E+04</pdfrwt>
<pdfrwt beam="2">  1       -1 0.10311852E+00 0.16872634E+04</pdfrwt>
<totfact> 0.22203860E+01</totfact>
</mgrwt>
</event>
<event>
12    6  0.1556619E-007  0.1860098E+04  0.7818608E-02  0.8674977E-01
         -3   -1    0    0    0  501 -0.00000000000E+00  0.00000000000E+00  0.22360808161E+03  0.22360808161E+03  0.00000000000E+00 0.  1.
          2   -1    0    0  501    0  0.00000000000E+00 -0.00000000000E+00 -0.38683357622E+04  0.38683357622E+04  0.00000000000E+00 0. -1.
         24    2    1    2    0    0 -0.13521898447E+03  0.28460492302E+03 -0.28100238356E+04  0.28287823577E+04  0.80570060546E+02 0.  0.
        254    2    1    2    0    0  0.13521898447E+03 -0.28460492302E+03 -0.83470384499E+03  0.12631614861E+04  0.89418247308E+03 0.  0.
         23    2    4    4    0    0 -0.15580798749E+03 -0.27433322893E+03 -0.89370600916E+03  0.95298001791E+03  0.99627477437E+02 0.  0.
         23    2    4    4    0    0  0.29102697196E+03 -0.10271694089E+02  0.59002164172E+02  0.31018146820E+03  0.89045391383E+02 0.  0.
          2    1    3    3  502    0 -0.12093993279E+03  0.20776805284E+03 -0.23386397936E+04  0.23509636567E+04  0.00000000000E+00 0. -1.
         -1    1    3    3    0  502 -0.14279051683E+02  0.76836870181E+02 -0.47138404205E+03  0.47781870101E+03  0.00000000000E+00 0.  1.
         11    1    5    5    0    0  0.22942411344E+01 -0.38473228618E+02 -0.19515585226E+03  0.19892526118E+03  0.00000000000E+00 0. -1.
        -11    1    5    5    0    0 -0.15810222862E+03 -0.23586000032E+03 -0.69855015690E+03  0.75405475673E+03  0.00000000000E+00 0.  1.
          1    1    6    6  503    0  0.27052199712E+03 -0.20509498119E+02  0.75890028097E+02  0.28171277359E+03  0.00000000000E+00 0.  1.
         -1    1    6    6    0  503  0.20504974839E+02  0.10237804029E+02 -0.16887863925E+02  0.28468694604E+02  0.00000000000E+00 0. -1.
<mgrwt>
<rscale>  0 0.18600980E+04</rscale>
<asrwt>0</asrwt>
<pdfrwt beam="1">  1        2 0.59512855E+00 0.18600980E+04</pdfrwt>
<pdfrwt beam="2">  1       -3 0.34401245E-01 0.18600980E+04</pdfrwt>
<totfact> 0.22447521E+00</totfact>
</mgrwt>
</event>
<event>
12    6  0.1556619E-007  0.1475818E+04  0.7818608E-02  0.8900695E-01
         -1   -1    0    0    0  501 -0.00000000000E+00  0.00000000000E+00  0.91613723229E+03  0.91613723229E+03  0.00000000000E+00 0.  1.
          2   -1    0    0  501    0  0.00000000000E+00 -0.00000000000E+00 -0.59435406672E+03  0.59435406672E+03  0.00000000000E+00 0. -1.
         24    2    1    2    0    0 -0.23185275232E+03 -0.23003134432E+03  0.45040208078E+03  0.56204705058E+03  0.79779286573E+02 0.  0.
        254    2    1    2    0    0  0.23185275232E+03  0.23003134432E+03 -0.12861891521E+03  0.94844424844E+03  0.88109792244E+03 0.  0.
         23    2    4    4    0    0 -0.21165606404E+03  0.38069935028E+03  0.29341253639E+02  0.44578222549E+03  0.90169832236E+02 0.  0.
         23    2    4    4    0    0  0.44350881636E+03 -0.15066800596E+03 -0.15796016885E+03  0.50266202295E+03  0.91196360478E+02 0.  0.
          2    1    3    3  502    0  0.36499754419E+01 -0.13659413674E+02  0.35368377127E+02  0.38089683685E+02  0.00000000000E+00 0. -1.
         -1    1    3    3    0  502 -0.23550272776E+03 -0.21637193064E+03  0.41503370365E+03  0.52395736689E+03  0.00000000000E+00 0.  1.
         11    1    5    5    0    0 -0.19610420992E+03  0.32599360604E+03  0.53148790062E+02  0.38412691420E+03  0.00000000000E+00 0.  1.
        -11    1    5    5    0    0 -0.15551854123E+02  0.54705744236E+02 -0.23807536423E+02  0.61655311285E+02  0.00000000000E+00 0. -1.
          2    1    6    6  503    0  0.58581002176E+02 -0.30599140783E+02 -0.56311169610E+02  0.86827352001E+02  0.00000000000E+00 0. -1.
         -2    1    6    6    0  503  0.38492781419E+03 -0.12006886518E+03 -0.10164899924E+03  0.41583467095E+03  0.00000000000E+00 0.  1.
<mgrwt>
<rscale>  0 0.14758183E+04</rscale>
<asrwt>0</asrwt>
<pdfrwt beam="1">  1        2 0.91439088E-01 0.14758183E+04</pdfrwt>
<pdfrwt beam="2">  1       -1 0.14094419E+00 0.14758183E+04</pdfrwt>
<totfact> 0.22856005E+01</totfact>
</mgrwt>
</event>
<event>
12    6  0.1556619E-007  0.1292649E+04  0.7818608E-02  0.9035415E-01
         -1   -1    0    0    0  501 -0.00000000000E+00  0.00000000000E+00  0.38757823075E+03  0.38757823075E+03  0.00000000000E+00 0.  1.
          2   -1    0    0  501    0  0.00000000000E+00 -0.00000000000E+00 -0.10778094417E+04  0.10778094417E+04  0.00000000000E+00 0. -1.
         24    2    1    2    0    0 -0.27252104485E+03  0.25678046160E+02 -0.38811943197E+03  0.48127636469E+03  0.77866320050E+02 0.  0.
        254    2    1    2    0    0  0.27252104485E+03 -0.25678046160E+02 -0.30211177898E+03  0.98411130775E+03  0.89569886519E+03 0.  0.
         23    2    4    4    0    0 -0.16724589273E+03 -0.25649532773E+03  0.10332921067E+03  0.33630151980E+03  0.93063121900E+02 0.  0.
         23    2    4    4    0    0  0.43976693759E+03  0.23081728157E+03 -0.40544098965E+03  0.64780978795E+03  0.92755314693E+02 0.  0.
          4    1    3    3  502    0 -0.23933201201E+03  0.29949345172E+02 -0.28771223886E+03  0.37543988552E+03  0.00000000000E+00 0. -1.
         -3    1    3    3    0  502 -0.33189032846E+02 -0.42712990118E+01 -0.10040719310E+03  0.10583647917E+03  0.00000000000E+00 0.  1.
         11    1    5    5    0    0 -0.39147579806E+02 -0.18555709244E+02  0.39518909710E+02  0.58639505241E+02  0.00000000000E+00 0. -1.
        -11    1    5    5    0    0 -0.12809831293E+03 -0.23793961849E+03  0.63810300964E+02  0.27766201456E+03  0.00000000000E+00 0.  1.
          1    1    6    6  503    0  0.69404756375E+02  0.72832248916E+02 -0.58979472795E+02  0.11661961628E+03  0.00000000000E+00 0. -1.
         -1    1    6    6    0  503  0.37036218121E+03  0.15798503265E+03 -0.34646151686E+03  0.53119017167E+03  0.00000000000E+00 0.  1.
<mgrwt>
<rscale>  0 0.12926492E+04</rscale>
<asrwt>0</asrwt>
<pdfrwt beam="1">  1        2 0.16581683E+00 0.12926492E+04</pdfrwt>
<pdfrwt beam="2">  1       -1 0.59627421E-01 0.12926492E+04</pdfrwt>
<totfact> 0.71719740E+01</totfact>
</mgrwt>
</event>
<event>
12    6  0.1556619E-007  0.1868398E+04  0.7818608E-02  0.8670749E-01
          2   -1    0    0  501    0  0.00000000000E+00  0.00000000000E+00  0.14707544953E+04  0.14707544953E+04  0.00000000000E+00 0. -1.
         -1   -1    0    0    0  501 -0.00000000000E+00 -0.00000000000E+00 -0.59338749097E+03  0.59338749097E+03  0.00000000000E+00 0.  1.
         24    2    1    2    0    0  0.31649641686E+03  0.24123299353E+03 -0.31983064575E+03  0.51751190892E+03  0.84638022579E+02 0.  0.
        254    2    1    2    0    0 -0.31649641686E+03 -0.24123299353E+03  0.11971976501E+04  0.15466300773E+04  0.89466141289E+03 0.  0.
         23    2    4    4    0    0 -0.25428423860E+03  0.21973565148E+03  0.11705181216E+03  0.36751265067E+03  0.91761599478E+02 0.  0.
         23    2    4    4    0    0 -0.62212178255E+02 -0.46096864501E+03  0.10801458379E+04  0.11791174267E+04  0.85090703913E+02 0.  0.
          2    1    3    3  502    0  0.62342615642E+02  0.70039473618E+02 -0.11741295244E+03  0.15025954543E+03  0.00000000000E+00 0. -1.
         -1    1    3    3    0  502  0.25415380122E+03  0.17119351991E+03 -0.20241769331E+03  0.36725236350E+03  0.00000000000E+00 0.  1.
         11    1    5    5    0    0 -0.14135156626E+03  0.62177940410E+02  0.56284084070E+02  0.16436015234E+03  0.00000000000E+00 0. -1.
        -11    1    5    5    0    0 -0.11293267235E+03  0.15755771107E+03  0.60767728087E+02  0.20315249833E+03  0.00000000000E+00 0.  1.
          3    1    6    6  503    0 -0.33441938028E+02 -0.42548869395E+03  0.98912137069E+03  0.10772743745E+04  0.00000000000E+00 0. -1.
         -3    1    6    6    0  503 -0.28770240227E+02 -0.35479951063E+02  0.91024467209E+02  0.10184305220E+03  0.00000000000E+00 0.  1.
<mgrwt>
<rscale>  0 0.18683975E+04</rscale>
<asrwt>0</asrwt>
<pdfrwt beam="1">  1        2 0.22626992E+00 0.18683975E+04</pdfrwt>
<pdfrwt beam="2">  1       -1 0.91290384E-01 0.18683975E+04</pdfrwt>
<totfact> 0.16514256E+01</totfact>
</mgrwt>
</event>
<event>
12    6  0.1767287E-007  0.2964992E+04  0.7818608E-02  0.8253799E-01
          2   -1    0    0  501    0  0.00000000000E+00  0.00000000000E+00  0.19695164982E+04  0.19695164982E+04  0.00000000000E+00 0. -1.
         -1   -1    0    0    0  501 -0.00000000000E+00 -0.00000000000E+00 -0.11159059171E+04  0.11159059171E+04  0.00000000000E+00 0.  1.
         24    2    1    2    0    0 -0.12348146933E+03  0.14056504621E+03 -0.10111189959E+04  0.10310635717E+04  0.75658836061E+02 0.  0.
        254    2    1    2    0    0  0.12348146933E+03 -0.14056504621E+03  0.18647295770E+04  0.20543588437E+04  0.84152697975E+03 0.  0.
         23    2    4    4    0    0 -0.30406465961E+03  0.11105548822E+03  0.54592270729E+03  0.64179137471E+03  0.95267663095E+02 0.  0.
         23    2    4    4    0    0  0.42754612894E+03 -0.25162053443E+03  0.13188068697E+04  0.14125674689E+04  0.99933522856E+02 0.  0.
          2    1    3    3  502    0 -0.72577717471E+01 -0.91815355713E+01 -0.79348862742E+02  0.80207342959E+02  0.00000000000E+00 0. -1.
         -1    1    3    3    0  502 -0.11622369758E+03  0.14974658178E+03 -0.93177013317E+03  0.95085622872E+03  0.00000000000E+00 0.  1.
         11    1    5    5    0    0 -0.14052192304E+03  0.69279230237E+01  0.27152672195E+03  0.30581230797E+03  0.00000000000E+00 0.  1.
        -11    1    5    5    0    0 -0.16354273657E+03  0.10412756520E+03  0.27439598534E+03  0.33597906675E+03  0.00000000000E+00 0. -1.
          2    1    6    6  503    0  0.54394490829E+02 -0.64649879534E+02  0.29761536213E+03  0.30937561528E+03  0.00000000000E+00 0. -1.
         -2    1    6    6    0  503  0.37315163811E+03 -0.18697065489E+03  0.10211915076E+04  0.11031918537E+04  0.00000000000E+00 0.  1.
<mgrwt>
<rscale>  0 0.29649925E+04</rscale>
<asrwt>0</asrwt>
<pdfrwt beam="1">  1        2 0.30300254E+00 0.29649925E+04</pdfrwt>
<pdfrwt beam="2">  1       -1 0.17167783E+00 0.29649925E+04</pdfrwt>
<totfact> 0.16228190E+00</totfact>
</mgrwt>
</event>
<event>
12    6  0.1556619E-007  0.1400517E+04  0.7818608E-02  0.8953444E-01
         -1   -1    0    0    0  501 -0.00000000000E+00  0.00000000000E+00  0.10981794776E+03  0.10981794776E+03  0.00000000000E+00 0.  1.
          2   -1    0    0  501    0  0.00000000000E+00 -0.00000000000E+00 -0.44652261696E+04  0.44652261696E+04  0.00000000000E+00 0. -1.
         24    2    1    2    0    0  0.13841665311E+03 -0.86566683342E+02 -0.24883304201E+04  0.24949355792E+04  0.79134721764E+02 0.  0.
        254    2    1    2    0    0 -0.13841665311E+03  0.86566683342E+02 -0.18670778017E+04  0.20801085382E+04  0.90234087365E+03 0.  0.
         23    2    4    4    0    0  0.17945834156E+02  0.78282742715E+02  0.64943723019E+02  0.13970745908E+03  0.94075747101E+02 0.  0.
         23    2    4    4    0    0 -0.15636248727E+03  0.82839406269E+01 -0.19320215248E+04  0.19404010791E+04  0.89057983748E+02 0.  0.
          2    1    3    3  502    0  0.13520451610E+03 -0.78685694922E+02 -0.24672181213E+04  0.24721725178E+04  0.00000000000E+00 0. -1.
         -1    1    3    3    0  502  0.32121370167E+01 -0.78809884196E+01 -0.21112298817E+02  0.22763061394E+02  0.00000000000E+00 0.  1.
         11    1    5    5    0    0  0.24915073859E+01  0.81412782133E+02  0.94266688615E+01  0.81994577805E+02  0.00000000000E+00 0. -1.
        -11    1    5    5    0    0  0.15454326770E+02 -0.31300394182E+01  0.55517054157E+02  0.57712881274E+02  0.00000000000E+00 0.  1.
          1    1    6    6  503    0 -0.40434439884E+02  0.42772891412E+02 -0.57877465310E+03  0.58175988452E+03  0.00000000000E+00 0. -1.
         -1    1    6    6    0  503 -0.11592804738E+03 -0.34488950785E+02 -0.13532468717E+04  0.13586411946E+04  0.00000000000E+00 0.  1.
<mgrwt>
<rscale>  0 0.14005170E+04</rscale>
<asrwt>0</asrwt>
<pdfrwt beam="1">  1        2 0.68695784E+00 0.14005170E+04</pdfrwt>
<pdfrwt beam="2">  1       -1 0.16895070E-01 0.14005170E+04</pdfrwt>
<totfact> 0.41583765E+00</totfact>
</mgrwt>
</event>
<event>
12    6  0.1556619E-007  0.2357245E+04  0.7818608E-02  0.8455686E-01
         -1   -1    0    0    0  501 -0.00000000000E+00  0.00000000000E+00  0.54019038461E+03  0.54019038461E+03  0.00000000000E+00 0.  1.
          2   -1    0    0  501    0  0.00000000000E+00 -0.00000000000E+00 -0.25715952131E+04  0.25715952131E+04  0.00000000000E+00 0. -1.
         24    2    1    2    0    0 -0.29195599558E+03  0.16026829827E+03 -0.21233924520E+04  0.21508465257E+04  0.80131399464E+02 0.  0.
        254    2    1    2    0    0  0.29195599558E+03 -0.16026829827E+03  0.91987623493E+02  0.96093907201E+03  0.89667047819E+03 0.  0.
         23    2    4    4    0    0  0.40754793895E+03 -0.18743353223E+03 -0.29582529086E+03  0.54502282144E+03  0.91162610920E+02 0.  0.
         23    2    4    4    0    0 -0.11559194337E+03  0.27165233953E+02  0.38781291436E+03  0.41591625057E+03  0.92130470762E+02 0.  0.
          4    1    3    3  502    0 -0.84611177194E+02  0.89528940203E+02 -0.80739407945E+03  0.81673721721E+03  0.00000000000E+00 0. -1.
         -3    1    3    3    0  502 -0.20734481838E+03  0.70739358070E+02 -0.13159983725E+04  0.13341093085E+04  0.00000000000E+00 0.  1.
         11    1    5    5    0    0  0.40211584977E+03 -0.17751171893E+03 -0.26757243016E+03  0.51458971266E+03  0.00000000000E+00 0.  1.
        -11    1    5    5    0    0  0.54320891742E+01 -0.99218132953E+01 -0.28252860699E+02  0.30433108772E+02  0.00000000000E+00 0. -1.
          1    1    6    6  503    0 -0.78081787862E+02  0.84503831296E+01  0.11116065559E+03  0.13610608334E+03  0.00000000000E+00 0. -1.
         -1    1    6    6    0  503 -0.37510155508E+02  0.18714850823E+02  0.27665225877E+03  0.27981016724E+03  0.00000000000E+00 0.  1.
<mgrwt>
<rscale>  0 0.23572450E+04</rscale>
<asrwt>0</asrwt>
<pdfrwt beam="1">  1        2 0.39563004E+00 0.23572450E+04</pdfrwt>
<pdfrwt beam="2">  1       -1 0.83106212E-01 0.23572450E+04</pdfrwt>
<totfact> 0.46664800E+00</totfact>
</mgrwt>
</event>
<event>
12    6  0.1556619E-007  0.2287303E+04  0.7818608E-02  0.8482944E-01
         -1   -1    0    0    0  501 -0.00000000000E+00  0.00000000000E+00  0.73614903888E+03  0.73614903888E+03  0.00000000000E+00 0.  1.
          2   -1    0    0  501    0  0.00000000000E+00 -0.00000000000E+00 -0.17767315588E+04  0.17767315588E+04  0.00000000000E+00 0. -1.
         24    2    1    2    0    0 -0.30497657015E+03  0.40029370367E+03 -0.13397430193E+04  0.14333962872E+04  0.80422638880E+02 0.  0.
        254    2    1    2    0    0  0.30497657015E+03 -0.40029370367E+03  0.29916049944E+03  0.10794843104E+04  0.90694190249E+03 0.  0.
         23    2    4    4    0    0  0.16156515791E+03  0.23221669988E+03  0.30215631916E+03  0.42476239328E+03  0.95376902801E+02 0.  0.
         23    2    4    4    0    0  0.14341141224E+03 -0.63251040354E+03 -0.29958197179E+01  0.65472191714E+03  0.89529716266E+02 0.  0.
          2    1    3    3  502    0 -0.15564503870E+03  0.15471822257E+03 -0.65465886873E+03  0.69046458336E+03  0.00000000000E+00 0. -1.
         -1    1    3    3    0  502 -0.14933153145E+03  0.24557548110E+03 -0.68508415059E+03  0.74293170385E+03  0.00000000000E+00 0.  1.
         11    1    5    5    0    0  0.35878859975E+02  0.13486680498E+03  0.14053579001E+03  0.19805720374E+03  0.00000000000E+00 0. -1.
        -11    1    5    5    0    0  0.12568629793E+03  0.97349894900E+02  0.16162052915E+03  0.22670518955E+03  0.00000000000E+00 0.  1.
          3    1    6    6  503    0  0.10625887089E+03 -0.56417418515E+03 -0.22488609148E+02  0.57453389489E+03  0.00000000000E+00 0. -1.
         -3    1    6    6    0  503  0.37152541343E+02 -0.68336218389E+02  0.19492789431E+02  0.80188022246E+02  0.00000000000E+00 0.  1.
<mgrwt>
<rscale>  0 0.22873034E+04</rscale>
<asrwt>0</asrwt>
<pdfrwt beam="1">  1        2 0.27334331E+00 0.22873034E+04</pdfrwt>
<pdfrwt beam="2">  1       -1 0.11325370E+00 0.22873034E+04</pdfrwt>
<totfact> 0.65400267E+00</totfact>
</mgrwt>
</event>
<event>
12    6  0.1556619E-007  0.2008070E+04  0.7818608E-02  0.8602857E-01
         -1   -1    0    0    0  501 -0.00000000000E+00  0.00000000000E+00  0.48044137518E+03  0.48044137518E+03  0.00000000000E+00 0.  1.
          2   -1    0    0  501    0  0.00000000000E+00 -0.00000000000E+00 -0.20982509834E+04  0.20982509834E+04  0.00000000000E+00 0. -1.
         24    2    1    2    0    0 -0.47374350475E+02 -0.78188727210E+02 -0.16735681127E+04  0.16779841848E+04  0.80267618012E+02 0.  0.
        254    2    1    2    0    0  0.47374350475E+02  0.78188727210E+02  0.55758504468E+02  0.90070817377E+03  0.89432007544E+03 0.  0.
         23    2    4    4    0    0  0.39733093151E+03 -0.18681032160E+03 -0.32005364729E+01  0.44850656874E+03  0.91531051435E+02 0.  0.
         23    2    4    4    0    0 -0.34995658104E+03  0.26499904881E+03  0.58959040941E+02  0.45220160503E+03  0.91192206915E+02 0.  0.
          4    1    3    3  502    0 -0.54152381478E+02 -0.89510987295E+02 -0.15837879105E+04  0.15872393779E+04  0.00000000000E+00 0. -1.
         -3    1    3    3    0  502  0.67780310025E+01  0.11322260085E+02 -0.89780202204E+02  0.90744806934E+02  0.00000000000E+00 0.  1.
         11    1    5    5    0    0  0.32755396133E+03 -0.12240961098E+03  0.21667442811E+02  0.35035009422E+03  0.00000000000E+00 0.  1.
        -11    1    5    5    0    0  0.69776970185E+02 -0.64400710624E+02 -0.24867979284E+02  0.98156474522E+02  0.00000000000E+00 0. -1.
          3    1    6    6  503    0 -0.15235201663E+02  0.33883213884E+02  0.23366640180E+02  0.43888306257E+02  0.00000000000E+00 0. -1.
         -3    1    6    6    0  503 -0.33472137937E+03  0.23111583493E+03  0.35592400762E+02  0.40831329878E+03  0.00000000000E+00 0.  1.
<mgrwt>
<rscale>  0 0.20080703E+04</rscale>
<asrwt>0</asrwt>
<pdfrwt beam="1">  1        2 0.32280784E+00 0.20080703E+04</pdfrwt>
<pdfrwt beam="2">  1       -1 0.73914058E-01 0.20080703E+04</pdfrwt>
<totfact> 0.11473979E+01</totfact>
</mgrwt>
</event>
<event>
12    6  0.1556619E-007  0.2530050E+04  0.7818608E-02  0.8392358E-01
          2   -1    0    0  501    0  0.00000000000E+00  0.00000000000E+00  0.20386282296E+04  0.20386282296E+04  0.00000000000E+00 0. -1.
         -1   -1    0    0    0  501 -0.00000000000E+00 -0.00000000000E+00 -0.78498288728E+03  0.78498288728E+03  0.00000000000E+00 0.  1.
         24    2    1    2    0    0 -0.98389590211E+03  0.46804716741E+03  0.41607950835E+03  0.11689819185E+04  0.79229232643E+02 0.  0.
        254    2    1    2    0    0  0.98389590211E+03 -0.46804716741E+03  0.83756583400E+03  0.16546291985E+04  0.92149984319E+03 0.  0.
         23    2    4    4    0    0 -0.65044929442E+02  0.14155767514E+03  0.78786575928E+01  0.18210914583E+03  0.93980048481E+02 0.  0.
         23    2    4    4    0    0  0.10489408315E+04 -0.60960484254E+03  0.82968717641E+03  0.14725200526E+04  0.89663607686E+02 0.  0.
          2    1    3    3  502    0 -0.36745945383E+03  0.14560776676E+03  0.18031513577E+03  0.43444403568E+03  0.00000000000E+00 0. -1.
         -3    1    3    3    0  502 -0.61643644828E+03  0.32243940064E+03  0.23576437257E+03  0.73453788277E+03  0.00000000000E+00 0.  1.
         11    1    5    5    0    0 -0.60956494324E+02  0.38452277743E+02 -0.20797734075E+02  0.75012116398E+02  0.00000000000E+00 0. -1.
        -11    1    5    5    0    0 -0.40884351177E+01  0.10310539740E+03  0.28676391668E+02  0.10709702943E+03  0.00000000000E+00 0.  1.
          2    1    6    6  503    0  0.10454283379E+04 -0.59940407547E+03  0.82650449301E+03  0.14612718201E+04  0.00000000000E+00 0. -1.
         -2    1    6    6    0  503  0.35124936633E+01 -0.10200767075E+02  0.31826834025E+01  0.11248232497E+02  0.00000000000E+00 0.  1.
<mgrwt>
<rscale>  0 0.25300500E+04</rscale>
<asrwt>0</asrwt>
<pdfrwt beam="1">  1        2 0.31363511E+00 0.25300500E+04</pdfrwt>
<pdfrwt beam="2">  1       -1 0.12076660E+00 0.25300500E+04</pdfrwt>
<totfact> 0.39224425E+00</totfact>
</mgrwt>
</event>
<event>
12    6  0.1556619E-007  0.1590326E+04  0.7818608E-02  0.8826513E-01
          2   -1    0    0  501    0  0.00000000000E+00  0.00000000000E+00  0.19603588127E+04  0.19603588127E+04  0.00000000000E+00 0. -1.
         -1   -1    0    0    0  501 -0.00000000000E+00 -0.00000000000E+00 -0.32253478377E+03  0.32253478377E+03  0.00000000000E+00 0.  1.
         24    2    1    2    0    0  0.42092037384E+03  0.21239488462E+03  0.93339418148E+03  0.10483242458E+04  0.73982958937E+02 0.  0.
        254    2    1    2    0    0 -0.42092037384E+03 -0.21239488462E+03  0.70442984747E+03  0.12345693507E+04  0.89758259983E+03 0.  0.
         23    2    4    4    0    0 -0.21602968378E+03 -0.42888348338E+03  0.77405220662E+03  0.91543389986E+03  0.90843490948E+02 0.  0.
         23    2    4    4    0    0 -0.20489069006E+03  0.21648859876E+03 -0.69622359149E+02  0.31913545083E+03  0.90292052880E+02 0.  0.
          2    1    3    3  502    0  0.28910350005E+03  0.12890521696E+03  0.55324526618E+03  0.63739917889E+03  0.00000000000E+00 0. -1.
         -1    1    3    3    0  502  0.13181687380E+03  0.83489667654E+02  0.38014891530E+03  0.41092506692E+03  0.00000000000E+00 0.  1.
         11    1    5    5    0    0 -0.38654894326E+02 -0.12035063796E+03  0.14228951525E+03  0.19032809321E+03  0.00000000000E+00 0.  1.
        -11    1    5    5    0    0 -0.17737478946E+03 -0.30853284542E+03  0.63176269136E+03  0.72510580665E+03  0.00000000000E+00 0. -1.
          2    1    6    6  503    0 -0.21407359629E+03  0.20906930128E+03 -0.63723495532E+02  0.30593816573E+03  0.00000000000E+00 0.  1.
         -2    1    6    6    0  503  0.91829062305E+01  0.74192974778E+01 -0.58988636175E+01  0.13197285095E+02  0.00000000000E+00 0. -1.
<mgrwt>
<rscale>  0 0.15903256E+04</rscale>
<asrwt>0</asrwt>
<pdfrwt beam="1">  1        2 0.30159365E+00 0.15903256E+04</pdfrwt>
<pdfrwt beam="2">  1       -1 0.49620737E-01 0.15903256E+04</pdfrwt>
<totfact> 0.31296751E+01</totfact>
</mgrwt>
</event>
<event>
12    6  0.1556619E-007  0.1619829E+04  0.7818608E-02  0.8808458E-01
          2   -1    0    0  501    0  0.00000000000E+00  0.00000000000E+00  0.12195163217E+04  0.12195163217E+04  0.00000000000E+00 0. -1.
         -3   -1    0    0    0  501 -0.00000000000E+00 -0.00000000000E+00 -0.53788693455E+03  0.53788693455E+03  0.00000000000E+00 0.  1.
         24    2    1    2    0    0  0.79275021342E+02 -0.24028163136E+03 -0.30211588008E+03  0.40192504543E+03  0.79056598556E+02 0.  0.
        254    2    1    2    0    0 -0.79275021342E+02  0.24028163136E+03  0.98374526724E+03  0.13554782108E+04  0.89752249992E+03 0.  0.
         23    2    4    4    0    0  0.44616194265E+02  0.41489462845E+03  0.96090591110E+02  0.43750691940E+03  0.89725945633E+02 0.  0.
         23    2    4    4    0    0 -0.12389121561E+03 -0.17461299709E+03  0.88765467613E+03  0.91797129144E+03  0.94349010502E+02 0.  0.
          2    1    3    3  502    0  0.57111950791E+02 -0.72953819145E+02 -0.76454193848E+02  0.12012193142E+03  0.00000000000E+00 0. -1.
         -1    1    3    3    0  502  0.22163070551E+02 -0.16732781221E+03 -0.22566168623E+03  0.28180311401E+03  0.00000000000E+00 0.  1.
         11    1    5    5    0    0 -0.36927411196E+01  0.22485169810E+02 -0.14438877071E+02  0.26975922032E+02  0.00000000000E+00 0. -1.
        -11    1    5    5    0    0  0.48308935384E+02  0.39240945864E+03  0.11052946818E+03  0.41053099737E+03  0.00000000000E+00 0.  1.
          3    1    6    6  503    0 -0.85297726613E+02 -0.41905481104E+02  0.39769302291E+03  0.40889058681E+03  0.00000000000E+00 0. -1.
         -3    1    6    6    0  503 -0.38593488993E+02 -0.13270751598E+03  0.48996165323E+03  0.50908070463E+03  0.00000000000E+00 0.  1.
<mgrwt>
<rscale>  0 0.16198295E+04</rscale>
<asrwt>0</asrwt>
<pdfrwt beam="1">  1        2 0.18761789E+00 0.16198295E+04</pdfrwt>
<pdfrwt beam="2">  1       -3 0.82751837E-01 0.16198295E+04</pdfrwt>
<totfact> 0.15141757E+01</totfact>
</mgrwt>
</event>
<event>
12    6  0.1556619E-007  0.1190688E+04  0.7818608E-02  0.9121047E-01
          2   -1    0    0  501    0  0.00000000000E+00  0.00000000000E+00  0.10131841302E+04  0.10131841302E+04  0.00000000000E+00 0. -1.
         -1   -1    0    0    0  501 -0.00000000000E+00 -0.00000000000E+00 -0.34982239076E+03  0.34982239076E+03  0.00000000000E+00 0.  1.
         24    2    1    2    0    0  0.20180523195E+03 -0.10719554236E+03  0.27524653077E+03  0.36705219825E+03  0.82160985848E+02 0.  0.
        254    2    1    2    0    0 -0.20180523195E+03  0.10719554236E+03  0.38811520869E+03  0.99595432271E+03  0.88829913980E+03 0.  0.
         23    2    4    4    0    0 -0.25505785132E+03  0.25857884073E+03  0.60467127664E+03  0.71126007168E+03  0.91356512557E+02 0.  0.
         23    2    4    4    0    0  0.53252619361E+02 -0.15138329837E+03 -0.21655606795E+03  0.28469425103E+03  0.91659923147E+02 0.  0.
          2    1    3    3  502    0  0.80904730894E+02 -0.52753707070E+02  0.17836452771E+03  0.20283597767E+03  0.00000000000E+00 0. -1.
         -1    1    3    3    0  502  0.12090050106E+03 -0.54441835289E+02  0.96882003053E+02  0.16421622058E+03  0.00000000000E+00 0.  1.
         11    1    5    5    0    0 -0.10359549055E+03  0.11692152049E+03  0.34668970218E+03  0.38025835588E+03  0.00000000000E+00 0. -1.
        -11    1    5    5    0    0 -0.15146236076E+03  0.14165732024E+03  0.25798157445E+03  0.33100171580E+03  0.00000000000E+00 0.  1.
          1    1    6    6  503    0  0.48464226833E+01 -0.78463379524E+02 -0.16586227422E+03  0.18354913170E+03  0.00000000000E+00 0. -1.
         -1    1    6    6    0  503  0.48406196678E+02 -0.72919918850E+02 -0.50693793726E+02  0.10114511933E+03  0.00000000000E+00 0.  1.
<mgrwt>
<rscale>  0 0.11906880E+04</rscale>
<asrwt>0</asrwt>
<pdfrwt beam="1">  1        2 0.15587448E+00 0.11906880E+04</pdfrwt>
<pdfrwt beam="2">  1       -1 0.53818830E-01 0.11906880E+04</pdfrwt>
<totfact> 0.96926538E+01</totfact>
</mgrwt>
</event>
<event>
12    6  0.1556619E-007  0.2268836E+04  0.7818608E-02  0.8490311E-01
          2   -1    0    0  501    0  0.00000000000E+00  0.00000000000E+00  0.13799638837E+04  0.13799638837E+04  0.00000000000E+00 0. -1.
         -1   -1    0    0    0  501 -0.00000000000E+00 -0.00000000000E+00 -0.93256378711E+03  0.93256378711E+03  0.00000000000E+00 0.  1.
         24    2    1    2    0    0  0.40715492833E+03 -0.12695016662E+03  0.10533210021E+04  0.11390233042E+04  0.77443358446E+02 0.  0.
        254    2    1    2    0    0 -0.40715492833E+03  0.12695016662E+03 -0.60592090546E+03  0.11735043666E+04  0.90998949128E+03 0.  0.
         23    2    4    4    0    0 -0.46675207836E+03 -0.29546798729E+03 -0.26156665552E+03  0.61792693856E+03  0.90872173670E+02 0.  0.
         23    2    4    4    0    0  0.59597150030E+02  0.42241815390E+03 -0.34435424994E+03  0.55557742802E+03  0.89986176934E+02 0.  0.
          2    1    3    3  502    0  0.33037016012E+03 -0.76986275648E+02  0.87710578539E+03  0.94041793268E+03  0.00000000000E+00 0. -1.
         -1    1    3    3    0  502  0.76784768211E+02 -0.49963890971E+02  0.17621521666E+03  0.19860537156E+03  0.00000000000E+00 0.  1.
         11    1    5    5    0    0 -0.41305031472E+03 -0.22268248760E+03 -0.22418127895E+03  0.52005316902E+03  0.00000000000E+00 0. -1.
        -11    1    5    5    0    0 -0.53701763647E+02 -0.72785499681E+02 -0.37385376563E+02  0.97873769538E+02  0.00000000000E+00 0.  1.
          3    1    6    6  503    0  0.73016235737E+02  0.38277066393E+03 -0.33202442658E+03  0.51194235192E+03  0.00000000000E+00 0. -1.
         -3    1    6    6    0  503 -0.13419085707E+02  0.39647489969E+02 -0.12329823363E+02  0.43635076100E+02  0.00000000000E+00 0.  1.
<mgrwt>
<rscale>  0 0.22688361E+04</rscale>
<asrwt>0</asrwt>
<pdfrwt beam="1">  1        2 0.21230214E+00 0.22688361E+04</pdfrwt>
<pdfrwt beam="2">  1       -1 0.14347135E+00 0.22688361E+04</pdfrwt>
<totfact> 0.60479739E+00</totfact>
</mgrwt>
</event>
<event>
12    6  0.1556619E-007  0.2574768E+04  0.7818608E-02  0.8376823E-01
          2   -1    0    0  501    0  0.00000000000E+00  0.00000000000E+00  0.16334800840E+04  0.16334800840E+04  0.00000000000E+00 0. -1.
         -1   -1    0    0    0  501 -0.00000000000E+00 -0.00000000000E+00 -0.10146177445E+04  0.10146177445E+04  0.00000000000E+00 0.  1.
         24    2    1    2    0    0 -0.20196001255E+03  0.46289426061E+03 -0.76947800680E+03  0.92380871646E+03  0.79165639510E+02 0.  0.
        254    2    1    2    0    0  0.20196001255E+03 -0.46289426061E+03  0.13883403464E+04  0.17242891121E+04  0.88917100804E+03 0.  0.
         23    2    4    4    0    0 -0.17015244420E+03  0.17637123172E+03  0.23657770887E+03  0.35254595680E+03  0.90889898665E+02 0.  0.
         23    2    4    4    0    0  0.37211245675E+03 -0.63926549232E+03  0.11517626375E+04  0.13717431553E+04  0.89409511810E+02 0.  0.
          4    1    3    3  502    0 -0.81829690245E+02  0.14680467242E+03 -0.19731607269E+03  0.25919363918E+03  0.00000000000E+00 0. -1.
         -3    1    3    3    0  502 -0.12013032231E+03  0.31608958819E+03 -0.57216193411E+03  0.66461507727E+03  0.00000000000E+00 0.  1.
         11    1    5    5    0    0 -0.13644615420E+03  0.16433167568E+03  0.23375223767E+03  0.31664263966E+03  0.00000000000E+00 0.  1.
        -11    1    5    5    0    0 -0.33706289994E+02  0.12039556032E+02  0.28254711964E+01  0.35903317146E+02  0.00000000000E+00 0. -1.
          2    1    6    6  503    0  0.16954035415E+03 -0.34551204128E+03  0.53234208723E+03  0.65689466446E+03  0.00000000000E+00 0.  1.
         -2    1    6    6    0  503  0.20257210261E+03 -0.29375345104E+03  0.61942055025E+03  0.71484849082E+03  0.00000000000E+00 0. -1.
<mgrwt>
<rscale>  0 0.25747682E+04</rscale>
<asrwt>0</asrwt>
<pdfrwt beam="1">  1        2 0.25130463E+00 0.25747682E+04</pdfrwt>
<pdfrwt beam="2">  1       -1 0.15609504E+00 0.25747682E+04</pdfrwt>
<totfact> 0.33743567E+00</totfact>
</mgrwt>
</event>
<event>
12    6  0.1556619E-007  0.1625263E+04  0.7818608E-02  0.8805177E-01
         -1   -1    0    0    0  501 -0.00000000000E+00  0.00000000000E+00  0.32710069335E+03  0.32710069335E+03  0.00000000000E+00 0.  1.
          2   -1    0    0  501    0  0.00000000000E+00 -0.00000000000E+00 -0.20188576703E+04  0.20188576703E+04  0.00000000000E+00 0. -1.
         24    2    1    2    0    0  0.18880453473E+02  0.48016213558E+03 -0.98467844614E+03  0.11010242626E+04  0.10840035345E+03 0.  0.
        254    2    1    2    0    0 -0.18880453473E+02 -0.48016213558E+03 -0.70707853080E+03  0.12449341010E+04  0.90497995511E+03 0.  0.
         23    2    4    4    0    0  0.46206465400E+02  0.13433041724E+02  0.18689530603E+03  0.21739164399E+03  0.10006891328E+03 0.  0.
         23    2    4    4    0    0 -0.65086918873E+02 -0.49359517731E+03 -0.89397383683E+03  0.10275424570E+04  0.93711119744E+02 0.  0.
          4    1    3    3  502    0  0.56016241744E+02  0.39525705953E+03 -0.82171095759E+03  0.91355068840E+03  0.00000000000E+00 0. -1.
         -3    1    3    3    0  502 -0.37135788271E+02  0.84905076054E+02 -0.16296748856E+03  0.18747357423E+03  0.00000000000E+00 0.  1.
         11    1    5    5    0    0  0.10973887337E+02  0.14667705896E+02  0.18066477939E+03  0.18159110747E+03  0.00000000000E+00 0. -1.
        -11    1    5    5    0    0  0.35232578063E+02 -0.12346641719E+01  0.62305266370E+01  0.35800536515E+02  0.00000000000E+00 0.  1.
          4    1    6    6  503    0 -0.48830751736E+02 -0.40142030111E+03 -0.79110756175E+03  0.88846714892E+03  0.00000000000E+00 0. -1.
         -4    1    6    6    0  503 -0.16256167137E+02 -0.92174876202E+02 -0.10286627508E+03  0.13907530810E+03  0.00000000000E+00 0.  1.
<mgrwt>
<rscale>  0 0.16252627E+04</rscale>
<asrwt>0</asrwt>
<pdfrwt beam="1">  1        2 0.31059349E+00 0.16252627E+04</pdfrwt>
<pdfrwt beam="2">  1       -1 0.50323183E-01 0.16252627E+04</pdfrwt>
<totfact> 0.28193836E+01</totfact>
</mgrwt>
</event>
<event>
12    6  0.1556619E-007  0.2158110E+04  0.7818608E-02  0.8536069E-01
         -1   -1    0    0    0  501 -0.00000000000E+00  0.00000000000E+00  0.34874111535E+03  0.34874111535E+03  0.00000000000E+00 0.  1.
          2   -1    0    0  501    0  0.00000000000E+00 -0.00000000000E+00 -0.33387495864E+04  0.33387495864E+04  0.00000000000E+00 0. -1.
         24    2    1    2    0    0  0.42740995082E+03 -0.76452694750E+03 -0.15060266127E+04  0.17434282812E+04  0.65155921143E+02 0.  0.
        254    2    1    2    0    0 -0.42740995082E+03  0.76452694750E+03 -0.14839818583E+04  0.19440624205E+04  0.89999767748E+03 0.  0.
         23    2    4    4    0    0 -0.67004384596E+03  0.33850549407E+03 -0.85143057727E+03  0.11385969649E+04  0.89018511880E+02 0.  0.
         23    2    4    4    0    0  0.24263389514E+03  0.42602145344E+03 -0.63255128104E+03  0.80546545563E+03  0.91038405123E+02 0.  0.
          2    1    3    3  502    0  0.40459663193E+03 -0.72875944402E+03 -0.14571141495E+04  0.16786811509E+04  0.00000000000E+00 0. -1.
         -1    1    3    3    0  502  0.22813318885E+02 -0.35767503479E+02 -0.48912463225E+02  0.64747130302E+02  0.00000000000E+00 0.  1.
         11    1    5    5    0    0 -0.43987255037E+03  0.17554004328E+03 -0.51733891695E+03  0.70138557324E+03  0.00000000000E+00 0. -1.
        -11    1    5    5    0    0 -0.23017129559E+03  0.16296545079E+03 -0.33409166032E+03  0.43721139162E+03  0.00000000000E+00 0.  1.
          4    1    6    6  503    0  0.17764012958E+03  0.36663353091E+03 -0.55256655579E+03  0.68651726869E+03  0.00000000000E+00 0. -1.
         -4    1    6    6    0  503  0.64993765566E+02  0.59387922523E+02 -0.79984725253E+02  0.11894818695E+03  0.00000000000E+00 0.  1.
<mgrwt>
<rscale>  0 0.21581096E+04</rscale>
<asrwt>0</asrwt>
<pdfrwt beam="1">  1        2 0.51365380E+00 0.21581096E+04</pdfrwt>
<pdfrwt beam="2">  1       -1 0.53652477E-01 0.21581096E+04</pdfrwt>
<totfact> 0.38501864E+00</totfact>
</mgrwt>
</event>
<event>
12    6  0.1556619E-007  0.1354096E+04  0.7818608E-02  0.8987733E-01
          2   -1    0    0  501    0  0.00000000000E+00  0.00000000000E+00  0.91022603583E+03  0.91022603583E+03  0.00000000000E+00 0. -1.
         -1   -1    0    0    0  501 -0.00000000000E+00 -0.00000000000E+00 -0.50360460916E+03  0.50360460916E+03  0.00000000000E+00 0.  1.
         24    2    1    2    0    0  0.29612261756E+02  0.30265162975E+03  0.32388201461E+03  0.45093742145E+03  0.77266445767E+02 0.  0.
        254    2    1    2    0    0 -0.29612261756E+02 -0.30265162975E+03  0.82739412066E+02  0.96289322354E+03  0.90985859044E+03 0.  0.
         23    2    4    4    0    0  0.35372853805E+03 -0.28789789413E+03 -0.16915275662E+03  0.49516014017E+03  0.92530174911E+02 0.  0.
         23    2    4    4    0    0 -0.38334079980E+03 -0.14753735624E+02  0.25189216868E+03  0.46773308337E+03  0.90314622989E+02 0.  0.
          4    1    3    3  502    0  0.42720576681E+02  0.13607347221E+03  0.18544821822E+03  0.23394888149E+03  0.00000000000E+00 0. -1.
         -3    1    3    3    0  502 -0.13108314925E+02  0.16657815755E+03  0.13843379638E+03  0.21698853996E+03  0.00000000000E+00 0.  1.
         11    1    5    5    0    0  0.19202344798E+03 -0.16542954701E+03 -0.45245599156E+02  0.25746282031E+03  0.00000000000E+00 0.  1.
        -11    1    5    5    0    0  0.16170509007E+03 -0.12246834712E+03 -0.12390715746E+03  0.23769731986E+03  0.00000000000E+00 0. -1.
          2    1    6    6  503    0  0.11748244853E+01  0.23361769777E+01  0.16194463806E+02  0.16404224865E+02  0.00000000000E+00 0. -1.
         -2    1    6    6    0  503 -0.38451562429E+03 -0.17089912602E+02  0.23569770488E+03  0.45132885850E+03  0.00000000000E+00 0.  1.
<mgrwt>
<rscale>  0 0.13540960E+04</rscale>
<asrwt>0</asrwt>
<pdfrwt beam="1">  1        2 0.14003477E+00 0.13540960E+04</pdfrwt>
<pdfrwt beam="2">  1       -1 0.77477632E-01 0.13540960E+04</pdfrwt>
<totfact> 0.53714113E+01</totfact>
</mgrwt>
</event>
<event>
12    6  0.1556619E-007  0.1761424E+04  0.7818608E-02  0.8727087E-01
         -1   -1    0    0    0  501 -0.00000000000E+00  0.00000000000E+00  0.49880522425E+03  0.49880522425E+03  0.00000000000E+00 0.  1.
          2   -1    0    0  501    0  0.00000000000E+00 -0.00000000000E+00 -0.15550231380E+04  0.15550231380E+04  0.00000000000E+00 0. -1.
         24    2    1    2    0    0  0.61517725594E+03  0.17965517004E+03 -0.51809831658E+03  0.82797262245E+03  0.79961000056E+02 0.  0.
        254    2    1    2    0    0 -0.61517725594E+03 -0.17965517004E+03 -0.53811959713E+03  0.12258557398E+04  0.89578488352E+03 0.  0.
         23    2    4    4    0    0 -0.12576592130E+03 -0.40031548023E+03  0.40589168010E+02  0.43155655930E+03  0.92325687871E+02 0.  0.
         23    2    4    4    0    0 -0.48941133464E+03  0.22066031019E+03 -0.57870876514E+03  0.79429918046E+03  0.88277552459E+02 0.  0.
          4    1    3    3  502    0  0.39549903704E+03  0.99850053589E+02 -0.37389732836E+03  0.55334323314E+03  0.00000000000E+00 0. -1.
         -3    1    3    3    0  502  0.21967821889E+03  0.79805116452E+02 -0.14420098823E+03  0.27462938931E+03  0.00000000000E+00 0.  1.
         11    1    5    5    0    0 -0.29882401340E+02 -0.22986403037E+03  0.44098769138E+02  0.23595578359E+03  0.00000000000E+00 0. -1.
        -11    1    5    5    0    0 -0.95883519960E+02 -0.17045144986E+03 -0.35096011277E+01  0.19560077571E+03  0.00000000000E+00 0.  1.
          2    1    6    6  503    0 -0.15877215412E+03  0.36327766325E+02 -0.13933397051E+03  0.21434145392E+03  0.00000000000E+00 0. -1.
         -2    1    6    6    0  503 -0.33063918052E+03  0.18433254386E+03 -0.43937479463E+03  0.57995772654E+03  0.00000000000E+00 0.  1.
<mgrwt>
<rscale>  0 0.17614240E+04</rscale>
<asrwt>0</asrwt>
<pdfrwt beam="1">  1        2 0.23923433E+00 0.17614240E+04</pdfrwt>
<pdfrwt beam="2">  1       -1 0.76739266E-01 0.17614240E+04</pdfrwt>
<totfact> 0.21726516E+01</totfact>
</mgrwt>
</event>
<event>
12    6  0.1556619E-007  0.1256057E+04  0.7818608E-02  0.9065157E-01
         -1   -1    0    0    0  501 -0.00000000000E+00  0.00000000000E+00  0.34609328425E+03  0.34609328425E+03  0.00000000000E+00 0.  1.
          2   -1    0    0  501    0  0.00000000000E+00 -0.00000000000E+00 -0.11396351940E+04  0.11396351940E+04  0.00000000000E+00 0. -1.
         24    2    1    2    0    0 -0.26246453028E+03 -0.21224642124E+02 -0.36820431396E+03  0.46008538109E+03  0.82255856853E+02 0.  0.
        254    2    1    2    0    0  0.26246453028E+03  0.21224642124E+02 -0.42533759578E+03  0.10256430971E+04  0.89537342893E+03 0.  0.
         23    2    4    4    0    0 -0.29213735090E+03  0.13336876040E+03 -0.41972050927E+02  0.33565259915E+03  0.88145086200E+02 0.  0.
         23    2    4    4    0    0  0.55460188118E+03 -0.11214411827E+03 -0.38336554485E+03  0.68999049799E+03  0.94647749372E+02 0.  0.
          4    1    3    3  502    0 -0.21229283672E+03  0.11070635296E+02 -0.31573139020E+03  0.38062726944E+03  0.00000000000E+00 0. -1.
         -3    1    3    3    0  502 -0.50171693566E+02 -0.32295277420E+02 -0.52472923765E+02  0.79458111652E+02  0.00000000000E+00 0.  1.
         11    1    5    5    0    0 -0.37501054014E+01  0.22124763900E+02 -0.11041054379E+02  0.25009465207E+02  0.00000000000E+00 0. -1.
        -11    1    5    5    0    0 -0.28838724549E+03  0.11124399650E+03 -0.30930996548E+02  0.31064313395E+03  0.00000000000E+00 0.  1.
          4    1    6    6  503    0  0.51940011767E+03 -0.84968550635E+02 -0.33301288823E+03  0.62281114357E+03  0.00000000000E+00 0.  1.
         -4    1    6    6    0  503  0.35201763514E+02 -0.27175567637E+02 -0.50352656622E+02  0.67179354416E+02  0.00000000000E+00 0. -1.
<mgrwt>
<rscale>  0 0.12560575E+04</rscale>
<asrwt>0</asrwt>
<pdfrwt beam="1">  1        2 0.17532849E+00 0.12560575E+04</pdfrwt>
<pdfrwt beam="2">  1       -1 0.53245120E-01 0.12560575E+04</pdfrwt>
<totfact> 0.82137726E+01</totfact>
</mgrwt>
</event>
<event>
12    6  0.1556619E-007  0.1935634E+04  0.7818608E-02  0.8637320E-01
          2   -1    0    0  501    0  0.00000000000E+00  0.00000000000E+00  0.18663647059E+04  0.18663647059E+04  0.00000000000E+00 0. -1.
         -1   -1    0    0    0  501 -0.00000000000E+00 -0.00000000000E+00 -0.50186842637E+03  0.50186842637E+03  0.00000000000E+00 0.  1.
         24    2    1    2    0    0 -0.11279364202E+03  0.90415956237E+02  0.14416960148E+04  0.14511840241E+04  0.80933441029E+02 0.  0.
        254    2    1    2    0    0  0.11279364202E+03 -0.90415956237E+02 -0.77199735346E+02  0.91704910809E+03  0.90228699242E+03 0.  0.
         23    2    4    4    0    0 -0.83717546460E+02 -0.38492646591E+03 -0.28682146191E+03  0.49565467199E+03  0.90719298441E+02 0.  0.
         23    2    4    4    0    0  0.19651118848E+03  0.29451050967E+03  0.20962172657E+03  0.42139443610E+03  0.90988543335E+02 0.  0.
          2    1    3    3  502    0 -0.11932878678E+03  0.98884201474E+02  0.13498861448E+04  0.13587531227E+04  0.00000000000E+00 0. -1.
         -3    1    3    3    0  502  0.65351447586E+01 -0.84682452365E+01  0.91809870062E+02  0.92430901409E+02  0.00000000000E+00 0.  1.
         11    1    5    5    0    0 -0.28990161567E+02 -0.29402362628E+03 -0.23531604064E+03  0.37770883132E+03  0.00000000000E+00 0. -1.
        -11    1    5    5    0    0 -0.54727384893E+02 -0.90902839633E+02 -0.51505421275E+02  0.11794584067E+03  0.00000000000E+00 0.  1.
          1    1    6    6  503    0  0.13891021265E+03  0.25333646100E+03  0.13626838891E+03  0.31944402243E+03  0.00000000000E+00 0. -1.
         -1    1    6    6    0  503  0.57600975838E+02  0.41174048670E+02  0.73353337658E+02  0.10195041367E+03  0.00000000000E+00 0.  1.
<mgrwt>
<rscale>  0 0.19356338E+04</rscale>
<asrwt>0</asrwt>
<pdfrwt beam="1">  1        2 0.28713303E+00 0.19356338E+04</pdfrwt>
<pdfrwt beam="2">  1       -1 0.77210528E-01 0.19356338E+04</pdfrwt>
<totfact> 0.14178479E+01</totfact>
</mgrwt>
</event>
<event>
12    6  0.1556619E-007  0.1965995E+04  0.7818608E-02  0.8622686E-01
         -1   -1    0    0    0  501 -0.00000000000E+00  0.00000000000E+00  0.40624268070E+03  0.40624268070E+03  0.00000000000E+00 0.  1.
          2   -1    0    0  501    0  0.00000000000E+00 -0.00000000000E+00 -0.23785886210E+04  0.23785886210E+04  0.00000000000E+00 0. -1.
         24    2    1    2    0    0 -0.35690442712E+03 -0.68420401077E+03 -0.79949198335E+03  0.11140585890E+04  0.80144930750E+02 0.  0.
        254    2    1    2    0    0  0.35690442712E+03  0.68420401077E+03 -0.11728539570E+04  0.16707727127E+04  0.90574784273E+03 0.  0.
         23    2    4    4    0    0  0.25256816007E+03  0.34583521708E+03 -0.12262840040E+04  0.13018579652E+04  0.87572999553E+02 0.  0.
         23    2    4    4    0    0  0.10433626705E+03  0.33836879370E+03  0.53430046971E+02  0.36891474753E+03  0.88678203947E+02 0.  0.
          2    1    3    3  502    0 -0.98642520113E+01 -0.29584495602E+02 -0.57895730422E+02  0.65760637534E+02  0.00000000000E+00 0. -1.
         -1    1    3    3    0  502 -0.34704017511E+03 -0.65461951517E+03 -0.74159625293E+03  0.10482979515E+04  0.00000000000E+00 0.  1.
         11    1    5    5    0    0  0.24531592905E+03  0.34800086040E+03 -0.11699358935E+04  0.12450038148E+04  0.00000000000E+00 0. -1.
        -11    1    5    5    0    0  0.72522310202E+01 -0.21656433199E+01 -0.56348110412E+02  0.56854150357E+02  0.00000000000E+00 0.  1.
          2    1    6    6  503    0  0.96295275764E+01  0.17624368832E+03  0.14015457542E+02  0.17706213182E+03  0.00000000000E+00 0. -1.
         -2    1    6    6    0  503  0.94706739472E+02  0.16212510538E+03  0.39414589429E+02  0.19185261571E+03  0.00000000000E+00 0.  1.
<mgrwt>
<rscale>  0 0.19659951E+04</rscale>
<asrwt>0</asrwt>
<pdfrwt beam="1">  1        2 0.36593671E+00 0.19659951E+04</pdfrwt>
<pdfrwt beam="2">  1       -1 0.62498874E-01 0.19659951E+04</pdfrwt>
<totfact> 0.11265900E+01</totfact>
</mgrwt>
</event>
<event>
12    6  0.1556619E-007  0.1409671E+04  0.7818608E-02  0.8946848E-01
         -1   -1    0    0    0  501 -0.00000000000E+00  0.00000000000E+00  0.20884123592E+03  0.20884123592E+03  0.00000000000E+00 0.  1.
          2   -1    0    0  501    0  0.00000000000E+00 -0.00000000000E+00 -0.23788075892E+04  0.23788075892E+04  0.00000000000E+00 0. -1.
         24    2    1    2    0    0  0.91180078806E+02 -0.16934966877E+03  0.30935164286E+02  0.21094536625E+03  0.80918762160E+02 0.  0.
        254    2    1    2    0    0 -0.91180078806E+02  0.16934966877E+03 -0.22009015176E+04  0.23767034589E+04  0.87621842274E+03 0.  0.
         23    2    4    4    0    0 -0.19860096635E+03  0.49090650863E+03 -0.14833005339E+04  0.15777922856E+04  0.93896104202E+02 0.  0.
         23    2    4    4    0    0  0.10742088755E+03 -0.32155683987E+03 -0.71760098363E+03  0.79891117331E+03  0.91486844868E+02 0.  0.
          2    1    3    3  502    0  0.13416995320E+02 -0.80147636254E+02 -0.17418667095E+02  0.83108780065E+02  0.00000000000E+00 0. -1.
         -1    1    3    3    0  502  0.77763083486E+02 -0.89202032512E+02  0.48353831381E+02  0.12783658618E+03  0.00000000000E+00 0.  1.
         11    1    5    5    0    0 -0.20487343264E+03  0.42806723366E+03 -0.13186080157E+04  0.14014070711E+04  0.00000000000E+00 0. -1.
        -11    1    5    5    0    0  0.62724662865E+01  0.62839274971E+02 -0.16469251822E+03  0.17638521443E+03  0.00000000000E+00 0.  1.
          3    1    6    6  503    0  0.77766961649E+02 -0.30805035016E+03 -0.63319758078E+03  0.70843623203E+03  0.00000000000E+00 0. -1.
         -3    1    6    6    0  503  0.29653925897E+02 -0.13506489707E+02 -0.84403402855E+02  0.90474941276E+02  0.00000000000E+00 0.  1.
<mgrwt>
<rscale>  0 0.14096710E+04</rscale>
<asrwt>0</asrwt>
<pdfrwt beam="1">  1        2 0.36597041E+00 0.14096710E+04</pdfrwt>
<pdfrwt beam="2">  1       -1 0.32129420E-01 0.14096710E+04</pdfrwt>
<totfact> 0.41048519E+01</totfact>
</mgrwt>
</event>
<event>
12    6  0.1556619E-007  0.1221572E+04  0.7818608E-02  0.9094181E-01
         -1   -1    0    0    0  501 -0.00000000000E+00  0.00000000000E+00  0.40812882936E+03  0.40812882936E+03  0.00000000000E+00 0.  1.
          2   -1    0    0  501    0  0.00000000000E+00 -0.00000000000E+00 -0.91407312688E+03  0.91407312688E+03  0.00000000000E+00 0. -1.
         24    2    1    2    0    0  0.23725881285E+03 -0.94090910059E+02 -0.47351991381E+02  0.27148424420E+03  0.79477293163E+02 0.  0.
        254    2    1    2    0    0 -0.23725881285E+03  0.94090910059E+02 -0.45859230614E+03  0.10507177120E+04  0.91025049493E+03 0.  0.
         23    2    4    4    0    0 -0.27818750694E+03  0.40281837954E+03 -0.11291512756E+02  0.49808247176E+03  0.91146664762E+02 0.  0.
         23    2    4    4    0    0  0.40928694091E+02 -0.30872746948E+03 -0.44730079338E+03  0.55263524029E+03  0.91323056395E+02 0.  0.
          2    1    3    3  502    0  0.11250421410E+03 -0.36617283437E+02 -0.61602603115E+02  0.13339004591E+03  0.00000000000E+00 0. -1.
         -3    1    3    3    0  502  0.12475459875E+03 -0.57473626621E+02  0.14250611734E+02  0.13809419829E+03  0.00000000000E+00 0.  1.
         11    1    5    5    0    0 -0.24972378149E+03  0.33292443812E+03 -0.38288642083E+02  0.41793141621E+03  0.00000000000E+00 0.  1.
        -11    1    5    5    0    0 -0.28463725448E+02  0.69893941423E+02  0.26997129327E+02  0.80151055551E+02  0.00000000000E+00 0. -1.
          1    1    6    6  503    0 -0.82710150813E+01 -0.92582902920E+02 -0.75429147340E+02  0.11970613966E+03  0.00000000000E+00 0. -1.
         -1    1    6    6    0  503  0.49199709173E+02 -0.21614456656E+03 -0.37187164604E+03  0.43292910063E+03  0.00000000000E+00 0.  1.
<mgrwt>
<rscale>  0 0.12215721E+04</rscale>
<asrwt>0</asrwt>
<pdfrwt beam="1">  1        2 0.14062663E+00 0.12215721E+04</pdfrwt>
<pdfrwt beam="2">  1       -1 0.62789051E-01 0.12215721E+04</pdfrwt>
<totfact> 0.82991952E+01</totfact>
</mgrwt>
</event>
<event>
12    6  0.1556619E-007  0.1746060E+04  0.7818608E-02  0.8735522E-01
         -1   -1    0    0    0  501 -0.00000000000E+00  0.00000000000E+00  0.40522525777E+03  0.40522525777E+03  0.00000000000E+00 0.  1.
          2   -1    0    0  501    0  0.00000000000E+00 -0.00000000000E+00 -0.18808835831E+04  0.18808835831E+04  0.00000000000E+00 0. -1.
         24    2    1    2    0    0 -0.32961669046E+03  0.82934664314E+02  0.16535923910E+03  0.38652530626E+03  0.80825820427E+02 0.  0.
        254    2    1    2    0    0  0.32961669046E+03 -0.82934664314E+02 -0.16410175644E+04  0.18995835346E+04  0.89440127293E+03 0.  0.
         23    2    4    4    0    0  0.40655287581E+03  0.94090003062E+02 -0.25524421656E+03  0.49754915134E+03  0.90925125292E+02 0.  0.
         23    2    4    4    0    0 -0.76936185344E+02 -0.17702466738E+03 -0.13857733478E+04  0.14020343832E+04  0.89865069641E+02 0.  0.
          2    1    3    3  502    0 -0.70227001539E+02  0.16055212830E+02  0.74573904935E+02  0.10368639690E+03  0.00000000000E+00 0. -1.
         -1    1    3    3    0  502 -0.25938968892E+03  0.66879451485E+02  0.90785334167E+02  0.28283890936E+03  0.00000000000E+00 0.  1.
         11    1    5    5    0    0  0.72161699373E+02  0.46795336965E+01 -0.85656225848E+02  0.11209905405E+03  0.00000000000E+00 0. -1.
        -11    1    5    5    0    0  0.33439117643E+03  0.89410469366E+02 -0.16958799071E+03  0.38545009729E+03  0.00000000000E+00 0.  1.
          4    1    6    6  503    0 -0.34966329737E+02 -0.13944563724E+03 -0.11786961849E+04  0.11874310196E+04  0.00000000000E+00 0.  1.
         -4    1    6    6    0  503 -0.41969855607E+02 -0.37579030133E+02 -0.20707716296E+03  0.21460336368E+03  0.00000000000E+00 0. -1.
<mgrwt>
<rscale>  0 0.17460602E+04</rscale>
<asrwt>0</asrwt>
<pdfrwt beam="1">  1        2 0.28936670E+00 0.17460602E+04</pdfrwt>
<pdfrwt beam="2">  1       -1 0.62342348E-01 0.17460602E+04</pdfrwt>
<totfact> 0.21928649E+01</totfact>
</mgrwt>
</event>
<event>
12    6  0.1556619E-007  0.2058032E+04  0.7818608E-02  0.8579959E-01
         -1   -1    0    0    0  501 -0.00000000000E+00  0.00000000000E+00  0.27717322816E+03  0.27717322816E+03  0.00000000000E+00 0.  1.
          2   -1    0    0  501    0  0.00000000000E+00 -0.00000000000E+00 -0.38202610711E+04  0.38202610711E+04  0.00000000000E+00 0. -1.
         24    2    1    2    0    0  0.62357167649E+03  0.34139715181E+03 -0.59306452093E+03  0.92883740207E+03  0.74964941865E+02 0.  0.
        254    2    1    2    0    0 -0.62357167649E+03 -0.34139715181E+03 -0.29500233220E+04  0.31685968972E+04  0.91212666094E+03 0.  0.
         23    2    4    4    0    0 -0.41936656678E+02 -0.46442350867E+02  0.30564773910E+02  0.11615883401E+03  0.92968242900E+02 0.  0.
         23    2    4    4    0    0 -0.58163501981E+03 -0.29495480094E+03 -0.29805880959E+04  0.30524380632E+04  0.90416266365E+02 0.  0.
          4    1    3    3  502    0  0.24137116191E+03  0.15656191697E+03 -0.27883659678E+03  0.40065136884E+03  0.00000000000E+00 0. -1.
         -3    1    3    3    0  502  0.38220051458E+03  0.18483523483E+03 -0.31422792415E+03  0.52818603323E+03  0.00000000000E+00 0.  1.
         11    1    5    5    0    0 -0.56486385027E+02 -0.52584337415E+02 -0.49073436840E+01  0.77329853594E+02  0.00000000000E+00 0. -1.
        -11    1    5    5    0    0  0.14549728350E+02  0.61419865482E+01  0.35472117594E+02  0.38828980419E+02  0.00000000000E+00 0.  1.
          3    1    6    6  503    0 -0.28985038069E+03 -0.97839509970E+02 -0.14348543842E+04  0.14671035808E+04  0.00000000000E+00 0. -1.
         -3    1    6    6    0  503 -0.29178463911E+03 -0.19711529097E+03 -0.15457337117E+04  0.15853344824E+04  0.00000000000E+00 0.  1.
<mgrwt>
<rscale>  0 0.20580322E+04</rscale>
<asrwt>0</asrwt>
<pdfrwt beam="1">  1        2 0.58773245E+00 0.20580322E+04</pdfrwt>
<pdfrwt beam="2">  1       -1 0.42642037E-01 0.20580322E+04</pdfrwt>
<totfact> 0.27210306E+00</totfact>
</mgrwt>
</event>
<event>
12    6  0.1556619E-007  0.1393999E+04  0.7818608E-02  0.8958174E-01
         -1   -1    0    0    0  501 -0.00000000000E+00  0.00000000000E+00  0.25206071758E+03  0.25206071758E+03  0.00000000000E+00 0.  1.
          2   -1    0    0  501    0  0.00000000000E+00 -0.00000000000E+00 -0.19273457728E+04  0.19273457728E+04  0.00000000000E+00 0. -1.
         24    2    1    2    0    0  0.37151283362E+03 -0.15853236070E+03 -0.49527534312E+03  0.64431879353E+03  0.81821435156E+02 0.  0.
        254    2    1    2    0    0 -0.37151283362E+03  0.15853236070E+03 -0.11800097121E+04  0.15350876968E+04  0.89493967474E+03 0.  0.
         23    2    4    4    0    0 -0.17058013334E+03  0.28512018446E+03 -0.17930648544E+02  0.34564857178E+03  0.93596610744E+02 0.  0.
         23    2    4    4    0    0 -0.20093270029E+03 -0.12658782376E+03 -0.11620790635E+04  0.11894391251E+04  0.89102497813E+02 0.  0.
          4    1    3    3  502    0  0.28811123081E+03 -0.14229264488E+03 -0.43187403138E+03  0.53830331328E+03  0.00000000000E+00 0. -1.
         -3    1    3    3    0  502  0.83401602814E+02 -0.16239715820E+02 -0.63401311743E+02  0.10601548025E+03  0.00000000000E+00 0.  1.
         11    1    5    5    0    0 -0.86698740282E+02  0.14925203428E+03  0.37486770996E+02  0.17662983696E+03  0.00000000000E+00 0. -1.
        -11    1    5    5    0    0 -0.83881393054E+02  0.13586815017E+03 -0.55417419540E+02  0.16901873482E+03  0.00000000000E+00 0.  1.
          3    1    6    6  503    0 -0.14492378407E+03 -0.40977749753E+02 -0.73590231976E+03  0.75115531243E+03  0.00000000000E+00 0. -1.
         -3    1    6    6    0  503 -0.56008916218E+02 -0.85610074004E+02 -0.42617674379E+03  0.43828381263E+03  0.00000000000E+00 0.  1.
<mgrwt>
<rscale>  0 0.13939988E+04</rscale>
<asrwt>0</asrwt>
<pdfrwt beam="1">  1        2 0.29651473E+00 0.13939988E+04</pdfrwt>
<pdfrwt beam="2">  1       -1 0.38778572E-01 0.13939988E+04</pdfrwt>
<totfact> 0.52449955E+01</totfact>
</mgrwt>
</event>
<event>
12    6  0.1556619E-007  0.3116327E+04  0.7818608E-02  0.8211271E-01
          2   -1    0    0  501    0  0.00000000000E+00  0.00000000000E+00  0.13768153045E+04  0.13768153045E+04  0.00000000000E+00 0. -1.
         -1   -1    0    0    0  501 -0.00000000000E+00 -0.00000000000E+00 -0.17633984567E+04  0.17633984567E+04  0.00000000000E+00 0.  1.
         24    2    1    2    0    0 -0.13032694400E+04  0.48796992403E+02 -0.74989652022E+03  0.15065015758E+04  0.79434420611E+02 0.  0.
        254    2    1    2    0    0  0.13032694400E+04 -0.48796992403E+02  0.36331336801E+03  0.16337121854E+04  0.91439954149E+03 0.  0.
         23    2    4    4    0    0  0.72151962561E+03 -0.92467449060E+02 -0.25715103794E+03  0.77671909189E+03  0.89582878476E+02 0.  0.
         23    2    4    4    0    0  0.58174981442E+03  0.43670456657E+02  0.62046440595E+03  0.85699309348E+03  0.95504596041E+02 0.  0.
          4    1    3    3  502    0 -0.69219618762E+00 -0.12886785813E+01 -0.48492934416E+01  0.50651233875E+01  0.00000000000E+00 0. -1.
         -3    1    3    3    0  502 -0.13025772438E+04  0.50085670985E+02 -0.74504722678E+03  0.15014364525E+04  0.00000000000E+00 0.  1.
         11    1    5    5    0    0  0.16628974926E+03 -0.58618832209E+02 -0.51895399060E+02  0.18379766223E+03  0.00000000000E+00 0. -1.
        -11    1    5    5    0    0  0.55522987636E+03 -0.33848616851E+02 -0.20525563888E+03  0.59292142967E+03  0.00000000000E+00 0.  1.
          1    1    6    6  503    0  0.56899359548E+03  0.26656157456E+02  0.59303894259E+03  0.82228915222E+03  0.00000000000E+00 0.  1.
         -1    1    6    6    0  503  0.12756218946E+02  0.17014299201E+02  0.27425463359E+02  0.34703941268E+02  0.00000000000E+00 0. -1.
<mgrwt>
<rscale>  0 0.31163273E+04</rscale>
<asrwt>0</asrwt>
<pdfrwt beam="1">  1        2 0.21181774E+00 0.31163273E+04</pdfrwt>
<pdfrwt beam="2">  1       -1 0.27129207E+00 0.31163273E+04</pdfrwt>
<totfact> 0.73016202E-01</totfact>
</mgrwt>
</event>
<event>
12    6  0.1556619E-007  0.1657590E+04  0.7818608E-02  0.8785929E-01
          2   -1    0    0  501    0  0.00000000000E+00  0.00000000000E+00  0.46334997194E+03  0.46334997194E+03  0.00000000000E+00 0. -1.
         -1   -1    0    0    0  501 -0.00000000000E+00 -0.00000000000E+00 -0.14824673190E+04  0.14824673190E+04  0.00000000000E+00 0.  1.
         24    2    1    2    0    0 -0.30973088882E+03 -0.42128901982E+03 -0.66663645202E+03  0.85108572047E+03  0.80777984066E+02 0.  0.
        254    2    1    2    0    0  0.30973088882E+03  0.42128901982E+03 -0.35248089503E+03  0.10947315705E+04  0.89486131234E+03 0.  0.
         23    2    4    4    0    0  0.33774220204E+03 -0.19832377013E+03 -0.20105422422E+03  0.45014309078E+03  0.93829037419E+02 0.  0.
         23    2    4    4    0    0 -0.28011313221E+02  0.61961278995E+03 -0.15142667081E+03  0.64458847969E+03  0.88654545146E+02 0.  0.
          4    1    3    3  502    0 -0.33370902612E+02 -0.19215731751E+02 -0.29009338991E+02  0.48212065259E+02  0.00000000000E+00 0. -1.
         -3    1    3    3    0  502 -0.27635998620E+03 -0.40207328807E+03 -0.63762711303E+03  0.80287365521E+03  0.00000000000E+00 0.  1.
         11    1    5    5    0    0  0.76334703387E+02 -0.60736289230E+02 -0.95311660833E+02  0.13638253723E+03  0.00000000000E+00 0.  1.
        -11    1    5    5    0    0  0.26140749865E+03 -0.13758748090E+03 -0.10574256339E+03  0.31376055355E+03  0.00000000000E+00 0. -1.
          4    1    6    6  503    0 -0.45480006576E+02  0.25930043178E+03 -0.92705811141E+02  0.27910484113E+03  0.00000000000E+00 0. -1.
         -4    1    6    6    0  503  0.17468693356E+02  0.36031235817E+03 -0.58720859672E+02  0.36548363856E+03  0.00000000000E+00 0.  1.
<mgrwt>
<rscale>  0 0.16575900E+04</rscale>
<asrwt>0</asrwt>
<pdfrwt beam="1">  1        2 0.71284611E-01 0.16575900E+04</pdfrwt>
<pdfrwt beam="2">  1       -1 0.22807190E+00 0.16575900E+04</pdfrwt>
<totfact> 0.71358275E+00</totfact>
</mgrwt>
</event>
<event>
12    6  0.1556619E-007  0.1258587E+04  0.7818608E-02  0.9063066E-01
         -1   -1    0    0    0  501 -0.00000000000E+00  0.00000000000E+00  0.33870591005E+03  0.33870591005E+03  0.00000000000E+00 0.  1.
          2   -1    0    0  501    0  0.00000000000E+00 -0.00000000000E+00 -0.11691871076E+04  0.11691871076E+04  0.00000000000E+00 0. -1.
         24    2    1    2    0    0  0.57625725684E+02  0.26951933370E+03 -0.52665555336E+02  0.29171374020E+03  0.79761206149E+02 0.  0.
        254    2    1    2    0    0 -0.57625725684E+02 -0.26951933370E+03 -0.77781564222E+03  0.12161792775E+04  0.89338315751E+03 0.  0.
         23    2    4    4    0    0 -0.10794145437E+03  0.23282888674E+03 -0.62353772514E+03  0.68012397541E+03  0.88930754992E+02 0.  0.
         23    2    4    4    0    0  0.50315728688E+02 -0.50234822043E+03 -0.15427791708E+03  0.53605530204E+03  0.93103190184E+02 0.  0.
          4    1    3    3  502    0  0.89880035366E+01  0.14410186192E+03 -0.61437295512E+02  0.15690975781E+03  0.00000000000E+00 0. -1.
         -3    1    3    3    0  502  0.48637722147E+02  0.12541747178E+03  0.87717401762E+01  0.13480398239E+03  0.00000000000E+00 0.  1.
         11    1    5    5    0    0 -0.94069058923E+02  0.11173129914E+03 -0.28373629725E+03  0.31912248030E+03  0.00000000000E+00 0. -1.
        -11    1    5    5    0    0 -0.13872395449E+02  0.12109758760E+03 -0.33980142789E+03  0.36100149511E+03  0.00000000000E+00 0.  1.
          4    1    6    6  503    0  0.65335962277E+02 -0.31576941893E+03 -0.12844671579E+03  0.34709893791E+03  0.00000000000E+00 0. -1.
         -4    1    6    6    0  503 -0.15020233588E+02 -0.18657880150E+03 -0.25831201288E+02  0.18895636413E+03  0.00000000000E+00 0.  1.
<mgrwt>
<rscale>  0 0.12585874E+04</rscale>
<asrwt>0</asrwt>
<pdfrwt beam="1">  1        2 0.17987494E+00 0.12585874E+04</pdfrwt>
<pdfrwt beam="2">  1       -1 0.52108602E-01 0.12585874E+04</pdfrwt>
<totfact> 0.82137613E+01</totfact>
</mgrwt>
</event>
<event>
12    6  0.1556619E-007  0.2124320E+04  0.7818608E-02  0.8550605E-01
          2   -1    0    0  501    0  0.00000000000E+00  0.00000000000E+00  0.15911118970E+04  0.15911118970E+04  0.00000000000E+00 0. -1.
         -1   -1    0    0    0  501 -0.00000000000E+00 -0.00000000000E+00 -0.70905393172E+03  0.70905393172E+03  0.00000000000E+00 0.  1.
         24    2    1    2    0    0  0.53625211503E+03 -0.35768402920E+03 -0.27003704565E+03  0.70336698694E+03  0.79378313640E+02 0.  0.
        254    2    1    2    0    0 -0.53625211503E+03  0.35768402920E+03  0.11520950109E+04  0.15967988418E+04  0.89829807487E+03 0.  0.
         23    2    4    4    0    0  0.23391128851E+03  0.10438747716E+03  0.41598380915E+03  0.49795007588E+03  0.96439163780E+02 0.  0.
         23    2    4    4    0    0 -0.77016340354E+03  0.25329655204E+03  0.73611120179E+03  0.10988487659E+04  0.91093894086E+02 0.  0.
          2    1    3    3  502    0  0.34364048307E+03 -0.21265731874E+03 -0.12984686483E+03  0.42446687164E+03  0.00000000000E+00 0. -1.
         -1    1    3    3    0  502  0.19261163196E+03 -0.14502671045E+03 -0.14019018082E+03  0.27890011529E+03  0.00000000000E+00 0.  1.
         11    1    5    5    0    0  0.19457108079E+03  0.69379021504E+02  0.38482022377E+03  0.43675846726E+03  0.00000000000E+00 0.  1.
        -11    1    5    5    0    0  0.39340207722E+02  0.35008455655E+02  0.31163585380E+02  0.61191608613E+02  0.00000000000E+00 0. -1.
          3    1    6    6  503    0 -0.17597888204E+02 -0.34456100054E+01  0.32345500713E+02  0.36983635759E+02  0.00000000000E+00 0. -1.
         -3    1    6    6    0  503 -0.75256551533E+03  0.25674216204E+03  0.70376570108E+03  0.10618651302E+04  0.00000000000E+00 0.  1.
<mgrwt>
<rscale>  0 0.21243203E+04</rscale>
<asrwt>0</asrwt>
<pdfrwt beam="1">  1        2 0.24478644E+00 0.21243203E+04</pdfrwt>
<pdfrwt beam="2">  1       -1 0.10908522E+00 0.21243203E+04</pdfrwt>
<totfact> 0.91989745E+00</totfact>
</mgrwt>
</event>
<event>
12    6  0.1556619E-007  0.1619601E+04  0.7818608E-02  0.8808596E-01
          2   -1    0    0  501    0  0.00000000000E+00  0.00000000000E+00  0.10580777999E+04  0.10580777999E+04  0.00000000000E+00 0. -1.
         -1   -1    0    0    0  501 -0.00000000000E+00 -0.00000000000E+00 -0.61978161063E+03  0.61978161063E+03  0.00000000000E+00 0.  1.
         24    2    1    2    0    0  0.22310570390E+03 -0.22639189523E+02 -0.38270485877E+03  0.45037925409E+03  0.78037014144E+02 0.  0.
        254    2    1    2    0    0 -0.22310570390E+03  0.22639189523E+02  0.82100104801E+03  0.12274801564E+04  0.88452027989E+03 0.  0.
         23    2    4    4    0    0 -0.31198165398E+03 -0.27531333828E+03  0.79562729755E+03  0.90231541582E+03  0.89556274759E+02 0.  0.
         23    2    4    4    0    0  0.88875950075E+02  0.29795252781E+03  0.25373750458E+02  0.32516474060E+03  0.91725885038E+02 0.  0.
          4    1    3    3  502    0  0.22088157331E+02  0.21535612077E+02 -0.63126616955E+02  0.70261220101E+02  0.00000000000E+00 0. -1.
         -3    1    3    3    0  502  0.20101754657E+03 -0.44174801601E+02 -0.31957824181E+03  0.38011803399E+03  0.00000000000E+00 0.  1.
         11    1    5    5    0    0 -0.20969099781E+03 -0.19967699868E+03  0.63098150783E+03  0.69424698890E+03  0.00000000000E+00 0.  1.
        -11    1    5    5    0    0 -0.10229065617E+03 -0.75636339602E+02  0.16464578972E+03  0.20806842692E+03  0.00000000000E+00 0. -1.
          1    1    6    6  503    0  0.12561435237E+02  0.18297834995E+02  0.27420316762E+02  0.35277105778E+02  0.00000000000E+00 0. -1.
         -1    1    6    6    0  503  0.76314514838E+02  0.27965469281E+03 -0.20465663037E+01  0.28988763482E+03  0.00000000000E+00 0.  1.
<mgrwt>
<rscale>  0 0.16196014E+04</rscale>
<asrwt>0</asrwt>
<pdfrwt beam="1">  1        2 0.16278120E+00 0.16196014E+04</pdfrwt>
<pdfrwt beam="2">  1       -1 0.95351017E-01 0.16196014E+04</pdfrwt>
<totfact> 0.26839877E+01</totfact>
</mgrwt>
</event>
<event>
12    6  0.1556619E-007  0.1428438E+04  0.7818608E-02  0.8933487E-01
         -1   -1    0    0    0  501 -0.00000000000E+00  0.00000000000E+00  0.18613248823E+03  0.18613248823E+03  0.00000000000E+00 0.  1.
          2   -1    0    0  501    0  0.00000000000E+00 -0.00000000000E+00 -0.27405698739E+04  0.27405698739E+04  0.00000000000E+00 0. -1.
         24    2    1    2    0    0 -0.37062802462E+03 -0.10129836744E+02 -0.12730055995E+04  0.13283029734E+04  0.79861045769E+02 0.  0.
        254    2    1    2    0    0  0.37062802462E+03  0.10129836744E+02 -0.12814317862E+04  0.15983993887E+04  0.88053701626E+03 0.  0.
         23    2    4    4    0    0  0.50565530019E+03 -0.17379748228E+03 -0.37573885974E+03  0.65986682137E+03  0.91387547150E+02 0.  0.
         23    2    4    4    0    0 -0.13502727557E+03  0.18392731902E+03 -0.90569292647E+03  0.93853256737E+03  0.92206719541E+02 0.  0.
          4    1    3    3  502    0 -0.36366875959E+03 -0.22251862946E+02 -0.12409667160E+04  0.12933477886E+04  0.00000000000E+00 0. -1.
         -3    1    3    3    0  502 -0.69592650317E+01  0.12122026202E+02 -0.32038883478E+02  0.34955184787E+02  0.00000000000E+00 0.  1.
         11    1    5    5    0    0  0.33393239687E+02 -0.29863352443E+02 -0.55791844025E+02  0.71551786390E+02  0.00000000000E+00 0.  1.
        -11    1    5    5    0    0  0.47226206050E+03 -0.14393412983E+03 -0.31994701571E+03  0.58831503498E+03  0.00000000000E+00 0. -1.
          4    1    6    6  503    0 -0.14437948962E+03  0.14066006696E+03 -0.75858033739E+03  0.78490433795E+03  0.00000000000E+00 0. -1.
         -4    1    6    6    0  503  0.93522140531E+01  0.43267252064E+02 -0.14711258909E+03  0.15362822943E+03  0.00000000000E+00 0.  1.
<mgrwt>
<rscale>  0 0.14284384E+04</rscale>
<asrwt>0</asrwt>
<pdfrwt beam="1">  1        2 0.42162611E+00 0.14284384E+04</pdfrwt>
<pdfrwt beam="2">  1       -1 0.28635769E-01 0.14284384E+04</pdfrwt>
<totfact> 0.30926803E+01</totfact>
</mgrwt>
</event>
<event>
12    6  0.1556619E-007  0.1226627E+04  0.7818608E-02  0.9089864E-01
         -1   -1    0    0    0  501 -0.00000000000E+00  0.00000000000E+00  0.18240250511E+03  0.18240250511E+03  0.00000000000E+00 0.  1.
          2   -1    0    0  501    0  0.00000000000E+00 -0.00000000000E+00 -0.20622177330E+04  0.20622177330E+04  0.00000000000E+00 0. -1.
         24    2    1    2    0    0  0.24637839104E+03  0.65941430817E+02 -0.24807727959E+03  0.36489749900E+03  0.80976936559E+02 0.  0.
        254    2    1    2    0    0 -0.24637839104E+03 -0.65941430817E+02 -0.16317379483E+04  0.18797227391E+04  0.89762924427E+03 0.  0.
         23    2    4    4    0    0 -0.28320908372E+03  0.27338437136E+03 -0.13998029631E+04  0.14569907698E+04  0.91800697904E+02 0.  0.
         23    2    4    4    0    0  0.36830692683E+02 -0.33932580218E+03 -0.23193498517E+03  0.42273196930E+03  0.91705946237E+02 0.  0.
          4    1    3    3  502    0 -0.39436902201E+01  0.69113366430E+01 -0.18541125313E+02  0.20176535744E+02  0.00000000000E+00 0. -1.
         -3    1    3    3    0  502  0.25032208126E+03  0.59030094175E+02 -0.22953615428E+03  0.34472096325E+03  0.00000000000E+00 0.  1.
         11    1    5    5    0    0 -0.23881970783E+03  0.25594448926E+03 -0.13011039802E+04  0.13473730002E+04  0.00000000000E+00 0.  1.
        -11    1    5    5    0    0 -0.44389375900E+02  0.17439882104E+02 -0.98698982954E+02  0.10961776962E+03  0.00000000000E+00 0. -1.
          2    1    6    6  503    0 -0.18842091671E+02 -0.10155015007E+03 -0.35131864460E+02  0.10909493709E+03  0.00000000000E+00 0.  1.
         -2    1    6    6    0  503  0.55672784353E+02 -0.23777565211E+03 -0.19680312071E+03  0.31363703221E+03  0.00000000000E+00 0. -1.
<mgrwt>
<rscale>  0 0.12266274E+04</rscale>
<asrwt>0</asrwt>
<pdfrwt beam="1">  1        2 0.31726427E+00 0.12266274E+04</pdfrwt>
<pdfrwt beam="2">  1       -1 0.28061923E-01 0.12266274E+04</pdfrwt>
<totfact> 0.79512527E+01</totfact>
</mgrwt>
</event>
<event>
12    6  0.1556619E-007  0.1880112E+04  0.7818608E-02  0.8664820E-01
         -1   -1    0    0    0  501 -0.00000000000E+00  0.00000000000E+00  0.23349161652E+04  0.23349161652E+04  0.00000000000E+00 0.  1.
          2   -1    0    0  501    0  0.00000000000E+00 -0.00000000000E+00 -0.37847415624E+03  0.37847415624E+03  0.00000000000E+00 0. -1.
         24    2    1    2    0    0  0.43763176169E+03  0.41614889031E+03  0.13272007987E+04  0.14600996231E+04  0.75680192025E+02 0.  0.
        254    2    1    2    0    0 -0.43763176169E+03 -0.41614889031E+03  0.62924121025E+03  0.12532906984E+04  0.90005089644E+03 0.  0.
         23    2    4    4    0    0 -0.56474180492E+02 -0.80243593549E+02  0.71747609214E+03  0.72975370574E+03  0.90222840080E+02 0.  0.
         23    2    4    4    0    0 -0.38115758120E+03 -0.33590529676E+03 -0.88234881892E+02  0.52353699263E+03  0.90510320814E+02 0.  0.
          4    1    3    3  502    0  0.15792639774E+03  0.19563405522E+03  0.59138257686E+03  0.64260935481E+03  0.00000000000E+00 0. -1.
         -3    1    3    3    0  502  0.27970536395E+03  0.22051483509E+03  0.73581822188E+03  0.81749026830E+03  0.00000000000E+00 0.  1.
         11    1    5    5    0    0  0.12736071052E+02  0.54809628519E+00  0.25003610624E+03  0.25036086423E+03  0.00000000000E+00 0. -1.
        -11    1    5    5    0    0 -0.69210251544E+02 -0.80791689834E+02  0.46743998590E+03  0.47939284150E+03  0.00000000000E+00 0.  1.
          3    1    6    6  503    0 -0.17974701550E+03 -0.10013607304E+03 -0.42415633196E+02  0.21008405138E+03  0.00000000000E+00 0. -1.
         -3    1    6    6    0  503 -0.20141056570E+03 -0.23576922372E+03 -0.45819248696E+02  0.31345294125E+03  0.00000000000E+00 0.  1.
<mgrwt>
<rscale>  0 0.18801122E+04</rscale>
<asrwt>0</asrwt>
<pdfrwt beam="1">  1        2 0.58226794E-01 0.18801122E+04</pdfrwt>
<pdfrwt beam="2">  1       -1 0.35921787E+00 0.18801122E+04</pdfrwt>
<totfact> 0.12274761E+00</totfact>
</mgrwt>
</event>
<event>
12    6  0.1556619E-007  0.1889246E+04  0.7818608E-02  0.8660228E-01
          2   -1    0    0  501    0  0.00000000000E+00  0.00000000000E+00  0.17995569788E+04  0.17995569788E+04  0.00000000000E+00 0. -1.
         -1   -1    0    0    0  501 -0.00000000000E+00 -0.00000000000E+00 -0.49585121874E+03  0.49585121874E+03  0.00000000000E+00 0.  1.
         24    2    1    2    0    0  0.20094800896E+02 -0.27567919181E+03  0.13155250542E+04  0.13466225973E+04  0.79896393611E+02 0.  0.
        254    2    1    2    0    0 -0.20094800896E+02  0.27567919181E+03 -0.11819294099E+02  0.94878560021E+03  0.90755253381E+03 0.  0.
         23    2    4    4    0    0 -0.30231273772E+03 -0.17103272192E+02  0.29497574875E+03  0.43235630573E+03  0.90751140199E+02 0.  0.
         23    2    4    4    0    0  0.28221793682E+03  0.29278246400E+03 -0.30679504285E+03  0.51642929448E+03  0.84896895049E+02 0.  0.
          2    1    3    3  502    0  0.34843281852E+01 -0.26685978207E+03  0.11803543712E+04  0.12101498772E+04  0.00000000000E+00 0. -1.
         -1    1    3    3    0  502  0.16610472711E+02 -0.88194097359E+01  0.13517068297E+03  0.13647272009E+03  0.00000000000E+00 0.  1.
         11    1    5    5    0    0 -0.16425863137E+03 -0.18869430014E+02  0.22013407857E+03  0.27531067164E+03  0.00000000000E+00 0. -1.
        -11    1    5    5    0    0 -0.13805410635E+03  0.17661578223E+01  0.74841670182E+02  0.15704563409E+03  0.00000000000E+00 0.  1.
          4    1    6    6  503    0  0.66160078466E+02  0.83962282270E+02 -0.12805606341E+03  0.16680880134E+03  0.00000000000E+00 0. -1.
         -4    1    6    6    0  503  0.21605785836E+03  0.20882018173E+03 -0.17873897944E+03  0.34962049314E+03  0.00000000000E+00 0.  1.
<mgrwt>
<rscale>  0 0.18892459E+04</rscale>
<asrwt>0</asrwt>
<pdfrwt beam="1">  1        2 0.27685492E+00 0.18892459E+04</pdfrwt>
<pdfrwt beam="2">  1       -1 0.76284804E-01 0.18892459E+04</pdfrwt>
<totfact> 0.15900847E+01</totfact>
</mgrwt>
</event>
<event>
12    6  0.1556619E-007  0.2217053E+04  0.7818608E-02  0.8511364E-01
         -3   -1    0    0    0  501 -0.00000000000E+00  0.00000000000E+00  0.80210990498E+03  0.80210990498E+03  0.00000000000E+00 0.  1.
          2   -1    0    0  501    0  0.00000000000E+00 -0.00000000000E+00 -0.15319980614E+04  0.15319980614E+04  0.00000000000E+00 0. -1.
         24    2    1    2    0    0  0.88233144013E+03 -0.13835197985E+03 -0.13396003103E+03  0.90664044348E+03  0.80009769838E+02 0.  0.
        254    2    1    2    0    0 -0.88233144013E+03  0.13835197985E+03 -0.59592812538E+03  0.14274675229E+04  0.94068228308E+03 0.  0.
         23    2    4    4    0    0 -0.47757390598E+03 -0.32664656343E+03 -0.31713286730E+02  0.58699488519E+03  0.93714724622E+02 0.  0.
         23    2    4    4    0    0 -0.40475753415E+03  0.46499854328E+03 -0.56421483865E+03  0.84047263769E+03  0.89462639436E+02 0.  0.
          4    1    3    3  502    0  0.61038024213E+03 -0.72884162504E+02 -0.62153689125E+02  0.61785048531E+03  0.00000000000E+00 0. -1.
         -3    1    3    3    0  502  0.27195119800E+03 -0.65467817344E+02 -0.71806341906E+02  0.28878995817E+03  0.00000000000E+00 0.  1.
         11    1    5    5    0    0 -0.34682687189E+02  0.17875345169E+01 -0.54183880110E+00  0.34732947753E+02  0.00000000000E+00 0. -1.
        -11    1    5    5    0    0 -0.44289121879E+03 -0.32843409795E+03 -0.31171447929E+02  0.55226193744E+03  0.00000000000E+00 0.  1.
          4    1    6    6  503    0 -0.11589491772E+02  0.38748416778E+02 -0.19622674289E+02  0.44953369936E+02  0.00000000000E+00 0. -1.
         -4    1    6    6    0  503 -0.39316804238E+03  0.42625012650E+03 -0.54459216436E+03  0.79551926776E+03  0.00000000000E+00 0.  1.
<mgrwt>
<rscale>  0 0.22170528E+04</rscale>
<asrwt>0</asrwt>
<pdfrwt beam="1">  1        2 0.23569201E+00 0.22170528E+04</pdfrwt>
<pdfrwt beam="2">  1       -3 0.12340153E+00 0.22170528E+04</pdfrwt>
<totfact> 0.37266221E+00</totfact>
</mgrwt>
</event>
<event>
12    6  0.1556619E-007  0.1168426E+04  0.7818608E-02  0.9140951E-01
         -1   -1    0    0    0  501 -0.00000000000E+00  0.00000000000E+00  0.29950015856E+03  0.29950015856E+03  0.00000000000E+00 0.  1.
          2   -1    0    0  501    0  0.00000000000E+00 -0.00000000000E+00 -0.11395813576E+04  0.11395813576E+04  0.00000000000E+00 0. -1.
         24    2    1    2    0    0 -0.52930336628E+02 -0.18309533122E+03 -0.32664517324E+03  0.38664302735E+03  0.80437805461E+02 0.  0.
        254    2    1    2    0    0  0.52930336628E+02  0.18309533122E+03 -0.51343602585E+03  0.10524384889E+04  0.89871280137E+03 0.  0.
         23    2    4    4    0    0  0.32512828603E+03  0.42762004279E+03 -0.30233011345E+03  0.62239284423E+03  0.86035176951E+02 0.  0.
         23    2    4    4    0    0 -0.27219794940E+03 -0.24452471157E+03 -0.21110591239E+03  0.43004564463E+03  0.80557383208E+02 0.  0.
          4    1    3    3  502    0 -0.61193644055E+02 -0.70424085943E+02 -0.16249282076E+03  0.18737163807E+03  0.00000000000E+00 0. -1.
         -3    1    3    3    0  502  0.82633074274E+01 -0.11267124527E+03 -0.16415235248E+03  0.19927138928E+03  0.00000000000E+00 0.  1.
         11    1    5    5    0    0  0.69374881829E+02  0.11609950550E+03 -0.11673188958E+03  0.17865694347E+03  0.00000000000E+00 0.  1.
        -11    1    5    5    0    0  0.25575340420E+03  0.31152053729E+03 -0.18559822387E+03  0.44373590076E+03  0.00000000000E+00 0. -1.
          1    1    6    6  503    0 -0.18112522433E+03 -0.15936633501E+03 -0.18147359291E+03  0.30188845712E+03  0.00000000000E+00 0. -1.
         -1    1    6    6    0  503 -0.91072725073E+02 -0.85158376567E+02 -0.29632319488E+02  0.12815718751E+03  0.00000000000E+00 0.  1.
<mgrwt>
<rscale>  0 0.11684259E+04</rscale>
<asrwt>0</asrwt>
<pdfrwt beam="1">  1        2 0.17532021E+00 0.11684259E+04</pdfrwt>
<pdfrwt beam="2">  1       -1 0.46076947E-01 0.11684259E+04</pdfrwt>
<totfact> 0.10875214E+02</totfact>
</mgrwt>
</event>
<event>
12    6  0.1556619E-007  0.1656660E+04  0.7818608E-02  0.8786476E-01
         -1   -1    0    0    0  501 -0.00000000000E+00  0.00000000000E+00  0.30820612266E+03  0.30820612266E+03  0.00000000000E+00 0.  1.
          2   -1    0    0  501    0  0.00000000000E+00 -0.00000000000E+00 -0.22262064996E+04  0.22262064996E+04  0.00000000000E+00 0. -1.
         24    2    1    2    0    0 -0.78120951178E+02 -0.55068441829E+03 -0.43516900713E+03  0.71060977450E+03  0.78980853915E+02 0.  0.
        254    2    1    2    0    0  0.78120951178E+02  0.55068441829E+03 -0.14828313698E+04  0.18238028478E+04  0.90449529828E+03 0.  0.
         23    2    4    4    0    0 -0.10615058600E+03  0.75749176406E+03 -0.10802806011E+04  0.13268897184E+04  0.92565804381E+02 0.  0.
         23    2    4    4    0    0  0.18427153718E+03 -0.20680734577E+03 -0.40255076871E+03  0.49691312936E+03  0.90278785217E+02 0.  0.
          2    1    3    3  502    0  0.11289639171E+02 -0.73702527256E+02 -0.38994188515E+02  0.84143123394E+02  0.00000000000E+00 0. -1.
         -1    1    3    3    0  502 -0.89410590349E+02 -0.47698189104E+03 -0.39617481862E+03  0.62646665111E+03  0.00000000000E+00 0.  1.
         11    1    5    5    0    0 -0.10615889595E+03  0.69697637476E+03 -0.94794883114E+03  0.11813774861E+04  0.00000000000E+00 0.  1.
        -11    1    5    5    0    0  0.83099576411E-02  0.60515389300E+02 -0.13233176997E+03  0.14551223232E+03  0.00000000000E+00 0. -1.
          2    1    6    6  503    0  0.46215876177E+01 -0.27610455321E+02 -0.10471910933E+02  0.29889082183E+02  0.00000000000E+00 0. -1.
         -2    1    6    6    0  503  0.17964994956E+03 -0.17919689045E+03 -0.39207885778E+03  0.46702404718E+03  0.00000000000E+00 0.  1.
<mgrwt>
<rscale>  0 0.16566599E+04</rscale>
<asrwt>0</asrwt>
<pdfrwt beam="1">  1        2 0.34249329E+00 0.16566599E+04</pdfrwt>
<pdfrwt beam="2">  1       -1 0.47416329E-01 0.16566599E+04</pdfrwt>
<totfact> 0.24107833E+01</totfact>
</mgrwt>
</event>
<event>
12    6  0.1556619E-007  0.1230025E+04  0.7818608E-02  0.9086974E-01
          2   -1    0    0  501    0  0.00000000000E+00  0.00000000000E+00  0.21309863361E+04  0.21309863361E+04  0.00000000000E+00 0. -1.
         -1   -1    0    0    0  501 -0.00000000000E+00 -0.00000000000E+00 -0.17749540389E+03  0.17749540389E+03  0.00000000000E+00 0.  1.
         24    2    1    2    0    0  0.26372927761E+03 -0.71360631253E+02  0.57103209008E+03  0.63799590945E+03  0.79471133226E+02 0.  0.
        254    2    1    2    0    0 -0.26372927761E+03  0.71360631253E+02  0.13824588422E+04  0.16704858306E+04  0.89704235591E+03 0.  0.
         23    2    4    4    0    0 -0.28310039093E+03 -0.19706906058E+03  0.13354243242E+04  0.13822668775E+04  0.91222524351E+02 0.  0.
         23    2    4    4    0    0  0.19371113324E+02  0.26842969183E+03  0.47034517960E+02  0.28821895308E+03  0.91805117216E+02 0.  0.
          4    1    3    3  502    0  0.15865614061E+03 -0.80655360843E+02  0.38474921413E+03  0.42392100203E+03  0.00000000000E+00 0. -1.
         -3    1    3    3    0  502  0.10507313700E+03  0.92947295898E+01  0.18628287594E+03  0.21407490742E+03  0.00000000000E+00 0.  1.
         11    1    5    5    0    0 -0.37405732968E+02  0.57698147208E+01  0.16149215239E+03  0.16586800446E+03  0.00000000000E+00 0. -1.
        -11    1    5    5    0    0 -0.24569465796E+03 -0.20283887530E+03  0.11739321718E+04  0.12163988730E+04  0.00000000000E+00 0.  1.
          4    1    6    6  503    0  0.47660890532E+01  0.18910231431E+02 -0.21519685829E+02  0.29041510564E+02  0.00000000000E+00 0. -1.
         -4    1    6    6    0  503  0.14605024271E+02  0.24951946040E+03  0.68554203790E+02  0.25917744251E+03  0.00000000000E+00 0.  1.
<mgrwt>
<rscale>  0 0.12300248E+04</rscale>
<asrwt>0</asrwt>
<pdfrwt beam="1">  1        2 0.32784403E+00 0.12300248E+04</pdfrwt>
<pdfrwt beam="2">  1       -1 0.27306987E-01 0.12300248E+04</pdfrwt>
<totfact> 0.76330330E+01</totfact>
</mgrwt>
</event>
<event>
12    6  0.1556619E-007  0.2551080E+04  0.7818608E-02  0.8385011E-01
         -1   -1    0    0    0  501 -0.00000000000E+00  0.00000000000E+00  0.55493566452E+03  0.55493566452E+03  0.00000000000E+00 0.  1.
          2   -1    0    0  501    0  0.00000000000E+00 -0.00000000000E+00 -0.29318757801E+04  0.29318757801E+04  0.00000000000E+00 0. -1.
         24    2    1    2    0    0  0.80674250576E+03  0.14989955645E+03 -0.20892765084E+04  0.22460718966E+04  0.80369698496E+02 0.  0.
        254    2    1    2    0    0 -0.80674250576E+03 -0.14989955645E+03 -0.28766360716E+03  0.12407395480E+04  0.88508809026E+03 0.  0.
         23    2    4    4    0    0 -0.85361125453E+03  0.15906783592E+03 -0.27519166124E+03  0.91568992785E+03  0.93823468612E+02 0.  0.
         23    2    4    4    0    0  0.46868748775E+02 -0.30896739236E+03 -0.12471945920E+02  0.32504962017E+03  0.88567358447E+02 0.  0.
          2    1    3    3  502    0  0.57024352153E+03  0.91624886580E+02 -0.13736687150E+04  0.14901471512E+04  0.00000000000E+00 0. -1.
         -1    1    3    3    0  502  0.23649898423E+03  0.58274669867E+02 -0.71560779342E+03  0.75592474539E+03  0.00000000000E+00 0.  1.
         11    1    5    5    0    0 -0.31633719858E+02  0.78376858330E+01  0.74260771195E+01  0.33425561666E+02  0.00000000000E+00 0. -1.
        -11    1    5    5    0    0 -0.82197753467E+03  0.15123015008E+03 -0.28261773836E+03  0.88226436618E+03  0.00000000000E+00 0.  1.
          2    1    6    6  503    0 -0.52772453816E+01  0.28233607599E+01 -0.65503400381E+01  0.88728597088E+01  0.00000000000E+00 0. -1.
         -2    1    6    6    0  503  0.52145994156E+02 -0.31179075312E+03 -0.59216058819E+01  0.31617676046E+03  0.00000000000E+00 0.  1.
<mgrwt>
<rscale>  0 0.25510801E+04</rscale>
<asrwt>0</asrwt>
<pdfrwt beam="1">  1        2 0.45105780E+00 0.25510801E+04</pdfrwt>
<pdfrwt beam="2">  1       -1 0.85374719E-01 0.25510801E+04</pdfrwt>
<totfact> 0.26293974E+00</totfact>
</mgrwt>
</event>
<event>
12    6  0.1556619E-007  0.1633002E+04  0.7818608E-02  0.8800526E-01
          2   -1    0    0  501    0  0.00000000000E+00  0.00000000000E+00  0.95342037024E+03  0.95342037024E+03  0.00000000000E+00 0. -1.
         -1   -1    0    0    0  501 -0.00000000000E+00 -0.00000000000E+00 -0.69924485447E+03  0.69924485447E+03  0.00000000000E+00 0.  1.
         24    2    1    2    0    0 -0.91044416618E+02 -0.48543013602E+03 -0.19240684951E+03  0.53583889235E+03  0.78558386326E+02 0.  0.
        254    2    1    2    0    0  0.91044416618E+02  0.48543013602E+03  0.44658236529E+03  0.11168263324E+04  0.89662352462E+03 0.  0.
         23    2    4    4    0    0  0.24081783879E+03  0.32265631121E+03 -0.17676205400E+03  0.44901747333E+03  0.90948012520E+02 0.  0.
         23    2    4    4    0    0 -0.14977342217E+03  0.16277382481E+03  0.62334441929E+03  0.66780885903E+03  0.92103263275E+02 0.  0.
          4    1    3    3  502    0 -0.65142174734E+02 -0.14937577499E+03 -0.67478626228E+02  0.17638024289E+03  0.00000000000E+00 0. -1.
         -3    1    3    3    0  502 -0.25902241884E+02 -0.33605436103E+03 -0.12492822328E+03  0.35945864946E+03  0.00000000000E+00 0.  1.
         11    1    5    5    0    0  0.12274051373E+03  0.19350428872E+03 -0.14498228904E+03  0.27116232703E+03  0.00000000000E+00 0.  1.
        -11    1    5    5    0    0  0.11807732506E+03  0.12915202249E+03 -0.31779764958E+02  0.17785514631E+03  0.00000000000E+00 0. -1.
          4    1    6    6  503    0 -0.82445755293E+02  0.82142566361E+02  0.19786767416E+03  0.22955679090E+03  0.00000000000E+00 0. -1.
         -4    1    6    6    0  503 -0.67327666879E+02  0.80631258448E+02  0.42547674513E+03  0.43825206812E+03  0.00000000000E+00 0.  1.
<mgrwt>
<rscale>  0 0.16330025E+04</rscale>
<asrwt>0</asrwt>
<pdfrwt beam="1">  1        2 0.14668006E+00 0.16330025E+04</pdfrwt>
<pdfrwt beam="2">  1       -1 0.10757613E+00 0.16330025E+04</pdfrwt>
<totfact> 0.23718135E+01</totfact>
</mgrwt>
</event>
<event>
12    6  0.1556619E-007  0.1599843E+04  0.7818608E-02  0.8820644E-01
         -1   -1    0    0    0  501 -0.00000000000E+00  0.00000000000E+00  0.30128972113E+03  0.30128972113E+03  0.00000000000E+00 0.  1.
          2   -1    0    0  501    0  0.00000000000E+00 -0.00000000000E+00 -0.21237853248E+04  0.21237853248E+04  0.00000000000E+00 0. -1.
         24    2    1    2    0    0  0.17433879139E+03  0.30192382043E+03  0.11652347066E+02  0.35828737220E+03  0.81743846020E+02 0.  0.
        254    2    1    2    0    0 -0.17433879139E+03 -0.30192382043E+03 -0.18341479508E+04  0.20667876738E+04  0.88654417577E+03 0.  0.
         23    2    4    4    0    0  0.16114918281E+03  0.23743200325E+03 -0.72809687424E+03  0.78815263795E+03  0.93362236147E+02 0.  0.
         23    2    4    4    0    0 -0.33548797420E+03 -0.53935582368E+03 -0.11060510765E+04  0.12786350358E+04  0.90009363697E+02 0.  0.
          4    1    3    3  502    0 -0.84153843989E+01  0.61759414163E+01  0.15530570287E+00  0.10439591315E+02  0.00000000000E+00 0. -1.
         -3    1    3    3    0  502  0.18275417579E+03  0.29574787901E+03  0.11497041364E+02  0.34784778088E+03  0.00000000000E+00 0.  1.
         11    1    5    5    0    0  0.13628714474E+03  0.24017055109E+03 -0.68022147846E+03  0.73413713922E+03  0.00000000000E+00 0.  1.
        -11    1    5    5    0    0  0.24862038070E+02 -0.27385478355E+01 -0.47875395777E+02  0.54015498720E+02  0.00000000000E+00 0. -1.
          3    1    6    6  503    0 -0.79425750780E+01 -0.92671656960E+01 -0.58548034981E+02  0.59806665674E+02  0.00000000000E+00 0. -1.
         -3    1    6    6    0  503 -0.32754539912E+03 -0.53008865798E+03 -0.10475030416E+04  0.12188283701E+04  0.00000000000E+00 0.  1.
<mgrwt>
<rscale>  0 0.15998434E+04</rscale>
<asrwt>0</asrwt>
<pdfrwt beam="1">  1        2 0.32673619E+00 0.15998434E+04</pdfrwt>
<pdfrwt beam="2">  1       -1 0.46352267E-01 0.15998434E+04</pdfrwt>
<totfact> 0.28850074E+01</totfact>
</mgrwt>
</event>
<event>
12    6  0.1556619E-007  0.3261540E+04  0.7818608E-02  0.8172751E-01
          2   -1    0    0  501    0  0.00000000000E+00  0.00000000000E+00  0.37344997096E+04  0.37344997096E+04  0.00000000000E+00 0. -1.
         -1   -1    0    0    0  501 -0.00000000000E+00 -0.00000000000E+00 -0.71211983255E+03  0.71211983255E+03  0.00000000000E+00 0.  1.
         24    2    1    2    0    0 -0.14484632973E+04 -0.17128096175E+03  0.19056834430E+04  0.24012521217E+04  0.83661674183E+02 0.  0.
        254    2    1    2    0    0  0.14484632973E+04  0.17128096175E+03  0.11166964340E+04  0.20453674204E+04  0.89951868652E+03 0.  0.
         23    2    4    4    0    0  0.52707374576E+03 -0.11552458669E+03 -0.25380520680E+02  0.54743659996E+03  0.88825652564E+02 0.  0.
         23    2    4    4    0    0  0.92138955151E+03  0.28680554844E+03  0.11420769547E+04  0.14979308205E+04  0.90779095489E+02 0.  0.
          2    1    3    3  502    0 -0.13600132901E+04 -0.17129348290E+03  0.18162780895E+04  0.22754875752E+04  0.00000000000E+00 0. -1.
         -1    1    3    3    0  502 -0.88450007140E+02  0.12521154721E-01  0.89405353532E+02  0.12576454651E+03  0.00000000000E+00 0.  1.
         11    1    5    5    0    0  0.40896145624E+03 -0.51312491781E+02 -0.26138726157E+02  0.41299597759E+03  0.00000000000E+00 0.  1.
        -11    1    5    5    0    0  0.11811228952E+03 -0.64212094914E+02  0.75820547721E+00  0.13444062237E+03  0.00000000000E+00 0. -1.
          4    1    6    6  503    0  0.73039092775E+03  0.22748072322E+03  0.84544712301E+03  0.11401750851E+04  0.00000000000E+00 0. -1.
         -4    1    6    6    0  503  0.19099862376E+03  0.59324825226E+02  0.29662983169E+03  0.35775573540E+03  0.00000000000E+00 0.  1.
<mgrwt>
<rscale>  0 0.32615403E+04</rscale>
<asrwt>0</asrwt>
<pdfrwt beam="1">  1        2 0.57453841E+00 0.32615403E+04</pdfrwt>
<pdfrwt beam="2">  1       -1 0.10955690E+00 0.32615403E+04</pdfrwt>
<totfact> 0.40265329E-01</totfact>
</mgrwt>
</event>
<event>
12    6  0.1556619E-007  0.1547546E+04  0.7818608E-02  0.8853437E-01
          2   -1    0    0  501    0  0.00000000000E+00  0.00000000000E+00  0.11870385256E+04  0.11870385256E+04  0.00000000000E+00 0. -1.
         -1   -1    0    0    0  501 -0.00000000000E+00 -0.00000000000E+00 -0.50438540466E+03  0.50438540466E+03  0.00000000000E+00 0.  1.
         24    2    1    2    0    0  0.45991260137E+03  0.12548588733E+03  0.40386660382E+03  0.62988291318E+03  0.79862017359E+02 0.  0.
        254    2    1    2    0    0 -0.45991260137E+03 -0.12548588733E+03  0.27878651708E+03  0.10615410170E+04  0.90657658249E+03 0.  0.
         23    2    4    4    0    0 -0.43426579811E+03 -0.30986147165E+03  0.51406351294E+03  0.74665529982E+03  0.92908161076E+02 0.  0.
         23    2    4    4    0    0 -0.25646803258E+02  0.18437558432E+03 -0.23527699586E+03  0.31488571721E+03  0.95632816089E+02 0.  0.
          2    1    3    3  502    0  0.40416795185E+03  0.11357460844E+03  0.38557589233E+03  0.57001727494E+03  0.00000000000E+00 0. -1.
         -1    1    3    3    0  502  0.55744649524E+02  0.11911278888E+02  0.18290711492E+02  0.59865638242E+02  0.00000000000E+00 0.  1.
         11    1    5    5    0    0 -0.41846322296E+03 -0.31545238709E+03  0.50416105928E+03  0.72718639371E+03  0.00000000000E+00 0.  1.
        -11    1    5    5    0    0 -0.15802575151E+02  0.55909154458E+01  0.99024536574E+01  0.19468906116E+02  0.00000000000E+00 0. -1.
          4    1    6    6  503    0 -0.61259217908E+02  0.97533320914E+02 -0.12206413230E+03  0.16782458956E+03  0.00000000000E+00 0.  1.
         -4    1    6    6    0  503  0.35612414650E+02  0.86842263405E+02 -0.11321286356E+03  0.14706112765E+03  0.00000000000E+00 0. -1.
<mgrwt>
<rscale>  0 0.15475463E+04</rscale>
<asrwt>0</asrwt>
<pdfrwt beam="1">  1        2 0.18262131E+00 0.15475463E+04</pdfrwt>
<pdfrwt beam="2">  1       -1 0.77597755E-01 0.15475463E+04</pdfrwt>
<totfact> 0.35234942E+01</totfact>
</mgrwt>
</event>
<event>
12    6  0.1556619E-007  0.1380498E+04  0.7818608E-02  0.8968057E-01
          2   -1    0    0  501    0  0.00000000000E+00  0.00000000000E+00  0.78140090901E+03  0.78140090901E+03  0.00000000000E+00 0. -1.
         -1   -1    0    0    0  501 -0.00000000000E+00 -0.00000000000E+00 -0.60973054704E+03  0.60973054704E+03  0.00000000000E+00 0.  1.
         24    2    1    2    0    0  0.15532581700E+03 -0.49761428191E+02 -0.30147095570E+03  0.35154461569E+03  0.78080538699E+02 0.  0.
        254    2    1    2    0    0 -0.15532581700E+03  0.49761428191E+02  0.47314131767E+03  0.10395868404E+04  0.91119470093E+03 0.  0.
         23    2    4    4    0    0  0.45828676973E+01  0.44950934498E+03  0.11460110056E+03  0.47183043428E+03  0.86086541129E+02 0.  0.
         23    2    4    4    0    0 -0.15990868470E+03 -0.39974791679E+03  0.35854021711E+03  0.56775640608E+03  0.91799046473E+02 0.  0.
          2    1    3    3  502    0  0.54585613949E+01  0.10615614073E+02 -0.32566930143E+01  0.12373083854E+02  0.00000000000E+00 0. -1.
         -1    1    3    3    0  502  0.14986725561E+03 -0.60377042265E+02 -0.29821426269E+03  0.33917153183E+03  0.00000000000E+00 0.  1.
         11    1    5    5    0    0  0.14752781715E+02  0.42756403981E+03  0.12469666899E+03  0.44562081635E+03  0.00000000000E+00 0.  1.
        -11    1    5    5    0    0 -0.10169914018E+02  0.21945305169E+02 -0.10095568431E+02  0.26209617930E+02  0.00000000000E+00 0. -1.
          4    1    6    6  503    0 -0.12527058131E+03 -0.34745978955E+03  0.26281310505E+03  0.45331198096E+03  0.00000000000E+00 0.  1.
         -4    1    6    6    0  503 -0.34638103391E+02 -0.52288127240E+02  0.95727112056E+02  0.11444442511E+03  0.00000000000E+00 0. -1.
<mgrwt>
<rscale>  0 0.13804985E+04</rscale>
<asrwt>0</asrwt>
<pdfrwt beam="1">  1        2 0.12021552E+00 0.13804985E+04</pdfrwt>
<pdfrwt beam="2">  1       -1 0.93804700E-01 0.13804985E+04</pdfrwt>
<totfact> 0.43588231E+01</totfact>
</mgrwt>
</event>
<event>
12    6  0.1556619E-007  0.2074854E+04  0.7818608E-02  0.8572402E-01
          2   -1    0    0  501    0  0.00000000000E+00  0.00000000000E+00  0.28712510612E+04  0.28712510612E+04  0.00000000000E+00 0. -1.
         -1   -1    0    0    0  501 -0.00000000000E+00 -0.00000000000E+00 -0.37483833746E+03  0.37483833746E+03  0.00000000000E+00 0.  1.
         24    2    1    2    0    0 -0.28024170681E+03 -0.21251235897E+03 -0.17930148781E+03  0.39891882337E+03  0.57361024736E+02 0.  0.
        254    2    1    2    0    0  0.28024170681E+03  0.21251235897E+03  0.26757142115E+04  0.28471705752E+04  0.90732399172E+03 0.  0.
         23    2    4    4    0    0 -0.23976266877E+03 -0.13976494773E+03  0.12934073183E+04  0.13259974392E+04  0.91358304838E+02 0.  0.
         23    2    4    4    0    0  0.52000437558E+03  0.35227730670E+03  0.13823068932E+04  0.15211731360E+04  0.93228275141E+02 0.  0.
          2    1    3    3  502    0 -0.57994563421E+02 -0.21432289688E+02 -0.45274978742E+02  0.76632474368E+02  0.00000000000E+00 0. -1.
         -1    1    3    3    0  502 -0.22224714339E+03 -0.19108006928E+03 -0.13402650907E+03  0.32228634900E+03  0.00000000000E+00 0.  1.
         11    1    5    5    0    0 -0.17444904275E+03 -0.14470920700E+03  0.10096439501E+04  0.10347725011E+04  0.00000000000E+00 0. -1.
        -11    1    5    5    0    0 -0.65313626021E+02  0.49442592655E+01  0.28376336825E+03  0.29122493816E+03  0.00000000000E+00 0.  1.
          1    1    6    6  503    0  0.32248633810E+03  0.21466285284E+03  0.95746360628E+03  0.10328669498E+04  0.00000000000E+00 0. -1.
         -1    1    6    6    0  503  0.19751803748E+03  0.13761445386E+03  0.42484328691E+03  0.48830618619E+03  0.00000000000E+00 0.  1.
<mgrwt>
<rscale>  0 0.20748542E+04</rscale>
<asrwt>0</asrwt>
<pdfrwt beam="1">  1        2 0.44173092E+00 0.20748542E+04</pdfrwt>
<pdfrwt beam="2">  1       -1 0.57667438E-01 0.20748542E+04</pdfrwt>
<totfact> 0.67076626E+00</totfact>
</mgrwt>
</event>
<event>
12    6  0.1556619E-007  0.1448490E+04  0.7818608E-02  0.8919448E-01
          2   -1    0    0  501    0  0.00000000000E+00  0.00000000000E+00  0.91807854646E+03  0.91807854646E+03  0.00000000000E+00 0. -1.
         -1   -1    0    0    0  501 -0.00000000000E+00 -0.00000000000E+00 -0.57133536699E+03  0.57133536699E+03  0.00000000000E+00 0.  1.
         24    2    1    2    0    0 -0.33005974287E+03 -0.28879067238E+02  0.41112387516E+03  0.53365203331E+03  0.77383574097E+02 0.  0.
        254    2    1    2    0    0  0.33005974287E+03  0.28879067238E+02 -0.64380695692E+02  0.95576188013E+03  0.89418256701E+03 0.  0.
         23    2    4    4    0    0  0.30641528294E+03  0.42405622593E+03 -0.12461669810E+03  0.54566401805E+03  0.92227386280E+02 0.  0.
         23    2    4    4    0    0  0.23644459932E+02 -0.39517715869E+03  0.60236002411E+02  0.41009786208E+03  0.88475043153E+02 0.  0.
          4    1    3    3  502    0 -0.30650345275E+03 -0.47561178119E+02  0.37447384361E+03  0.48624797353E+03  0.00000000000E+00 0. -1.
         -3    1    3    3    0  502 -0.23556290127E+02  0.18682110881E+02  0.36650031551E+02  0.47404059786E+02  0.00000000000E+00 0.  1.
         11    1    5    5    0    0  0.28640340877E+03  0.42154116519E+03 -0.12737290826E+03  0.52530726652E+03  0.00000000000E+00 0. -1.
        -11    1    5    5    0    0  0.20011874170E+02  0.25150607406E+01  0.27562101550E+01  0.20356751527E+02  0.00000000000E+00 0.  1.
          3    1    6    6  503    0 -0.29400709068E+01 -0.24813490685E+03 -0.21748106291E+01  0.24816185407E+03  0.00000000000E+00 0. -1.
         -3    1    6    6    0  503  0.26584530838E+02 -0.14704225184E+03  0.62410813040E+02  0.16193600801E+03  0.00000000000E+00 0.  1.
<mgrwt>
<rscale>  0 0.14484899E+04</rscale>
<asrwt>0</asrwt>
<pdfrwt beam="1">  1        2 0.14124285E+00 0.14484899E+04</pdfrwt>
<pdfrwt beam="2">  1       -1 0.87897749E-01 0.14484899E+04</pdfrwt>
<totfact> 0.40167715E+01</totfact>
</mgrwt>
</event>
<event>
12    6  0.1556619E-007  0.1600137E+04  0.7818608E-02  0.8820464E-01
         -1   -1    0    0    0  501 -0.00000000000E+00  0.00000000000E+00  0.27175535588E+03  0.27175535588E+03  0.00000000000E+00 0.  1.
          2   -1    0    0  501    0  0.00000000000E+00 -0.00000000000E+00 -0.23554619720E+04  0.23554619720E+04  0.00000000000E+00 0. -1.
         24    2    1    2    0    0 -0.62719574125E+01 -0.20865608689E+03  0.10676539778E+03  0.24775435121E+03  0.80041666250E+02 0.  0.
        254    2    1    2    0    0  0.62719574125E+01  0.20865608689E+03 -0.21904720139E+04  0.23794629767E+04  0.90559356981E+03 0.  0.
         23    2    4    4    0    0 -0.78001697400E+02  0.53336340066E+03 -0.10057022488E+04  0.11444337614E+04  0.87925190089E+02 0.  0.
         23    2    4    4    0    0  0.84273654812E+02 -0.32470731377E+03 -0.11847697652E+04  0.12350292153E+04  0.95293639661E+02 0.  0.
          4    1    3    3  502    0  0.89411589883E+01 -0.36065850089E+02  0.56008206559E+02  0.67213161424E+02  0.00000000000E+00 0. -1.
         -3    1    3    3    0  502 -0.15213116401E+02 -0.17259023680E+03  0.50757191218E+02  0.18054118979E+03  0.00000000000E+00 0.  1.
         11    1    5    5    0    0 -0.55537085393E+02  0.21415070459E+03 -0.48813364907E+03  0.53592849475E+03  0.00000000000E+00 0. -1.
        -11    1    5    5    0    0 -0.22464612007E+02  0.31921269607E+03 -0.51756859969E+03  0.60850526662E+03  0.00000000000E+00 0.  1.
          3    1    6    6  503    0  0.66039754402E+02 -0.31176813998E+03 -0.11526484242E+04  0.11958925588E+04  0.00000000000E+00 0.  1.
         -3    1    6    6    0  503  0.18233900410E+02 -0.12939173792E+02 -0.32121340947E+02  0.39136656562E+02  0.00000000000E+00 0. -1.
<mgrwt>
<rscale>  0 0.16001368E+04</rscale>
<asrwt>0</asrwt>
<pdfrwt beam="1">  1        2 0.36237876E+00 0.16001368E+04</pdfrwt>
<pdfrwt beam="2">  1       -1 0.41808517E-01 0.16001368E+04</pdfrwt>
<totfact> 0.25886400E+01</totfact>
</mgrwt>
</event>
<event>
12    6  0.1556619E-007  0.3209094E+04  0.7818608E-02  0.8186420E-01
          2   -1    0    0  501    0  0.00000000000E+00  0.00000000000E+00  0.19268610470E+04  0.19268610470E+04  0.00000000000E+00 0. -1.
         -1   -1    0    0    0  501 -0.00000000000E+00 -0.00000000000E+00 -0.13361476543E+04  0.13361476543E+04  0.00000000000E+00 0.  1.
         24    2    1    2    0    0  0.25547877173E+03 -0.57358631714E+03  0.16332262609E+04  0.17515694236E+04  0.79352129885E+02 0.  0.
        254    2    1    2    0    0 -0.25547877173E+03  0.57358631714E+03 -0.10425128682E+04  0.15114392776E+04  0.89629512068E+03 0.  0.
         23    2    4    4    0    0 -0.56900598067E+03  0.23588993840E+03 -0.54851551306E+03  0.82990080637E+03  0.91946784962E+02 0.  0.
         23    2    4    4    0    0  0.31352720894E+03  0.33769637874E+03 -0.49399735514E+03  0.68153847119E+03  0.90128496360E+02 0.  0.
          2    1    3    3  502    0  0.11550180181E+03 -0.23886621252E+03  0.58575989107E+03  0.64304928559E+03  0.00000000000E+00 0. -1.
         -1    1    3    3    0  502  0.13997696992E+03 -0.33472010461E+03  0.10474663698E+04  0.11085201381E+04  0.00000000000E+00 0.  1.
         11    1    5    5    0    0 -0.44286844403E+03  0.21647535410E+03 -0.40619903476E+03  0.63874227471E+03  0.00000000000E+00 0. -1.
        -11    1    5    5    0    0 -0.12613753664E+03  0.19414584301E+02 -0.14231647830E+03  0.19115853167E+03  0.00000000000E+00 0.  1.
          3    1    6    6  503    0  0.31820933655E+03  0.32212137808E+03 -0.48206729822E+03  0.66136846319E+03  0.00000000000E+00 0. -1.
         -3    1    6    6    0  503 -0.46821276081E+01  0.15575000661E+02 -0.11930056923E+02  0.20170008000E+02  0.00000000000E+00 0.  1.
<mgrwt>
<rscale>  0 0.32090939E+04</rscale>
<asrwt>0</asrwt>
<pdfrwt beam="1">  1        2 0.29644016E+00 0.32090939E+04</pdfrwt>
<pdfrwt beam="2">  1       -1 0.20556118E+00 0.32090939E+04</pdfrwt>
<totfact> 0.96803618E-01</totfact>
</mgrwt>
</event>
<event>
12    6  0.1556619E-007  0.2198897E+04  0.7818608E-02  0.8518887E-01
          2   -1    0    0  501    0  0.00000000000E+00  0.00000000000E+00  0.27194426085E+04  0.27194426085E+04  0.00000000000E+00 0. -1.
         -1   -1    0    0    0  501 -0.00000000000E+00 -0.00000000000E+00 -0.44449813364E+03  0.44449813364E+03  0.00000000000E+00 0.  1.
         24    2    1    2    0    0 -0.61584340226E+02 -0.17499448655E+03 -0.34027601523E+03  0.39590984536E+03  0.80877301058E+02 0.  0.
        254    2    1    2    0    0  0.61584340226E+02  0.17499448655E+03  0.26152204901E+04  0.27680308967E+04  0.88780692295E+03 0.  0.
         23    2    4    4    0    0  0.39922621741E+03  0.30280083781E+03  0.18210662664E+04  0.18909261876E+04  0.90827200381E+02 0.  0.
         23    2    4    4    0    0 -0.33764187718E+03 -0.12780635125E+03  0.79415422370E+03  0.87710470917E+03  0.91078203693E+02 0.  0.
          2    1    3    3  502    0 -0.10059874910E+02 -0.47485800311E+02 -0.31426004682E+02  0.57824701336E+02  0.00000000000E+00 0. -1.
         -1    1    3    3    0  502 -0.51524465316E+02 -0.12750868624E+03 -0.30885001055E+03  0.33808514402E+03  0.00000000000E+00 0.  1.
         11    1    5    5    0    0  0.30244647389E+01  0.24047843882E+02  0.69600837126E+02  0.73700221919E+02  0.00000000000E+00 0. -1.
        -11    1    5    5    0    0  0.39620175267E+03  0.27875299392E+03  0.17514654292E+04  0.18172259657E+04  0.00000000000E+00 0.  1.
          4    1    6    6  503    0 -0.94346630322E+02 -0.36267803513E+02  0.32980999740E+03  0.34495111916E+03  0.00000000000E+00 0. -1.
         -4    1    6    6    0  503 -0.24329524686E+03 -0.91538547742E+02  0.46434422630E+03  0.53215359001E+03  0.00000000000E+00 0.  1.
<mgrwt>
<rscale>  0 0.21988971E+04</rscale>
<asrwt>0</asrwt>
<pdfrwt beam="1">  1        2 0.41837578E+00 0.21988971E+04</pdfrwt>
<pdfrwt beam="2">  1       -1 0.68384330E-01 0.21988971E+04</pdfrwt>
<totfact> 0.58238560E+00</totfact>
</mgrwt>
</event>
<event>
12    6  0.1556619E-007  0.1284227E+04  0.7818608E-02  0.9042168E-01
          2   -1    0    0  501    0  0.00000000000E+00  0.00000000000E+00  0.53438605436E+03  0.53438605436E+03  0.00000000000E+00 0. -1.
         -1   -1    0    0    0  501 -0.00000000000E+00 -0.00000000000E+00 -0.77155767398E+03  0.77155767398E+03  0.00000000000E+00 0.  1.
         24    2    1    2    0    0  0.40662076060E+01 -0.30865589988E+01  0.27273790422E+03  0.28419543584E+03  0.79718382222E+02 0.  0.
        254    2    1    2    0    0 -0.40662076060E+01  0.30865589988E+01 -0.50990952383E+03  0.10217482925E+04  0.88540148511E+03 0.  0.
         23    2    4    4    0    0 -0.16559293993E+03  0.40142632413E+03 -0.22365776103E+03  0.49723262885E+03  0.93023532834E+02 0.  0.
         23    2    4    4    0    0  0.16152673233E+03 -0.39833976513E+03 -0.28625176280E+03  0.52451566366E+03  0.91712354520E+02 0.  0.
          4    1    3    3  502    0 -0.15945120525E+02 -0.27081381305E+02  0.22472322272E+03  0.22691005908E+03  0.00000000000E+00 0. -1.
         -3    1    3    3    0  502  0.20011328131E+02  0.23994822306E+02  0.48014681493E+02  0.57285376754E+02  0.00000000000E+00 0.  1.
         11    1    5    5    0    0 -0.21479063120E+02  0.16850931910E+03 -0.94867427760E+02  0.19456764794E+03  0.00000000000E+00 0.  1.
        -11    1    5    5    0    0 -0.14411387681E+03  0.23291700503E+03 -0.12879033327E+03  0.30266498090E+03  0.00000000000E+00 0. -1.
          2    1    6    6  503    0  0.37055980730E+02 -0.16509919599E+03 -0.70612662055E+02  0.18334949759E+03  0.00000000000E+00 0.  1.
         -2    1    6    6    0  503  0.12447075160E+03 -0.23324056914E+03 -0.21563910075E+03  0.34116616607E+03  0.00000000000E+00 0. -1.
<mgrwt>
<rscale>  0 0.12842269E+04</rscale>
<asrwt>0</asrwt>
<pdfrwt beam="1">  1        2 0.82213239E-01 0.12842269E+04</pdfrwt>
<pdfrwt beam="2">  1       -1 0.11870118E+00 0.12842269E+04</pdfrwt>
<totfact> 0.40643899E+01</totfact>
</mgrwt>
</event>
<event>
12    6  0.1556619E-007  0.2992758E+04  0.7818608E-02  0.8245802E-01
          2   -1    0    0  501    0  0.00000000000E+00  0.00000000000E+00  0.32181078845E+04  0.32181078845E+04  0.00000000000E+00 0. -1.
         -1   -1    0    0    0  501 -0.00000000000E+00 -0.00000000000E+00 -0.69579726496E+03  0.69579726496E+03  0.00000000000E+00 0.  1.
         24    2    1    2    0    0  0.10276558546E+04 -0.89161478651E+03  0.11318270179E+04  0.17716076741E+04  0.80671366863E+02 0.  0.
        254    2    1    2    0    0 -0.10276558546E+04  0.89161478651E+03  0.13904836016E+04  0.21422974753E+04  0.89718467638E+03 0.  0.
         23    2    4    4    0    0 -0.10363088284E+04  0.48340667098E+03  0.72805402472E+03  0.13586567876E+04  0.90926378859E+02 0.  0.
         23    2    4    4    0    0  0.86529738016E+01  0.40820811553E+03  0.66242957688E+03  0.78364068769E+03  0.92579930531E+02 0.  0.
          4    1    3    3  502    0  0.98331341698E+03 -0.83892020986E+03  0.10551454544E+04  0.16685395784E+04  0.00000000000E+00 0. -1.
         -3    1    3    3    0  502  0.44342437599E+02 -0.52694576648E+02  0.76681563463E+02  0.10306809572E+03  0.00000000000E+00 0.  1.
         11    1    5    5    0    0 -0.10285245580E+04  0.47323369216E+03  0.72765017977E+03  0.13458408813E+04  0.00000000000E+00 0. -1.
        -11    1    5    5    0    0 -0.77842703978E+01  0.10172978819E+02  0.40384495468E+00  0.12815906305E+02  0.00000000000E+00 0.  1.
          1    1    6    6  503    0 -0.18993545043E+02  0.35320978705E+03  0.52485054708E+03  0.63291864026E+03  0.00000000000E+00 0. -1.
         -1    1    6    6    0  503  0.27646518845E+02  0.54998328479E+02  0.13757902980E+03  0.15072204743E+03  0.00000000000E+00 0.  1.
<mgrwt>
<rscale>  0 0.29927584E+04</rscale>
<asrwt>0</asrwt>
<pdfrwt beam="1">  1        2 0.49509351E+00 0.29927584E+04</pdfrwt>
<pdfrwt beam="2">  1       -1 0.10704573E+00 0.29927584E+04</pdfrwt>
<totfact> 0.99852565E-01</totfact>
</mgrwt>
</event>
<event>
12    6  0.1556619E-007  0.2370994E+04  0.7818608E-02  0.8450443E-01
         -1   -1    0    0    0  501 -0.00000000000E+00  0.00000000000E+00  0.19622025051E+04  0.19622025051E+04  0.00000000000E+00 0.  1.
          2   -1    0    0  501    0  0.00000000000E+00 -0.00000000000E+00 -0.71623755738E+03  0.71623755738E+03  0.00000000000E+00 0. -1.
         24    2    1    2    0    0 -0.29515289695E+03 -0.66151893044E+03  0.13594566308E+04  0.15422851812E+04  0.76149334015E+02 0.  0.
        254    2    1    2    0    0  0.29515289695E+03  0.66151893044E+03 -0.11349168313E+03  0.11361548813E+04  0.86789689722E+03 0.  0.
         23    2    4    4    0    0  0.17902196680E+03  0.85856413666E+03 -0.11739245936E+03  0.88952846296E+03  0.91096956815E+02 0.  0.
         23    2    4    4    0    0  0.11613093015E+03 -0.19704520622E+03  0.39007762231E+01  0.24662641832E+03  0.92174659892E+02 0.  0.
          2    1    3    3  502    0 -0.86361292593E+02 -0.26026537057E+03  0.56681520311E+03  0.62966325163E+03  0.00000000000E+00 0. -1.
         -1    1    3    3    0  502 -0.20879160435E+03 -0.40125355987E+03  0.79264142773E+03  0.91262192956E+03  0.00000000000E+00 0.  1.
         11    1    5    5    0    0  0.80438323853E+02  0.19567972595E+03 -0.26817012551E+02  0.21326047748E+03  0.00000000000E+00 0. -1.
        -11    1    5    5    0    0  0.98583642945E+02  0.66288441071E+03 -0.90575446806E+02  0.67626798548E+03  0.00000000000E+00 0.  1.
          4    1    6    6  503    0  0.37594266854E+01 -0.59809162945E+02  0.30546639667E+02  0.67263410976E+02  0.00000000000E+00 0. -1.
         -4    1    6    6    0  503  0.11237150346E+03 -0.13723604328E+03 -0.26645863444E+02  0.17936300735E+03  0.00000000000E+00 0.  1.
<mgrwt>
<rscale>  0 0.23709940E+04</rscale>
<asrwt>0</asrwt>
<pdfrwt beam="1">  1        2 0.11019039E+00 0.23709940E+04</pdfrwt>
<pdfrwt beam="2">  1       -1 0.30187731E+00 0.23709940E+04</pdfrwt>
<totfact> 0.13144412E+00</totfact>
</mgrwt>
</event>
<event>
12    6  0.1556619E-007  0.1575259E+04  0.7818608E-02  0.8835893E-01
          2   -1    0    0  501    0  0.00000000000E+00  0.00000000000E+00  0.77078955180E+03  0.77078955180E+03  0.00000000000E+00 0. -1.
         -1   -1    0    0    0  501 -0.00000000000E+00 -0.00000000000E+00 -0.80483741997E+03  0.80483741997E+03  0.00000000000E+00 0.  1.
         24    2    1    2    0    0  0.26189843887E+03 -0.36342108169E+03 -0.28762997132E+03  0.53826119159E+03  0.79551461795E+02 0.  0.
        254    2    1    2    0    0 -0.26189843887E+03  0.36342108169E+03  0.25358210315E+03  0.10373657802E+04  0.90064321678E+03 0.  0.
         23    2    4    4    0    0 -0.93570148088E+01 -0.17637004099E+03 -0.20087348992E+03  0.28236885136E+03  0.90487922866E+02 0.  0.
         23    2    4    4    0    0 -0.25254142406E+03  0.53979112268E+03  0.45445559307E+03  0.75499692881E+03  0.91317300909E+02 0.  0.
          4    1    3    3  502    0  0.84349632806E+02 -0.93408767251E+02 -0.12136303715E+03  0.17484005588E+03  0.00000000000E+00 0. -1.
         -3    1    3    3    0  502  0.17754880606E+03 -0.27001231444E+03 -0.16626693417E+03  0.36342113571E+03  0.00000000000E+00 0.  1.
         11    1    5    5    0    0  0.25034688271E+02 -0.35635066621E+02 -0.89836249271E+02  0.99835591214E+02  0.00000000000E+00 0. -1.
        -11    1    5    5    0    0 -0.34391703080E+02 -0.14073497436E+03 -0.11103724065E+03  0.18253326015E+03  0.00000000000E+00 0.  1.
          4    1    6    6  503    0 -0.44912970666E+02  0.41738473541E+02  0.66223698247E+02  0.90248841085E+02  0.00000000000E+00 0. -1.
         -4    1    6    6    0  503 -0.20762845339E+03  0.49805264914E+03  0.38823189482E+03  0.66474808772E+03  0.00000000000E+00 0.  1.
<mgrwt>
<rscale>  0 0.15752591E+04</rscale>
<asrwt>0</asrwt>
<pdfrwt beam="1">  1        2 0.11858301E+00 0.15752591E+04</pdfrwt>
<pdfrwt beam="2">  1       -1 0.12382114E+00 0.15752591E+04</pdfrwt>
<totfact> 0.22748801E+01</totfact>
</mgrwt>
</event>
<event>
12    6  0.2242106E-007  0.2882904E+04  0.7818608E-02  0.8277982E-01
          2   -1    0    0  501    0  0.00000000000E+00  0.00000000000E+00  0.14890086281E+04  0.14890086281E+04  0.00000000000E+00 0. -1.
         -1   -1    0    0    0  501 -0.00000000000E+00 -0.00000000000E+00 -0.13954138535E+04  0.13954138535E+04  0.00000000000E+00 0.  1.
         24    2    1    2    0    0  0.43607965304E+03  0.97392543138E+03 -0.69599234061E+03  0.12768082514E+04  0.84485282934E+02 0.  0.
        254    2    1    2    0    0 -0.43607965304E+03 -0.97392543138E+03  0.78958711516E+03  0.16076142302E+04  0.90679627865E+03 0.  0.
         23    2    4    4    0    0 -0.25808263440E+03 -0.10847909709E+04  0.46874983175E+03  0.12133474037E+04  0.95432806352E+02 0.  0.
         23    2    4    4    0    0 -0.17799701864E+03  0.11086553957E+03  0.32083728341E+03  0.39426682646E+03  0.92388643825E+02 0.  0.
          2    1    3    3  502    0  0.45079636088E+02  0.52301123725E+02 -0.51874794605E+02  0.86363044458E+02  0.00000000000E+00 0. -1.
         -3    1    3    3    0  502  0.39100001695E+03  0.92162430765E+03 -0.64411754600E+03  0.11904452070E+04  0.00000000000E+00 0.  1.
         11    1    5    5    0    0 -0.31692447424E+02 -0.45325844694E+02  0.23981417628E+02  0.60282267811E+02  0.00000000000E+00 0. -1.
        -11    1    5    5    0    0 -0.22639018697E+03 -0.10394651263E+04  0.44476841412E+03  0.11530651359E+04  0.00000000000E+00 0.  1.
          3    1    6    6  503    0 -0.42891799304E+01 -0.11117985938E+02  0.43037765573E+02  0.44657092844E+02  0.00000000000E+00 0. -1.
         -3    1    6    6    0  503 -0.17370783871E+03  0.12198352551E+03  0.27779951784E+03  0.34960973361E+03  0.00000000000E+00 0.  1.
<mgrwt>
<rscale>  0 0.28829036E+04</rscale>
<asrwt>0</asrwt>
<pdfrwt beam="1">  1        2 0.22907825E+00 0.28829036E+04</pdfrwt>
<pdfrwt beam="2">  1       -1 0.21467905E+00 0.28829036E+04</pdfrwt>
<totfact> 0.15145826E+00</totfact>
</mgrwt>
</event>
<event>
12    6  0.1556619E-007  0.1835864E+04  0.7818608E-02  0.8687456E-01
          2   -1    0    0  501    0  0.00000000000E+00  0.00000000000E+00  0.14185374107E+04  0.14185374107E+04  0.00000000000E+00 0. -1.
         -1   -1    0    0    0  501 -0.00000000000E+00 -0.00000000000E+00 -0.59399170208E+03  0.59399170208E+03  0.00000000000E+00 0.  1.
         24    2    1    2    0    0 -0.28087140769E+03  0.40349411752E+03 -0.22592874800E+03  0.54702271886E+03  0.80584150102E+02 0.  0.
        254    2    1    2    0    0  0.28087140769E+03 -0.40349411752E+03  0.10504744566E+04  0.14655063939E+04  0.89583266075E+03 0.  0.
         23    2    4    4    0    0  0.34419074998E+03 -0.24120706050E+03  0.11610905485E+04  0.12383115224E+04  0.92930330483E+02 0.  0.
         23    2    4    4    0    0 -0.63319342293E+02 -0.16228705702E+03 -0.11061609186E+03  0.22719487152E+03  0.95053468551E+02 0.  0.
          4    1    3    3  502    0 -0.14058745711E+03  0.19588623522E+03 -0.66781307679E+02  0.25019191294E+03  0.00000000000E+00 0. -1.
         -3    1    3    3    0  502 -0.14028395058E+03  0.20760788230E+03 -0.15914744033E+03  0.29683080592E+03  0.00000000000E+00 0.  1.
         11    1    5    5    0    0  0.24699424136E+03 -0.12310772701E+03  0.69606911329E+03  0.74878159579E+03  0.00000000000E+00 0. -1.
        -11    1    5    5    0    0  0.97196508620E+02 -0.11809933350E+03  0.46502143519E+03  0.48952992661E+03  0.00000000000E+00 0.  1.
          2    1    6    6  503    0 -0.82101683790E+02 -0.15270430234E+03 -0.82374521411E+02  0.19195012949E+03  0.00000000000E+00 0. -1.
         -2    1    6    6    0  503  0.18782341496E+02 -0.95827546746E+01 -0.28241570446E+02  0.35244742026E+02  0.00000000000E+00 0.  1.
<mgrwt>
<rscale>  0 0.18358643E+04</rscale>
<asrwt>0</asrwt>
<pdfrwt beam="1">  1        2 0.21823652E+00 0.18358643E+04</pdfrwt>
<pdfrwt beam="2">  1       -1 0.91383339E-01 0.18358643E+04</pdfrwt>
<totfact> 0.17692502E+01</totfact>
</mgrwt>
</event>
<event>
12    6  0.1556619E-007  0.1580819E+04  0.7818608E-02  0.8832419E-01
          2   -1    0    0  501    0  0.00000000000E+00  0.00000000000E+00  0.84590746081E+03  0.84590746081E+03  0.00000000000E+00 0. -1.
         -1   -1    0    0    0  501 -0.00000000000E+00 -0.00000000000E+00 -0.73855241030E+03  0.73855241030E+03  0.00000000000E+00 0.  1.
         24    2    1    2    0    0 -0.30222601907E+02 -0.47481039197E+02 -0.50485078742E+03  0.51522710217E+03  0.86120813412E+02 0.  0.
        254    2    1    2    0    0  0.30222601907E+02  0.47481039197E+02  0.61220583792E+03  0.10692327689E+04  0.87481133478E+03 0.  0.
         23    2    4    4    0    0  0.48229160223E+02 -0.16544439746E+03 -0.16663520549E+03  0.25657173048E+03  0.91454144919E+02 0.  0.
         23    2    4    4    0    0 -0.18006558316E+02  0.21292543666E+03  0.77884104342E+03  0.81266103847E+03  0.90349957481E+02 0.  0.
          2    1    3    3  502    0 -0.22596851237E+02  0.87605469759E+01 -0.38897554100E+02  0.45829952914E+02  0.00000000000E+00 0. -1.
         -3    1    3    3    0  502 -0.76257506704E+01 -0.56241586173E+02 -0.46595323332E+03  0.46939714925E+03  0.00000000000E+00 0.  1.
         11    1    5    5    0    0  0.12311486467E+01  0.32651163729E+01  0.83197022535E+01  0.90218710646E+01  0.00000000000E+00 0. -1.
        -11    1    5    5    0    0  0.46998011576E+02 -0.16870951383E+03 -0.17495490775E+03  0.24754985941E+03  0.00000000000E+00 0.  1.
          4    1    6    6  503    0 -0.50357573194E+02  0.75215194705E+02  0.29801579852E+03  0.31145886865E+03  0.00000000000E+00 0. -1.
         -4    1    6    6    0  503  0.32351014879E+02  0.13771024195E+03  0.48082524490E+03  0.50120216983E+03  0.00000000000E+00 0.  1.
<mgrwt>
<rscale>  0 0.15808188E+04</rscale>
<asrwt>0</asrwt>
<pdfrwt beam="1">  1        2 0.13013961E+00 0.15808188E+04</pdfrwt>
<pdfrwt beam="2">  1       -1 0.11362345E+00 0.15808188E+04</pdfrwt>
<totfact> 0.24750758E+01</totfact>
</mgrwt>
</event>
<event>
12    6  0.1556619E-007  0.2221820E+04  0.7818608E-02  0.8509401E-01
         -1   -1    0    0    0  501 -0.00000000000E+00  0.00000000000E+00  0.25739714809E+03  0.25739714809E+03  0.00000000000E+00 0.  1.
          2   -1    0    0  501    0  0.00000000000E+00 -0.00000000000E+00 -0.47946168737E+04  0.47946168737E+04  0.00000000000E+00 0. -1.
         24    2    1    2    0    0  0.79515205752E+03  0.22769155299E+02 -0.84535542788E+03  0.11635248689E+04  0.79869218758E+02 0.  0.
        254    2    1    2    0    0 -0.79515205752E+03 -0.22769155299E+02 -0.36918642978E+04  0.38884891529E+04  0.92612130430E+03 0.  0.
         23    2    4    4    0    0 -0.40865827882E+01 -0.14038786270E+03 -0.20784794068E+04  0.20855190567E+04  0.97916489205E+02 0.  0.
         23    2    4    4    0    0 -0.79106547473E+03  0.11761870740E+03 -0.16133848909E+04  0.18029700963E+04  0.89842173484E+02 0.  0.
          4    1    3    3  502    0  0.36315024644E+03 -0.16682446096E+02 -0.34320746302E+03  0.49994776544E+03  0.00000000000E+00 0. -1.
         -3    1    3    3    0  502  0.43200181107E+03  0.39451601395E+02 -0.50214796486E+03  0.66357710346E+03  0.00000000000E+00 0.  1.
         11    1    5    5    0    0  0.14090472385E+02 -0.11726410811E+03 -0.10504339497E+04  0.10570529292E+04  0.00000000000E+00 0.  1.
        -11    1    5    5    0    0 -0.18177055173E+02 -0.23123754594E+02 -0.10280454571E+04  0.10284661274E+04  0.00000000000E+00 0. -1.
          3    1    6    6  503    0 -0.36580721372E+03  0.10845374435E+02 -0.76115717126E+03  0.84456662208E+03  0.00000000000E+00 0. -1.
         -3    1    6    6    0  503 -0.42525826101E+03  0.10677333297E+03 -0.85222771967E+03  0.95840347420E+03  0.00000000000E+00 0.  1.
<mgrwt>
<rscale>  0 0.22218197E+04</rscale>
<asrwt>0</asrwt>
<pdfrwt beam="1">  1        2 0.73763336E+00 0.22218197E+04</pdfrwt>
<pdfrwt beam="2">  1       -1 0.39599562E-01 0.22218197E+04</pdfrwt>
<totfact> 0.39450894E-01</totfact>
</mgrwt>
</event>
<event>
12    6  0.1556619E-007  0.4167295E+04  0.7818608E-02  0.7971623E-01
         -1   -1    0    0    0  501 -0.00000000000E+00  0.00000000000E+00  0.15151345756E+04  0.15151345756E+04  0.00000000000E+00 0.  1.
          2   -1    0    0  501    0  0.00000000000E+00 -0.00000000000E+00 -0.28654800419E+04  0.28654800419E+04  0.00000000000E+00 0. -1.
         24    2    1    2    0    0 -0.12186632434E+04 -0.76916307006E+03  0.79372354194E+03  0.16471322893E+04  0.79346003077E+02 0.  0.
        254    2    1    2    0    0  0.12186632434E+04  0.76916307006E+03 -0.21440690082E+04  0.27334823283E+04  0.89338782039E+03 0.  0.
         23    2    4    4    0    0  0.48164455301E+03 -0.73050733634E+02 -0.10718588004E+04  0.11809496117E+04  0.91884776915E+02 0.  0.
         23    2    4    4    0    0  0.73701869044E+03  0.84221380369E+03 -0.10722102078E+04  0.15525327166E+04  0.90567461469E+02 0.  0.
          2    1    3    3  502    0 -0.99077024559E+02 -0.68443916057E+02  0.42787883319E+02  0.12779526360E+03  0.00000000000E+00 0. -1.
         -1    1    3    3    0  502 -0.11195862189E+04 -0.70071915400E+03  0.75093565862E+03  0.15193370257E+04  0.00000000000E+00 0.  1.
         11    1    5    5    0    0  0.31432585751E+03 -0.13709551606E+02 -0.75121084702E+03  0.81443626711E+03  0.00000000000E+00 0. -1.
        -11    1    5    5    0    0  0.16731869550E+03 -0.59341182029E+02 -0.32064795338E+03  0.36651334458E+03  0.00000000000E+00 0.  1.
          2    1    6    6  503    0  0.46269020140E+03  0.58608834534E+03 -0.68571633264E+03  0.10137991220E+04  0.00000000000E+00 0. -1.
         -2    1    6    6    0  503  0.27432848904E+03  0.25612545836E+03 -0.38649387520E+03  0.53873359453E+03  0.00000000000E+00 0.  1.
<mgrwt>
<rscale>  0 0.41672955E+04</rscale>
<asrwt>0</asrwt>
<pdfrwt beam="1">  1        2 0.44084308E+00 0.41672955E+04</pdfrwt>
<pdfrwt beam="2">  1       -1 0.23309763E+00 0.41672955E+04</pdfrwt>
<totfact> 0.16787653E-01</totfact>
</mgrwt>
</event>
<event>
12    6  0.1556619E-007  0.1183902E+04  0.7818608E-02  0.9127065E-01
          2   -1    0    0  501    0  0.00000000000E+00  0.00000000000E+00  0.16034047834E+04  0.16034047834E+04  0.00000000000E+00 0. -1.
         -1   -1    0    0    0  501 -0.00000000000E+00 -0.00000000000E+00 -0.21853858778E+03  0.21853858778E+03  0.00000000000E+00 0.  1.
         24    2    1    2    0    0 -0.21817905796E+03  0.34514531561E+02  0.19064766906E+03  0.30185183893E+03  0.77295826076E+02 0.  0.
        254    2    1    2    0    0  0.21817905796E+03 -0.34514531561E+02  0.11942185266E+04  0.15200915323E+04  0.91418106686E+03 0.  0.
         23    2    4    4    0    0  0.45665662839E+03  0.11937684506E+03  0.11103101632E+04  0.12096995131E+04  0.88307111636E+02 0.  0.
         23    2    4    4    0    0 -0.23847757043E+03 -0.15389137662E+03  0.83908363353E+02  0.31039201920E+03  0.93533334932E+02 0.  0.
          2    1    3    3  502    0 -0.10087674935E+03 -0.11292782062E+02  0.50287319376E+02  0.11328044834E+03  0.00000000000E+00 0. -1.
         -1    1    3    3    0  502 -0.11730230860E+03  0.45807313623E+02  0.14036034969E+03  0.18857139059E+03  0.00000000000E+00 0.  1.
         11    1    5    5    0    0  0.43530975885E+03  0.12743908092E+03  0.10827577127E+04  0.11739248570E+04  0.00000000000E+00 0. -1.
        -11    1    5    5    0    0  0.21346869542E+02 -0.80622358608E+01  0.27552450545E+02  0.35774656076E+02  0.00000000000E+00 0.  1.
          2    1    6    6  503    0 -0.12324271499E+03 -0.28180200758E+02  0.18625944689E+02  0.12778816975E+03  0.00000000000E+00 0. -1.
         -2    1    6    6    0  503 -0.11523485544E+03 -0.12571117586E+03  0.65282418664E+02  0.18260384944E+03  0.00000000000E+00 0.  1.
<mgrwt>
<rscale>  0 0.11839017E+04</rscale>
<asrwt>0</asrwt>
<pdfrwt beam="1">  1        2 0.24667765E+00 0.11839017E+04</pdfrwt>
<pdfrwt beam="2">  1       -1 0.33621322E-01 0.11839017E+04</pdfrwt>
<totfact> 0.10415548E+02</totfact>
</mgrwt>
</event>
<event>
12    6  0.1556619E-007  0.1173701E+04  0.7818608E-02  0.9136192E-01
          2   -1    0    0  501    0  0.00000000000E+00  0.00000000000E+00  0.39674783259E+03  0.39674783259E+03  0.00000000000E+00 0. -1.
         -1   -1    0    0    0  501 -0.00000000000E+00 -0.00000000000E+00 -0.86804157580E+03  0.86804157580E+03  0.00000000000E+00 0.  1.
         24    2    1    2    0    0  0.13885234928E+02 -0.16852567487E+03 -0.28786407779E+03  0.34359191600E+03  0.81215605728E+02 0.  0.
        254    2    1    2    0    0 -0.13885234928E+02  0.16852567487E+03 -0.18342966542E+03  0.92119749240E+03  0.88677205358E+03 0.  0.
         23    2    4    4    0    0 -0.17785368559E+02 -0.23426341218E+03 -0.38587375810E+03  0.46103098380E+03  0.91952951098E+02 0.  0.
         23    2    4    4    0    0  0.39001336310E+01  0.40278908705E+03  0.20244409268E+03  0.46016650860E+03  0.92278628529E+02 0.  0.
          4    1    3    3  502    0 -0.13878927046E+02 -0.28761429549E+02 -0.13988540687E+02  0.34864361693E+02  0.00000000000E+00 0. -1.
         -3    1    3    3    0  502  0.27764161975E+02 -0.13976424532E+03 -0.27387553711E+03  0.30872755430E+03  0.00000000000E+00 0.  1.
         11    1    5    5    0    0 -0.50104633577E+02 -0.18780569253E+03 -0.31750213515E+03  0.37227551394E+03  0.00000000000E+00 0.  1.
        -11    1    5    5    0    0  0.32319265017E+02 -0.46457719650E+02 -0.68371622949E+02  0.88755469866E+02  0.00000000000E+00 0. -1.
          2    1    6    6  503    0 -0.36297391422E+02  0.84472110019E+02  0.36204982375E+02  0.98812138647E+02  0.00000000000E+00 0. -1.
         -2    1    6    6    0  503  0.40197525053E+02  0.31831697703E+03  0.16623911031E+03  0.36135436995E+03  0.00000000000E+00 0.  1.
<mgrwt>
<rscale>  0 0.11737012E+04</rscale>
<asrwt>0</asrwt>
<pdfrwt beam="1">  1        2 0.61038128E-01 0.11737012E+04</pdfrwt>
<pdfrwt beam="2">  1       -1 0.13354486E+00 0.11737012E+04</pdfrwt>
<totfact> 0.43012431E+01</totfact>
</mgrwt>
</event>
<event>
12    6  0.1556619E-007  0.1186034E+04  0.7818608E-02  0.9125170E-01
          2   -1    0    0  501    0  0.00000000000E+00  0.00000000000E+00  0.25516664711E+03  0.25516664711E+03  0.00000000000E+00 0. -1.
         -1   -1    0    0    0  501 -0.00000000000E+00 -0.00000000000E+00 -0.13781937407E+04  0.13781937407E+04  0.00000000000E+00 0.  1.
         24    2    1    2    0    0  0.15734501309E+03 -0.13013684007E+03 -0.71021766922E+02  0.23385256973E+03  0.89162114737E+02 0.  0.
        254    2    1    2    0    0 -0.15734501309E+03  0.13013684007E+03 -0.10520053266E+04  0.13995078180E+04  0.90011881171E+03 0.  0.
         23    2    4    4    0    0 -0.19446357955E+03 -0.27770059155E+03 -0.11079998227E+03  0.36894352581E+03  0.94387429493E+02 0.  0.
         23    2    4    4    0    0  0.37118566458E+02  0.40783743162E+03 -0.94120534437E+03  0.10305642922E+04  0.92120038769E+02 0.  0.
          2    1    3    3  502    0  0.15148095488E+03 -0.81874344218E+02 -0.42028680468E+02  0.17724643273E+03  0.00000000000E+00 0. -1.
         -1    1    3    3    0  502  0.58640582135E+01 -0.48262495847E+02 -0.28993086454E+02  0.56606137001E+02  0.00000000000E+00 0.  1.
         11    1    5    5    0    0 -0.23022196299E+02 -0.69536234068E+02 -0.59642578009E+02  0.94459231854E+02  0.00000000000E+00 0. -1.
        -11    1    5    5    0    0 -0.17144138325E+03 -0.20816435749E+03 -0.51157404259E+02  0.27448429396E+03  0.00000000000E+00 0.  1.
          3    1    6    6  503    0  0.39789643318E+02  0.22743242605E+03 -0.42394656473E+03  0.48274156013E+03  0.00000000000E+00 0. -1.
         -3    1    6    6    0  503 -0.26710768595E+01  0.18040500557E+03 -0.51725877965E+03  0.54782273211E+03  0.00000000000E+00 0.  1.
<mgrwt>
<rscale>  0 0.11860339E+04</rscale>
<asrwt>0</asrwt>
<pdfrwt beam="1">  1        2 0.39256408E-01 0.11860339E+04</pdfrwt>
<pdfrwt beam="2">  1       -1 0.21202980E+00 0.11860339E+04</pdfrwt>
<totfact> 0.18564349E+01</totfact>
</mgrwt>
</event>
<event>
12    6  0.1556619E-007  0.3056424E+04  0.7818608E-02  0.8227800E-01
         -1   -1    0    0    0  501 -0.00000000000E+00  0.00000000000E+00  0.10773820478E+04  0.10773820478E+04  0.00000000000E+00 0.  1.
          2   -1    0    0  501    0  0.00000000000E+00 -0.00000000000E+00 -0.21676916046E+04  0.21676916046E+04  0.00000000000E+00 0. -1.
         24    2    1    2    0    0 -0.11244216320E+04  0.65971177270E+03  0.25223744933E+02  0.13063481088E+04  0.79784174348E+02 0.  0.
        254    2    1    2    0    0  0.11244216320E+04 -0.65971177270E+03 -0.11155333017E+04  0.19387255437E+04  0.90260653497E+03 0.  0.
         23    2    4    4    0    0  0.25682019679E+03 -0.39802653095E+03 -0.87194119273E+03  0.99653268825E+03  0.91729070384E+02 0.  0.
         23    2    4    4    0    0  0.86760143518E+03 -0.26168524175E+03 -0.24359210900E+03  0.94219285543E+03  0.84728066090E+02 0.  0.
          2    1    3    3  502    0 -0.37795703280E+03  0.19324075793E+03 -0.19942302296E+02  0.42496023884E+03  0.00000000000E+00 0. -1.
         -1    1    3    3    0  502 -0.74646459916E+03  0.46647101477E+03  0.45166047230E+02  0.88138786992E+03  0.00000000000E+00 0.  1.
         11    1    5    5    0    0  0.19749866108E+02 -0.97742304769E+02 -0.19163212011E+03  0.21602426903E+03  0.00000000000E+00 0. -1.
        -11    1    5    5    0    0  0.23707033068E+03 -0.30028422618E+03 -0.68030907262E+03  0.78050841921E+03  0.00000000000E+00 0.  1.
          2    1    6    6  503    0  0.38446275871E+03 -0.10408628368E+03 -0.14906288523E+03  0.42528262489E+03  0.00000000000E+00 0. -1.
         -2    1    6    6    0  503  0.48313867647E+03 -0.15759895807E+03 -0.94529223769E+02  0.51691023053E+03  0.00000000000E+00 0.  1.
<mgrwt>
<rscale>  0 0.30564241E+04</rscale>
<asrwt>0</asrwt>
<pdfrwt beam="1">  1        2 0.33349101E+00 0.30564241E+04</pdfrwt>
<pdfrwt beam="2">  1       -1 0.16575109E+00 0.30564241E+04</pdfrwt>
<totfact> 0.13801119E+00</totfact>
</mgrwt>
</event>
<event>
12    6  0.1556619E-007  0.2370388E+04  0.7818608E-02  0.8450674E-01
         -1   -1    0    0    0  501 -0.00000000000E+00  0.00000000000E+00  0.11722515137E+04  0.11722515137E+04  0.00000000000E+00 0.  1.
          2   -1    0    0  501    0  0.00000000000E+00 -0.00000000000E+00 -0.11982795908E+04  0.11982795908E+04  0.00000000000E+00 0. -1.
         24    2    1    2    0    0 -0.21082549638E+03 -0.58020708262E+03 -0.81142433529E+03  0.10227203545E+04  0.80373023378E+02 0.  0.
        254    2    1    2    0    0  0.21082549638E+03  0.58020708262E+03  0.78539625819E+03  0.13478107500E+04  0.90479770491E+03 0.  0.
         23    2    4    4    0    0  0.15601241178E+03  0.40301527409E+02  0.77549189272E+03  0.79723714120E+03  0.90748542034E+02 0.  0.
         23    2    4    4    0    0  0.54813084595E+02  0.53990555521E+03  0.99043654702E+01  0.55057360881E+03  0.92361894079E+02 0.  0.
          2    1    3    3  502    0 -0.11915651971E+03 -0.38307061139E+03 -0.46976030890E+03  0.61775085376E+03  0.00000000000E+00 0. -1.
         -1    1    3    3    0  502 -0.91668976667E+02 -0.19713647123E+03 -0.34166402639E+03  0.40496950071E+03  0.00000000000E+00 0.  1.
         11    1    5    5    0    0  0.56452737749E+02  0.56674755388E+02  0.42721254182E+03  0.43463719972E+03  0.00000000000E+00 0. -1.
        -11    1    5    5    0    0  0.99559674036E+02 -0.16373227979E+02  0.34827935090E+03  0.36259994147E+03  0.00000000000E+00 0.  1.
          1    1    6    6  503    0  0.69919549697E+02  0.27442921050E+03 -0.14380447825E+02  0.28356116146E+03  0.00000000000E+00 0. -1.
         -1    1    6    6    0  503 -0.15106465103E+02  0.26547634471E+03  0.24284813295E+02  0.26701244736E+03  0.00000000000E+00 0.  1.
<mgrwt>
<rscale>  0 0.23703882E+04</rscale>
<asrwt>0</asrwt>
<pdfrwt beam="1">  1        2 0.18435071E+00 0.23703882E+04</pdfrwt>
<pdfrwt beam="2">  1       -1 0.18034639E+00 0.23703882E+04</pdfrwt>
<totfact> 0.40365190E+00</totfact>
</mgrwt>
</event>
<event>
12    6  0.1556619E-007  0.1641464E+04  0.7818608E-02  0.8795472E-01
          2   -1    0    0  501    0  0.00000000000E+00  0.00000000000E+00  0.21307925746E+04  0.21307925746E+04  0.00000000000E+00 0. -1.
         -1   -1    0    0    0  501 -0.00000000000E+00 -0.00000000000E+00 -0.31612701453E+03  0.31612701453E+03  0.00000000000E+00 0.  1.
         24    2    1    2    0    0 -0.35146217303E+03  0.20961192523E+03  0.12292656928E+04  0.12981092075E+04  0.80811835595E+02 0.  0.
        254    2    1    2    0    0  0.35146217303E+03 -0.20961192523E+03  0.58539986723E+03  0.11488103816E+04  0.89978301277E+03 0.  0.
         23    2    4    4    0    0 -0.26398960580E+03 -0.70656916217E+02  0.38439616318E+03  0.48029468276E+03  0.90772574284E+02 0.  0.
         23    2    4    4    0    0  0.61545177883E+03 -0.13895500902E+03  0.20100370405E+03  0.66851569885E+03  0.91767989896E+02 0.  0.
          2    1    3    3  502    0 -0.24116703036E+03  0.17584038610E+03  0.95563749293E+03  0.10011615233E+04  0.00000000000E+00 0. -1.
         -1    1    3    3    0  502 -0.11029514268E+03  0.33771539132E+02  0.27362819987E+03  0.29694768414E+03  0.00000000000E+00 0.  1.
         11    1    5    5    0    0 -0.82273024829E+02 -0.52890115601E+01  0.57144553150E+02  0.10031113703E+03  0.00000000000E+00 0. -1.
        -11    1    5    5    0    0 -0.18171658097E+03 -0.65367904657E+02  0.32725161003E+03  0.37998354573E+03  0.00000000000E+00 0.  1.
          2    1    6    6  503    0  0.40477155683E+01  0.33992390281E+01  0.11696260610E+02  0.12835160285E+02  0.00000000000E+00 0. -1.
         -2    1    6    6    0  503  0.61140406326E+03 -0.14235424805E+03  0.18930744344E+03  0.65568053857E+03  0.00000000000E+00 0.  1.
<mgrwt>
<rscale>  0 0.16414641E+04</rscale>
<asrwt>0</asrwt>
<pdfrwt beam="1">  1        2 0.32781423E+00 0.16414641E+04</pdfrwt>
<pdfrwt beam="2">  1       -1 0.48634927E-01 0.16414641E+04</pdfrwt>
<totfact> 0.26023495E+01</totfact>
</mgrwt>
</event>
<event>
12    6  0.1556619E-007  0.1799268E+04  0.7818608E-02  0.8706689E-01
         -1   -1    0    0    0  501 -0.00000000000E+00  0.00000000000E+00  0.19930017697E+03  0.19930017697E+03  0.00000000000E+00 0.  1.
          2   -1    0    0  501    0  0.00000000000E+00 -0.00000000000E+00 -0.40609180834E+04  0.40609180834E+04  0.00000000000E+00 0. -1.
         24    2    1    2    0    0 -0.31583236636E+03 -0.43678875297E+03 -0.50569486375E+03  0.74323985715E+03  0.78381704937E+02 0.  0.
        254    2    1    2    0    0  0.31583236636E+03  0.43678875297E+03 -0.33559230427E+04  0.35169784032E+04  0.90353921993E+03 0.  0.
         23    2    4    4    0    0  0.24650846634E+03  0.66163584155E+03 -0.29815398295E+04  0.30653596494E+04  0.91222882950E+02 0.  0.
         23    2    4    4    0    0  0.69323900021E+02 -0.22484708858E+03 -0.37438321316E+03  0.45161875382E+03  0.91840580056E+02 0.  0.
          2    1    3    3  502    0 -0.59191378508E+02 -0.47795061800E+02 -0.97891710854E+02  0.12397892674E+03  0.00000000000E+00 0. -1.
         -1    1    3    3    0  502 -0.25664098786E+03 -0.38899369117E+03 -0.40780315289E+03  0.61926093041E+03  0.00000000000E+00 0.  1.
         11    1    5    5    0    0  0.24836027878E+03  0.63238947716E+03 -0.29052542292E+04  0.29836389553E+04  0.00000000000E+00 0.  1.
        -11    1    5    5    0    0 -0.18518124388E+01  0.29246364388E+02 -0.76285600288E+02  0.81720694139E+02  0.00000000000E+00 0. -1.
          4    1    6    6  503    0  0.20924676727E+01 -0.10299171021E+01 -0.59211643036E+02  0.59257554972E+02  0.00000000000E+00 0. -1.
         -4    1    6    6    0  503  0.67231432348E+02 -0.22381717148E+03 -0.31517157013E+03  0.39236119885E+03  0.00000000000E+00 0.  1.
<mgrwt>
<rscale>  0 0.17992684E+04</rscale>
<asrwt>0</asrwt>
<pdfrwt beam="1">  1        2 0.62475658E+00 0.17992684E+04</pdfrwt>
<pdfrwt beam="2">  1       -1 0.30661568E-01 0.17992684E+04</pdfrwt>
<totfact> 0.32696244E+00</totfact>
</mgrwt>
</event>
<event>
12    6  0.1556619E-007  0.2785906E+04  0.7818608E-02  0.8307657E-01
          2   -1    0    0  501    0  0.00000000000E+00  0.00000000000E+00  0.30781804006E+04  0.30781804006E+04  0.00000000000E+00 0. -1.
         -1   -1    0    0    0  501 -0.00000000000E+00 -0.00000000000E+00 -0.63034560496E+03  0.63034560496E+03  0.00000000000E+00 0.  1.
         24    2    1    2    0    0  0.67438370525E+03  0.25156761539E+03  0.24386874124E+04  0.25439108812E+04  0.78782160878E+02 0.  0.
        254    2    1    2    0    0 -0.67438370525E+03 -0.25156761539E+03  0.91473831961E+01  0.11646151244E+04  0.91551355328E+03 0.  0.
         23    2    4    4    0    0 -0.84900369001E+03 -0.26594375196E+03 -0.15689458381E+03  0.90784272716E+03  0.89605591236E+02 0.  0.
         23    2    4    4    0    0  0.17461998475E+03  0.14376136575E+02  0.16604196701E+03  0.25677239719E+03  0.87540372256E+02 0.  0.
          4    1    3    3  502    0  0.49752065010E+03  0.18475463760E+03  0.19132644119E+04  0.19855079409E+04  0.00000000000E+00 0. -1.
         -3    1    3    3    0  502  0.17686305515E+03  0.66812977782E+02  0.52542300050E+03  0.55840294030E+03  0.00000000000E+00 0.  1.
         11    1    5    5    0    0 -0.80631363530E+03 -0.23103104360E+03 -0.14175015705E+03  0.85065276617E+03  0.00000000000E+00 0. -1.
        -11    1    5    5    0    0 -0.42690054709E+02 -0.34912708359E+02 -0.15144426761E+02  0.57189960989E+02  0.00000000000E+00 0.  1.
          3    1    6    6  503    0  0.16582912087E+03 -0.11835652896E+02  0.15399919942E+03  0.22661671040E+03  0.00000000000E+00 0. -1.
         -3    1    6    6    0  503  0.87908638796E+01  0.26211789471E+02  0.12042767588E+02  0.30155686797E+02  0.00000000000E+00 0.  1.
<mgrwt>
<rscale>  0 0.27859056E+04</rscale>
<asrwt>0</asrwt>
<pdfrwt beam="1">  1        2 0.47356621E+00 0.27859056E+04</pdfrwt>
<pdfrwt beam="2">  1       -1 0.96976248E-01 0.27859056E+04</pdfrwt>
<totfact> 0.15720190E+00</totfact>
</mgrwt>
</event>
<event>
12    6  0.1556619E-007  0.2739838E+04  0.7818608E-02  0.8322193E-01
          2   -1    0    0  501    0  0.00000000000E+00  0.00000000000E+00  0.92993887759E+03  0.92993887759E+03  0.00000000000E+00 0. -1.
         -1   -1    0    0    0  501 -0.00000000000E+00 -0.00000000000E+00 -0.20180663908E+04  0.20180663908E+04  0.00000000000E+00 0.  1.
         24    2    1    2    0    0  0.99679553577E+03  0.62294457683E+03 -0.83938752313E+03  0.14465217155E+04  0.78691635063E+02 0.  0.
        254    2    1    2    0    0 -0.99679553577E+03 -0.62294457683E+03 -0.24873999007E+03  0.15014835529E+04  0.90051096107E+03 0.  0.
         23    2    4    4    0    0 -0.97185902289E+03 -0.14273680275E+03 -0.22179993206E+03  0.10110368642E+04  0.90092040065E+02 0.  0.
         23    2    4    4    0    0 -0.24936512880E+02 -0.48020777408E+03 -0.26940058003E+02  0.49044668869E+03  0.92686847815E+02 0.  0.
          4    1    3    3  502    0  0.86241045750E+02  0.29474659324E+02 -0.68517316108E+02  0.11402147219E+03  0.00000000000E+00 0. -1.
         -3    1    3    3    0  502  0.91055449002E+03  0.59346991751E+03 -0.77087020702E+03  0.13325002433E+04  0.00000000000E+00 0.  1.
         11    1    5    5    0    0 -0.89995400806E+03 -0.15493614466E+03 -0.21167001257E+03  0.93740419232E+03  0.00000000000E+00 0.  1.
        -11    1    5    5    0    0 -0.71905014826E+02  0.12199341910E+02 -0.10129919495E+02  0.73632671886E+02  0.00000000000E+00 0. -1.
          3    1    6    6  503    0  0.35307704685E+02 -0.17406896897E+03 -0.54498909548E+01  0.17769733054E+03  0.00000000000E+00 0. -1.
         -3    1    6    6    0  503 -0.60244217564E+02 -0.30613880511E+03 -0.21490167048E+02  0.31274935815E+03  0.00000000000E+00 0.  1.
<mgrwt>
<rscale>  0 0.27398382E+04</rscale>
<asrwt>0</asrwt>
<pdfrwt beam="1">  1        2 0.14306752E+00 0.27398382E+04</pdfrwt>
<pdfrwt beam="2">  1       -1 0.31047175E+00 0.27398382E+04</pdfrwt>
<totfact> 0.78794957E-01</totfact>
</mgrwt>
</event>
<event>
12    6  0.1556619E-007  0.2970999E+04  0.7818608E-02  0.8252061E-01
          4   -1    0    0  501    0  0.00000000000E+00  0.00000000000E+00  0.99141202896E+03  0.99141202896E+03  0.00000000000E+00 0. -1.
         -3   -1    0    0    0  501 -0.00000000000E+00 -0.00000000000E+00 -0.22258238687E+04  0.22258238687E+04  0.00000000000E+00 0.  1.
         24    2    1    2    0    0  0.76012925930E+03 -0.10752231491E+04 -0.47787867549E+03  0.14032605534E+04  0.82890535894E+02 0.  0.
        254    2    1    2    0    0 -0.76012925930E+03  0.10752231491E+04 -0.75653316424E+03  0.18139753443E+04  0.99210020151E+03 0.  0.
         23    2    4    4    0    0 -0.81439555748E+03  0.31051442416E+03 -0.41143950723E+03  0.96811246837E+03  0.91104070456E+02 0.  0.
         23    2    4    4    0    0  0.54266298173E+02  0.76470872495E+03 -0.34509365701E+03  0.84586287591E+03  0.93113412582E+02 0.  0.
          2    1    3    3  502    0  0.70475419855E+03 -0.10201406285E+04 -0.46428369293E+03  0.13239806380E+04  0.00000000000E+00 0. -1.
         -1    1    3    3    0  502  0.55375060758E+02 -0.55082520594E+02 -0.13594982563E+02  0.79279915362E+02  0.00000000000E+00 0.  1.
         11    1    5    5    0    0 -0.53584134355E+03  0.18506621342E+03 -0.31053680177E+03  0.64638112137E+03  0.00000000000E+00 0. -1.
        -11    1    5    5    0    0 -0.27855421393E+03  0.12544821074E+03 -0.10090270546E+03  0.32173134700E+03  0.00000000000E+00 0.  1.
          4    1    6    6  503    0 -0.20993255884E+02  0.35509462004E+03 -0.16506310407E+03  0.39214631746E+03  0.00000000000E+00 0. -1.
         -4    1    6    6    0  503  0.75259554058E+02  0.40961410491E+03 -0.18003055294E+03  0.45371655845E+03  0.00000000000E+00 0.  1.
<mgrwt>
<rscale>  0 0.29709989E+04</rscale>
<asrwt>0</asrwt>
<pdfrwt beam="1">  1        4 0.15252493E+00 0.29709989E+04</pdfrwt>
<pdfrwt beam="2">  1       -3 0.34243444E+00 0.29709989E+04</pdfrwt>
<totfact> 0.12257651E-02</totfact>
</mgrwt>
</event>
<event>
12    6  0.1556619E-007  0.1120935E+04  0.7818608E-02  0.9185024E-01
          2   -1    0    0  501    0  0.00000000000E+00  0.00000000000E+00  0.10114923512E+04  0.10114923512E+04  0.00000000000E+00 0. -1.
         -1   -1    0    0    0  501 -0.00000000000E+00 -0.00000000000E+00 -0.31055468547E+03  0.31055468547E+03  0.00000000000E+00 0.  1.
         24    2    1    2    0    0  0.10408263644E+03 -0.13039127718E+03  0.44833635908E+02  0.19085298323E+03  0.81115509785E+02 0.  0.
        254    2    1    2    0    0 -0.10408263644E+03  0.13039127718E+03  0.65610402981E+03  0.11311940534E+04  0.90625184590E+03 0.  0.
         23    2    4    4    0    0  0.37396409498E+03 -0.33881940453E+02  0.16046002023E+03  0.41765168518E+03  0.87683418195E+02 0.  0.
         23    2    4    4    0    0 -0.47804673141E+03  0.16427321764E+03  0.49564400959E+03  0.71354236824E+03  0.89248863230E+02 0.  0.
          2    1    3    3  502    0  0.77345901771E+02 -0.50285170056E+02 -0.57124593575E+01  0.92431699326E+02  0.00000000000E+00 0. -1.
         -1    1    3    3    0  502  0.26736734665E+02 -0.80106107126E+02  0.50546095265E+02  0.98421283908E+02  0.00000000000E+00 0.  1.
         11    1    5    5    0    0  0.36751522384E+03 -0.43500567603E+02  0.14310029320E+03  0.39678386188E+03  0.00000000000E+00 0. -1.
        -11    1    5    5    0    0  0.64488711402E+01  0.96186271495E+01  0.17359727021E+02  0.20867823305E+02  0.00000000000E+00 0.  1.
          4    1    6    6  503    0 -0.29382126942E+03  0.11580689144E+03  0.25060824844E+03  0.40317076860E+03  0.00000000000E+00 0. -1.
         -4    1    6    6    0  503 -0.18422546199E+03  0.48466326195E+02  0.24503576115E+03  0.31037159964E+03  0.00000000000E+00 0.  1.
<mgrwt>
<rscale>  0 0.11209348E+04</rscale>
<asrwt>0</asrwt>
<pdfrwt beam="1">  1        2 0.15561421E+00 0.11209348E+04</pdfrwt>
<pdfrwt beam="2">  1       -1 0.47777644E-01 0.11209348E+04</pdfrwt>
<totfact> 0.12249939E+02</totfact>
</mgrwt>
</event>
<event>
12    6  0.1556619E-007  0.1182716E+04  0.7818608E-02  0.9128121E-01
          2   -1    0    0  501    0  0.00000000000E+00  0.00000000000E+00  0.29342643277E+03  0.29342643277E+03  0.00000000000E+00 0. -1.
         -1   -1    0    0    0  501 -0.00000000000E+00 -0.00000000000E+00 -0.11917951930E+04  0.11917951930E+04  0.00000000000E+00 0.  1.
         24    2    1    2    0    0 -0.12007118550E+03 -0.10711889735E+03 -0.41544160235E+03  0.45256698300E+03  0.79583926621E+02 0.  0.
        254    2    1    2    0    0  0.12007118550E+03  0.10711889735E+03 -0.48292715792E+03  0.10326546428E+04  0.89847950656E+03 0.  0.
         23    2    4    4    0    0  0.14596065023E+03  0.43775265383E+03 -0.40466063680E+02  0.47220660912E+03  0.91704318552E+02 0.  0.
         23    2    4    4    0    0 -0.25889464723E+02 -0.33063375648E+03 -0.44246109424E+03  0.56044803369E+03  0.91330352272E+02 0.  0.
          4    1    3    3  502    0  0.94911504827E+01 -0.17167893018E+02 -0.27430931661E+02  0.33723500707E+02  0.00000000000E+00 0. -1.
         -3    1    3    3    0  502 -0.12956233599E+03 -0.89951004336E+02 -0.38801067069E+03  0.41884348229E+03  0.00000000000E+00 0.  1.
         11    1    5    5    0    0  0.14289872939E+03  0.30901366792E+03 -0.44607070641E+02  0.34336465248E+03  0.00000000000E+00 0. -1.
        -11    1    5    5    0    0  0.30619208313E+01  0.12873898591E+03  0.41410069607E+01  0.12884195664E+03  0.00000000000E+00 0.  1.
          3    1    6    6  503    0 -0.49705313135E+02 -0.18932781954E+03 -0.20766562357E+03  0.28537808714E+03  0.00000000000E+00 0. -1.
         -3    1    6    6    0  503  0.23815848412E+02 -0.14130593693E+03 -0.23479547067E+03  0.27506994655E+03  0.00000000000E+00 0.  1.
<mgrwt>
<rscale>  0 0.11827159E+04</rscale>
<asrwt>0</asrwt>
<pdfrwt beam="1">  1        2 0.45142528E-01 0.11827159E+04</pdfrwt>
<pdfrwt beam="2">  1       -1 0.18335311E+00 0.11827159E+04</pdfrwt>
<totfact> 0.25088646E+01</totfact>
</mgrwt>
</event>
<event>
12    6  0.1556619E-007  0.1302114E+04  0.7818608E-02  0.9027891E-01
          2   -1    0    0  501    0  0.00000000000E+00  0.00000000000E+00  0.44943738586E+03  0.44943738586E+03  0.00000000000E+00 0. -1.
         -1   -1    0    0    0  501 -0.00000000000E+00 -0.00000000000E+00 -0.94312383939E+03  0.94312383939E+03  0.00000000000E+00 0.  1.
         24    2    1    2    0    0  0.33906664115E+02  0.27884307209E+03 -0.40443958423E+03  0.49899124227E+03  0.80732656652E+02 0.  0.
        254    2    1    2    0    0 -0.33906664115E+02 -0.27884307209E+03 -0.89246869301E+02  0.89356998297E+03  0.84356338829E+03 0.  0.
         23    2    4    4    0    0 -0.19559932521E+03  0.14631377504E+03 -0.28824222974E+03  0.38854713405E+03  0.90655808323E+02 0.  0.
         23    2    4    4    0    0  0.16169266110E+03 -0.42515684713E+03  0.19899536044E+03  0.50502284892E+03  0.92444919463E+02 0.  0.
          2    1    3    3  502    0 -0.18773251059E+02  0.23546907927E+02 -0.58910088027E+02  0.66161093549E+02  0.00000000000E+00 0. -1.
         -1    1    3    3    0  502  0.52679915174E+02  0.25529616416E+03 -0.34552949620E+03  0.43283014872E+03  0.00000000000E+00 0.  1.
         11    1    5    5    0    0 -0.13535345956E+03  0.86453991927E+02 -0.24576121703E+03  0.29358717194E+03  0.00000000000E+00 0.  1.
        -11    1    5    5    0    0 -0.60245865651E+02  0.59859783112E+02 -0.42481012718E+02  0.94959962109E+02  0.00000000000E+00 0. -1.
          4    1    6    6  503    0  0.10173626434E+03 -0.14543692432E+03  0.63743511303E+02  0.18858791496E+03  0.00000000000E+00 0. -1.
         -4    1    6    6    0  503  0.59956396760E+02 -0.27971992281E+03  0.13525184914E+03  0.31643493395E+03  0.00000000000E+00 0.  1.
<mgrwt>
<rscale>  0 0.13021138E+04</rscale>
<asrwt>0</asrwt>
<pdfrwt beam="1">  1        2 0.69144214E-01 0.13021138E+04</pdfrwt>
<pdfrwt beam="2">  1       -1 0.14509597E+00 0.13021138E+04</pdfrwt>
<totfact> 0.29785099E+01</totfact>
</mgrwt>
</event>
<event>
12    6  0.1556619E-007  0.2308128E+04  0.7818608E-02  0.8474723E-01
          2   -1    0    0  501    0  0.00000000000E+00  0.00000000000E+00  0.93350530672E+03  0.93350530672E+03  0.00000000000E+00 0. -1.
         -1   -1    0    0    0  501 -0.00000000000E+00 -0.00000000000E+00 -0.14267333870E+04  0.14267333870E+04  0.00000000000E+00 0.  1.
         24    2    1    2    0    0  0.26661293654E+02  0.95181963414E+03 -0.42463806007E+03  0.10456086288E+04  0.79425953006E+02 0.  0.
        254    2    1    2    0    0 -0.26661293654E+02 -0.95181963414E+03 -0.68590020174E+02  0.13146300649E+04  0.90381202478E+03 0.  0.
         23    2    4    4    0    0  0.22980659064E+03 -0.25485072356E+03 -0.36602001471E+03  0.50990364871E+03  0.90945694801E+02 0.  0.
         23    2    4    4    0    0 -0.25646788429E+03 -0.69696891059E+03  0.29742999454E+03  0.80472641618E+03  0.87054955348E+02 0.  0.
          2    1    3    3  502    0  0.16679608787E+02  0.36981334664E+02 -0.16158436023E+02  0.43668335410E+02  0.00000000000E+00 0. -1.
         -1    1    3    3    0  502  0.99816848668E+01  0.91483829948E+03 -0.40847962405E+03  0.10019402934E+04  0.00000000000E+00 0.  1.
         11    1    5    5    0    0 -0.71199033121E+01 -0.20508630682E+02 -0.24627828671E+02  0.32830274148E+02  0.00000000000E+00 0.  1.
        -11    1    5    5    0    0  0.23692649395E+03 -0.23434209287E+03 -0.34139218604E+03  0.47707337457E+03  0.00000000000E+00 0. -1.
          2    1    6    6  503    0 -0.20751849638E+03 -0.63908915138E+03  0.26802214902E+03  0.72341878750E+03  0.00000000000E+00 0. -1.
         -2    1    6    6    0  503 -0.48949387913E+02 -0.57879759212E+02  0.29407845522E+02  0.81307628682E+02  0.00000000000E+00 0.  1.
<mgrwt>
<rscale>  0 0.23081275E+04</rscale>
<asrwt>0</asrwt>
<pdfrwt beam="1">  1        2 0.14361620E+00 0.23081275E+04</pdfrwt>
<pdfrwt beam="2">  1       -1 0.21949744E+00 0.23081275E+04</pdfrwt>
<totfact> 0.31904525E+00</totfact>
</mgrwt>
</event>
<event>
12    6  0.1556619E-007  0.1803898E+04  0.7818608E-02  0.8704229E-01
         -1   -1    0    0    0  501 -0.00000000000E+00  0.00000000000E+00  0.38301330731E+03  0.38301330731E+03  0.00000000000E+00 0.  1.
          2   -1    0    0  501    0  0.00000000000E+00 -0.00000000000E+00 -0.21239792226E+04  0.21239792226E+04  0.00000000000E+00 0. -1.
         24    2    1    2    0    0 -0.54900886180E+02 -0.59000093377E+03 -0.20829334655E+03  0.63305092171E+03  0.79070488244E+02 0.  0.
        254    2    1    2    0    0  0.54900886180E+02  0.59000093377E+03 -0.15326725688E+04  0.18739416082E+04  0.90080893580E+03 0.  0.
         23    2    4    4    0    0 -0.24959405191E+03 -0.12289424817E+03 -0.49426626414E+03  0.57480958253E+03  0.93309856472E+02 0.  0.
         23    2    4    4    0    0  0.30449493809E+03  0.71289518194E+03 -0.10384063046E+04  0.12991320257E+04  0.92301998620E+02 0.  0.
          2    1    3    3  502    0  0.14657399968E+01 -0.19149869612E+02 -0.23591789114E+02  0.30421019271E+02  0.00000000000E+00 0. -1.
         -1    1    3    3    0  502 -0.56366626177E+02 -0.57085106416E+03 -0.18470155743E+03  0.60262990244E+03  0.00000000000E+00 0.  1.
         11    1    5    5    0    0 -0.12776426721E+03 -0.13095574978E+02 -0.24079979106E+03  0.27290976794E+03  0.00000000000E+00 0. -1.
        -11    1    5    5    0    0 -0.12182978469E+03 -0.10979867319E+03 -0.25346647308E+03  0.30189981459E+03  0.00000000000E+00 0.  1.
          2    1    6    6  503    0  0.13024931620E+03  0.38095154768E+03 -0.59605619904E+03  0.71928572797E+03  0.00000000000E+00 0. -1.
         -2    1    6    6    0  503  0.17424562189E+03  0.33194363425E+03 -0.44235010559E+03  0.57984629773E+03  0.00000000000E+00 0.  1.
<mgrwt>
<rscale>  0 0.18038983E+04</rscale>
<asrwt>0</asrwt>
<pdfrwt beam="1">  1        2 0.32676602E+00 0.18038983E+04</pdfrwt>
<pdfrwt beam="2">  1       -1 0.58925126E-01 0.18038983E+04</pdfrwt>
<totfact> 0.17875936E+01</totfact>
</mgrwt>
</event>
<event>
12    6  0.1556619E-007  0.1055754E+04  0.7818608E-02  0.9249424E-01
         -1   -1    0    0    0  501 -0.00000000000E+00  0.00000000000E+00  0.19623472644E+03  0.19623472644E+03  0.00000000000E+00 0.  1.
          2   -1    0    0  501    0  0.00000000000E+00 -0.00000000000E+00 -0.14200040195E+04  0.14200040195E+04  0.00000000000E+00 0. -1.
         24    2    1    2    0    0  0.32819494124E+02 -0.13085881205E+03 -0.29872518012E+03  0.33732530711E+03  0.79689909591E+02 0.  0.
        254    2    1    2    0    0 -0.32819494124E+02  0.13085881205E+03 -0.92504411293E+03  0.12789134388E+04  0.87276103561E+03 0.  0.
         23    2    4    4    0    0  0.33494034706E+03 -0.78822374522E+02 -0.14036881854E+03  0.38274536433E+03  0.91611166830E+02 0.  0.
         23    2    4    4    0    0 -0.36775984118E+03  0.20968118657E+03 -0.78467529439E+03  0.89616807450E+03  0.90489774775E+02 0.  0.
          2    1    3    3  502    0  0.52021674951E+01 -0.12489712761E+03 -0.21196112789E+03  0.24607696920E+03  0.00000000000E+00 0. -1.
         -1    1    3    3    0  502  0.27617326629E+02 -0.59616844309E+01 -0.86764052230E+02  0.91248337906E+02  0.00000000000E+00 0.  1.
         11    1    5    5    0    0  0.52737640229E+02 -0.45725756384E+02 -0.11464769112E+02  0.70735736545E+02  0.00000000000E+00 0.  1.
        -11    1    5    5    0    0  0.28220270683E+03 -0.33096618138E+02 -0.12890404943E+03  0.31200962779E+03  0.00000000000E+00 0. -1.
          2    1    6    6  503    0 -0.33490336046E+03  0.15513774946E+03 -0.66116722832E+03  0.75721204821E+03  0.00000000000E+00 0. -1.
         -2    1    6    6    0  503 -0.32856480726E+02  0.54543437109E+02 -0.12350806607E+03  0.13895602628E+03  0.00000000000E+00 0.  1.
<mgrwt>
<rscale>  0 0.10557539E+04</rscale>
<asrwt>0</asrwt>
<pdfrwt beam="1">  1        2 0.21846216E+00 0.10557539E+04</pdfrwt>
<pdfrwt beam="2">  1       -1 0.30189957E-01 0.10557539E+04</pdfrwt>
<totfact> 0.16115492E+02</totfact>
</mgrwt>
</event>
<event>
12    6  0.1556619E-007  0.1899647E+04  0.7818608E-02  0.8655032E-01
         -1   -1    0    0    0  501 -0.00000000000E+00  0.00000000000E+00  0.28217568555E+03  0.28217568555E+03  0.00000000000E+00 0.  1.
          2   -1    0    0  501    0  0.00000000000E+00 -0.00000000000E+00 -0.31971736914E+04  0.31971736914E+04  0.00000000000E+00 0. -1.
         24    2    1    2    0    0  0.32744109952E+03  0.64399980030E+03 -0.13695266238E+04  0.15503989804E+04  0.78615574813E+02 0.  0.
        254    2    1    2    0    0 -0.32744109952E+03 -0.64399980030E+03 -0.15454713821E+04  0.19289503966E+04  0.90023020573E+03 0.  0.
         23    2    4    4    0    0 -0.15889924767E+03 -0.48091772186E+03 -0.15904991301E+04  0.16720443999E+04  0.97540586823E+02 0.  0.
         23    2    4    4    0    0 -0.16854185186E+03 -0.16308207844E+03  0.45027748093E+02  0.25690599670E+03  0.94715747949E+02 0.  0.
          4    1    3    3  502    0  0.30763710341E+03  0.55204498571E+03 -0.11684506209E+04  0.13284092393E+04  0.00000000000E+00 0. -1.
         -3    1    3    3    0  502  0.19803996110E+02  0.91954814590E+02 -0.20107600291E+03  0.22198974106E+03  0.00000000000E+00 0.  1.
         11    1    5    5    0    0 -0.12119706852E+03 -0.26135232501E+03 -0.10093653620E+04  0.10496724257E+04  0.00000000000E+00 0.  1.
        -11    1    5    5    0    0 -0.37702179143E+02 -0.21956539685E+03 -0.58113376815E+03  0.62237197422E+03  0.00000000000E+00 0. -1.
          3    1    6    6  503    0 -0.15187816311E+02  0.11827089006E+02 -0.27147641653E+01  0.19440158002E+02  0.00000000000E+00 0. -1.
         -3    1    6    6    0  503 -0.15335403555E+03 -0.17490916744E+03  0.47742512259E+02  0.23746583870E+03  0.00000000000E+00 0.  1.
<mgrwt>
<rscale>  0 0.18996470E+04</rscale>
<asrwt>0</asrwt>
<pdfrwt beam="1">  1        2 0.49187285E+00 0.18996470E+04</pdfrwt>
<pdfrwt beam="2">  1       -1 0.43411646E-01 0.18996470E+04</pdfrwt>
<totfact> 0.73027698E+00</totfact>
</mgrwt>
</event>
<event>
12    6  0.1556619E-007  0.1717286E+04  0.7818608E-02  0.8751566E-01
          2   -1    0    0  501    0  0.00000000000E+00  0.00000000000E+00  0.29028665271E+04  0.29028665271E+04  0.00000000000E+00 0. -1.
         -1   -1    0    0    0  501 -0.00000000000E+00 -0.00000000000E+00 -0.25397927662E+03  0.25397927662E+03  0.00000000000E+00 0.  1.
         24    2    1    2    0    0  0.28961214128E+03  0.11597114807E+03 -0.19718347119E+02  0.32063429172E+03  0.71365511640E+02 0.  0.
        254    2    1    2    0    0 -0.28961214128E+03 -0.11597114807E+03  0.26686055976E+04  0.28362115120E+04  0.90846871476E+03 0.  0.
         23    2    4    4    0    0 -0.46913288637E+03  0.22779997336E+03  0.18702632207E+04  0.19442003575E+04  0.10025977656E+03 0.  0.
         23    2    4    4    0    0  0.17952074509E+03 -0.34377112142E+03  0.79834237700E+03  0.89201115451E+03  0.89034077833E+02 0.  0.
          2    1    3    3  502    0  0.10200707887E+03  0.51561370434E+01 -0.59072205125E+01  0.10230799159E+03  0.00000000000E+00 0. -1.
         -1    1    3    3    0  502  0.18760506242E+03  0.11081501102E+03 -0.13811126606E+02  0.21832630013E+03  0.00000000000E+00 0.  1.
         11    1    5    5    0    0 -0.17086689926E+03  0.92727080904E+02  0.87971141334E+03  0.90093616841E+03  0.00000000000E+00 0.  1.
        -11    1    5    5    0    0 -0.29826598711E+03  0.13507289245E+03  0.99055180732E+03  0.10432641891E+04  0.00000000000E+00 0. -1.
          4    1    6    6  503    0  0.16624062855E+03 -0.33309211907E+03  0.78937672957E+03  0.87275536524E+03  0.00000000000E+00 0. -1.
         -4    1    6    6    0  503  0.13280116540E+02 -0.10679002350E+02  0.89656474250E+01  0.19255789266E+02  0.00000000000E+00 0.  1.
<mgrwt>
<rscale>  0 0.17172862E+04</rscale>
<asrwt>0</asrwt>
<pdfrwt beam="1">  1        2 0.44659483E+00 0.17172862E+04</pdfrwt>
<pdfrwt beam="2">  1       -1 0.39073737E-01 0.17172862E+04</pdfrwt>
<totfact> 0.13817975E+01</totfact>
</mgrwt>
</event>
<event>
12    6  0.1556619E-007  0.1096019E+04  0.7818608E-02  0.9209081E-01
          2   -1    0    0  501    0  0.00000000000E+00  0.00000000000E+00  0.31529983958E+04  0.31529983958E+04  0.00000000000E+00 0. -1.
         -1   -1    0    0    0  501 -0.00000000000E+00 -0.00000000000E+00 -0.95247186354E+02  0.95247186354E+02  0.00000000000E+00 0.  1.
         24    2    1    2    0    0 -0.15537118371E+03  0.28705418626E+02  0.35676741188E+03  0.39841051010E+03  0.80521690215E+02 0.  0.
        254    2    1    2    0    0  0.15537118371E+03 -0.28705418626E+02  0.27009837975E+04  0.28498350720E+04  0.89514370767E+03 0.  0.
         23    2    4    4    0    0 -0.33152542215E+02 -0.43445179864E+03  0.11573077162E+04  0.12400500275E+04  0.92279273563E+02 0.  0.
         23    2    4    4    0    0  0.18852372592E+03  0.40574638002E+03  0.15436760814E+04  0.16097850445E+04  0.91108316469E+02 0.  0.
          4    1    3    3  502    0 -0.48124747661E+02  0.48180943078E+02  0.12728033098E+03  0.14435261434E+03  0.00000000000E+00 0. -1.
         -3    1    3    3    0  502 -0.10724643605E+03 -0.19475524452E+02  0.22948708090E+03  0.25405789576E+03  0.00000000000E+00 0.  1.
         11    1    5    5    0    0 -0.44099046257E+02 -0.40851686374E+03  0.10155427768E+04  0.10955171772E+04  0.00000000000E+00 0. -1.
        -11    1    5    5    0    0  0.10946504042E+02 -0.25934934903E+02  0.14176493931E+03  0.14453285031E+03  0.00000000000E+00 0.  1.
          2    1    6    6  503    0  0.12640626883E+03  0.32956769153E+03  0.10957200191E+04  0.11511714765E+04  0.00000000000E+00 0. -1.
         -2    1    6    6    0  503  0.62117457091E+02  0.76178688488E+02  0.44795606228E+03  0.45861356804E+03  0.00000000000E+00 0.  1.
<mgrwt>
<rscale>  0 0.10960187E+04</rscale>
<asrwt>0</asrwt>
<pdfrwt beam="1">  1        2 0.48507660E+00 0.10960187E+04</pdfrwt>
<pdfrwt beam="2">  1       -1 0.14653416E-01 0.10960187E+04</pdfrwt>
<totfact> 0.55022932E+01</totfact>
</mgrwt>
</event>
<event>
12    6  0.1711828E-007  0.1319330E+04  0.7818608E-02  0.9014375E-01
          2   -1    0    0  501    0  0.00000000000E+00  0.00000000000E+00  0.10947601569E+04  0.10947601569E+04  0.00000000000E+00 0. -1.
         -1   -1    0    0    0  501 -0.00000000000E+00 -0.00000000000E+00 -0.39749134691E+03  0.39749134691E+03  0.00000000000E+00 0.  1.
         24    2    1    2    0    0  0.34156442653E+02 -0.32141318073E+03  0.33702686062E+03  0.47384005549E+03  0.80400236839E+02 0.  0.
        254    2    1    2    0    0 -0.34156442653E+02  0.32141318073E+03  0.36024194938E+03  0.10184114483E+04  0.89605497637E+03 0.  0.
         23    2    4    4    0    0 -0.35016767179E+03  0.38208402292E+02  0.44693312121E+03  0.57613938607E+03  0.90056076782E+02 0.  0.
         23    2    4    4    0    0  0.31601122914E+03  0.28320477844E+03 -0.86691171833E+02  0.44227206226E+03  0.89561008878E+02 0.  0.
          2    1    3    3  502    0  0.26689129742E+02 -0.25271464553E+03  0.21179770444E+03  0.33081001997E+03  0.00000000000E+00 0. -1.
         -1    1    3    3    0  502  0.74673129115E+01 -0.68698535204E+02  0.12522915618E+03  0.14303003551E+03  0.00000000000E+00 0.  1.
         11    1    5    5    0    0 -0.21336417693E+03  0.95120554990E+01  0.33395510633E+03  0.39640984378E+03  0.00000000000E+00 0.  1.
        -11    1    5    5    0    0 -0.13680349486E+03  0.28696346793E+02  0.11297801488E+03  0.17972954229E+03  0.00000000000E+00 0. -1.
          4    1    6    6  503    0  0.22715594836E+03  0.24453946200E+03 -0.88689950632E+02  0.34534805732E+03  0.00000000000E+00 0.  1.
         -4    1    6    6    0  503  0.88855280781E+02  0.38665316441E+02  0.19987787988E+01  0.96924004946E+02  0.00000000000E+00 0. -1.
<mgrwt>
<rscale>  0 0.13193297E+04</rscale>
<asrwt>0</asrwt>
<pdfrwt beam="1">  1        2 0.16842464E+00 0.13193297E+04</pdfrwt>
<pdfrwt beam="2">  1       -1 0.61152515E-01 0.13193297E+04</pdfrwt>
<totfact> 0.66456218E+01</totfact>
</mgrwt>
</event>
<event>
12    6  0.1556619E-007  0.2025755E+04  0.7818608E-02  0.8594673E-01
          2   -1    0    0  501    0  0.00000000000E+00  0.00000000000E+00  0.10819986518E+04  0.10819986518E+04  0.00000000000E+00 0. -1.
         -3   -1    0    0    0  501 -0.00000000000E+00 -0.00000000000E+00 -0.94817242917E+03  0.94817242917E+03  0.00000000000E+00 0.  1.
         24    2    1    2    0    0  0.38090878265E+03 -0.28244320146E+03 -0.59962982239E+03  0.76868306777E+03  0.80324790868E+02 0.  0.
        254    2    1    2    0    0 -0.38090878265E+03  0.28244320146E+03  0.73345604501E+03  0.12614880132E+04  0.91023545016E+03 0.  0.
         23    2    4    4    0    0  0.29133844391E+03  0.11749557332E+03  0.25385760175E+03  0.41404048716E+03  0.91118298862E+02 0.  0.
         23    2    4    4    0    0 -0.67224722657E+03  0.16494762814E+03  0.47959844325E+03  0.84744752604E+03  0.95018887373E+02 0.  0.
          2    1    3    3  502    0  0.15089910699E+03 -0.64611768025E+02 -0.20768441948E+03  0.26472257017E+03  0.00000000000E+00 0. -1.
         -1    1    3    3    0  502  0.23000967566E+03 -0.21783143344E+03 -0.39194540290E+03  0.50396049761E+03  0.00000000000E+00 0.  1.
         11    1    5    5    0    0  0.28582586430E+02  0.31971579779E+02  0.68892712822E+01  0.43435103539E+02  0.00000000000E+00 0. -1.
        -11    1    5    5    0    0  0.26275585748E+03  0.85523993541E+02  0.24696833047E+03  0.37060538362E+03  0.00000000000E+00 0.  1.
          4    1    6    6  503    0 -0.13118029800E+03  0.49230470200E+02  0.14091213025E+03  0.19871622538E+03  0.00000000000E+00 0. -1.
         -4    1    6    6    0  503 -0.54106692856E+03  0.11571715794E+03  0.33868631301E+03  0.64873130065E+03  0.00000000000E+00 0.  1.
<mgrwt>
<rscale>  0 0.20257555E+04</rscale>
<asrwt>0</asrwt>
<pdfrwt beam="1">  1        2 0.16646133E+00 0.20257555E+04</pdfrwt>
<pdfrwt beam="2">  1       -3 0.14587268E+00 0.20257555E+04</pdfrwt>
<totfact> 0.45412758E+00</totfact>
</mgrwt>
</event>
<event>
12    6  0.1556619E-007  0.1743018E+04  0.7818608E-02  0.8737203E-01
          2   -1    0    0  501    0  0.00000000000E+00  0.00000000000E+00  0.31180956166E+04  0.31180956166E+04  0.00000000000E+00 0. -1.
         -1   -1    0    0    0  501 -0.00000000000E+00 -0.00000000000E+00 -0.24358717732E+03  0.24358717732E+03  0.00000000000E+00 0.  1.
         24    2    1    2    0    0  0.24910751347E+02  0.39361300666E+03  0.72033837728E+02  0.40843801943E+03  0.77980750175E+02 0.  0.
        254    2    1    2    0    0 -0.24910751347E+02 -0.39361300666E+03  0.28024746016E+04  0.29532447745E+04  0.84394256983E+03 0.  0.
         23    2    4    4    0    0  0.33596036835E+03 -0.25615983967E+03  0.78193600728E+03  0.89356220263E+03  0.92424336229E+02 0.  0.
         23    2    4    4    0    0 -0.36087111970E+03 -0.13745316699E+03  0.20205385943E+04  0.20596825719E+04  0.10293079097E+03 0.  0.
          2    1    3    3  502    0 -0.12658907133E+00  0.25557991954E+03  0.80332113954E+02  0.26790737173E+03  0.00000000000E+00 0. -1.
         -1    1    3    3    0  502  0.25037340418E+02  0.13803308712E+03 -0.82982762266E+01  0.14053064770E+03  0.00000000000E+00 0.  1.
         11    1    5    5    0    0  0.29443614683E+03 -0.24839062717E+03  0.65613054127E+03  0.76085335999E+03  0.00000000000E+00 0. -1.
        -11    1    5    5    0    0  0.41524221524E+02 -0.77692124937E+01  0.12580546601E+03  0.13270884264E+03  0.00000000000E+00 0.  1.
          4    1    6    6  503    0 -0.14888418021E+03 -0.57399292366E+02  0.11079927974E+04  0.11194236093E+04  0.00000000000E+00 0. -1.
         -4    1    6    6    0  503 -0.21198693949E+03 -0.80053874624E+02  0.91254579686E+03  0.94025896258E+03  0.00000000000E+00 0.  1.
<mgrwt>
<rscale>  0 0.17430182E+04</rscale>
<asrwt>0</asrwt>
<pdfrwt beam="1">  1        2 0.47970699E+00 0.17430182E+04</pdfrwt>
<pdfrwt beam="2">  1       -1 0.37474953E-01 0.17430182E+04</pdfrwt>
<totfact> 0.10910601E+01</totfact>
</mgrwt>
</event>
<event>
12    6  0.1556619E-007  0.1455292E+04  0.7818608E-02  0.8914740E-01
          2   -1    0    0  501    0  0.00000000000E+00  0.00000000000E+00  0.26778278953E+04  0.26778278953E+04  0.00000000000E+00 0. -1.
         -1   -1    0    0    0  501 -0.00000000000E+00 -0.00000000000E+00 -0.19772314975E+03  0.19772314975E+03  0.00000000000E+00 0.  1.
         24    2    1    2    0    0  0.38124325879E+03  0.75445542775E+02  0.11861666040E+04  0.12523644599E+04  0.10191700315E+03 0.  0.
        254    2    1    2    0    0 -0.38124325879E+03 -0.75445542775E+02  0.12939381415E+04  0.16231865852E+04  0.89967790009E+03 0.  0.
         23    2    4    4    0    0 -0.34896172730E+03 -0.40851233925E+03  0.43746387020E+03  0.69908231971E+03  0.93192454420E+02 0.  0.
         23    2    4    4    0    0 -0.32281531496E+02  0.33306679647E+03  0.85647427131E+03  0.92410426546E+03  0.91896288482E+02 0.  0.
          2    1    3    3  502    0  0.80655951691E+02 -0.32442160925E+01  0.37804716437E+03  0.38656896664E+03  0.00000000000E+00 0. -1.
         -1    1    3    3    0  502  0.30058730710E+03  0.78689758868E+02  0.80811943965E+03  0.86579549322E+03  0.00000000000E+00 0.  1.
         11    1    5    5    0    0 -0.20028626884E+03 -0.25737333640E+03  0.20869692464E+03  0.38718216659E+03  0.00000000000E+00 0.  1.
        -11    1    5    5    0    0 -0.14867545846E+03 -0.15113900284E+03  0.22876694556E+03  0.31190015311E+03  0.00000000000E+00 0. -1.
          2    1    6    6  503    0  0.22898003647E+01  0.53215319793E+02  0.65820194620E+02  0.84672377233E+02  0.00000000000E+00 0. -1.
         -2    1    6    6    0  503 -0.34571331861E+02  0.27985147668E+03  0.79065407669E+03  0.83943188823E+03  0.00000000000E+00 0.  1.
<mgrwt>
<rscale>  0 0.14552918E+04</rscale>
<asrwt>0</asrwt>
<pdfrwt beam="1">  1        2 0.41197350E+00 0.14552918E+04</pdfrwt>
<pdfrwt beam="2">  1       -1 0.30418948E-01 0.14552918E+04</pdfrwt>
<totfact> 0.30234492E+01</totfact>
</mgrwt>
</event>
<event>
12    6  0.1556619E-007  0.1744903E+04  0.7818608E-02  0.8736161E-01
          2   -1    0    0  501    0  0.00000000000E+00  0.00000000000E+00  0.74180214382E+03  0.74180214382E+03  0.00000000000E+00 0. -1.
         -1   -1    0    0    0  501 -0.00000000000E+00 -0.00000000000E+00 -0.10261113011E+04  0.10261113011E+04  0.00000000000E+00 0.  1.
         24    2    1    2    0    0 -0.27633555685E+03  0.42285709644E+03  0.29003127965E+03  0.59083059213E+03  0.98960504409E+02 0.  0.
        254    2    1    2    0    0  0.27633555685E+03 -0.42285709644E+03 -0.57434043694E+03  0.11770828528E+04  0.89469974899E+03 0.  0.
         23    2    4    4    0    0 -0.20095468277E+03 -0.44514219405E+03 -0.45813580780E+03  0.67676229750E+03  0.97900109642E+02 0.  0.
         23    2    4    4    0    0  0.47729023962E+03  0.22285097614E+02 -0.11620462914E+03  0.50032055529E+03  0.92274285714E+02 0.  0.
          2    1    3    3  502    0 -0.18711195595E+03  0.32769118979E+03  0.17119622684E+03  0.41436764836E+03  0.00000000000E+00 0. -1.
         -1    1    3    3    0  502 -0.89223600896E+02  0.95165906647E+02  0.11883505282E+03  0.17646294377E+03  0.00000000000E+00 0.  1.
         11    1    5    5    0    0 -0.82349084179E+02 -0.28451076164E+03 -0.30478552754E+03  0.42499642699E+03  0.00000000000E+00 0. -1.
        -11    1    5    5    0    0 -0.11860559859E+03 -0.16063143241E+03 -0.15335028026E+03  0.25176587051E+03  0.00000000000E+00 0.  1.
          4    1    6    6  503    0  0.26911127557E+03  0.19603838968E+02 -0.18836674484E+02  0.27048107041E+03  0.00000000000E+00 0. -1.
         -4    1    6    6    0  503  0.20817896405E+03  0.26812586463E+01 -0.97367954653E+02  0.22983948489E+03  0.00000000000E+00 0.  1.
<mgrwt>
<rscale>  0 0.17449029E+04</rscale>
<asrwt>0</asrwt>
<pdfrwt beam="1">  1        2 0.11412341E+00 0.17449029E+04</pdfrwt>
<pdfrwt beam="2">  1       -1 0.15786328E+00 0.17449029E+04</pdfrwt>
<totfact> 0.12494151E+01</totfact>
</mgrwt>
</event>
<event>
12    6  0.1556619E-007  0.1894984E+04  0.7818608E-02  0.8657357E-01
          2   -1    0    0  501    0  0.00000000000E+00  0.00000000000E+00  0.54456594728E+03  0.54456594728E+03  0.00000000000E+00 0. -1.
         -1   -1    0    0    0  501 -0.00000000000E+00 -0.00000000000E+00 -0.16485448780E+04  0.16485448780E+04  0.00000000000E+00 0.  1.
         24    2    1    2    0    0 -0.25499322742E+02 -0.69357327417E+03 -0.16342327933E+03  0.71563416190E+03  0.61081775853E+02 0.  0.
        254    2    1    2    0    0  0.25499322742E+02  0.69357327417E+03 -0.94055565137E+03  0.14774766634E+04  0.90365826248E+03 0.  0.
         23    2    4    4    0    0  0.21263396121E+03 -0.14133329262E+03 -0.30236683698E+03  0.40624250272E+03  0.91754922736E+02 0.  0.
         23    2    4    4    0    0 -0.18713463847E+03  0.83490656679E+03 -0.63818881439E+03  0.10712341606E+04  0.90384268148E+02 0.  0.
          2    1    3    3  502    0  0.16646117115E+01 -0.35892503560E+03 -0.57030568345E+02  0.36343147613E+03  0.00000000000E+00 0. -1.
         -1    1    3    3    0  502 -0.27163934454E+02 -0.33464823857E+03 -0.10639271099E+03  0.35220268577E+03  0.00000000000E+00 0.  1.
         11    1    5    5    0    0  0.20519272456E+03 -0.99526973952E+02 -0.24302748182E+03  0.33327470602E+03  0.00000000000E+00 0. -1.
        -11    1    5    5    0    0  0.74412366520E+01 -0.41806318668E+02 -0.59339355162E+02  0.72967796695E+02  0.00000000000E+00 0.  1.
          3    1    6    6  503    0 -0.15723139999E+03  0.53736731701E+03 -0.44526252741E+03  0.71536289032E+03  0.00000000000E+00 0. -1.
         -3    1    6    6    0  503 -0.29903238475E+02  0.29753924978E+03 -0.19292628698E+03  0.35587127032E+03  0.00000000000E+00 0.  1.
<mgrwt>
<rscale>  0 0.18949843E+04</rscale>
<asrwt>0</asrwt>
<pdfrwt beam="1">  1        2 0.83779377E-01 0.18949843E+04</pdfrwt>
<pdfrwt beam="2">  1       -1 0.25362229E+00 0.18949843E+04</pdfrwt>
<totfact> 0.39367445E+00</totfact>
</mgrwt>
</event>
<event>
12    6  0.1556619E-007  0.1930710E+04  0.7818608E-02  0.8639719E-01
         -1   -1    0    0    0  501 -0.00000000000E+00  0.00000000000E+00  0.21357299952E+04  0.21357299952E+04  0.00000000000E+00 0.  1.
          2   -1    0    0  501    0  0.00000000000E+00 -0.00000000000E+00 -0.43634259333E+03  0.43634259333E+03  0.00000000000E+00 0. -1.
         24    2    1    2    0    0 -0.43612397480E+03  0.60885759970E+03  0.63574200258E+03  0.98590715108E+03  0.83266551500E+02 0.  0.
        254    2    1    2    0    0  0.43612397480E+03 -0.60885759970E+03  0.10636453993E+04  0.15861654374E+04  0.90756132654E+03 0.  0.
         23    2    4    4    0    0 -0.18815569475E+03 -0.31715110576E+03  0.93488762940E+02  0.39285733217E+03  0.98027268108E+02 0.  0.
         23    2    4    4    0    0  0.62427966955E+03 -0.29170649394E+03  0.97015663633E+03  0.11933081053E+04  0.89233125429E+02 0.  0.
          4    1    3    3  502    0 -0.20718809544E+02  0.22573023331E+02  0.77149208684E+01  0.31596367754E+02  0.00000000000E+00 0. -1.
         -3    1    3    3    0  502 -0.41540516526E+03  0.58628457637E+03  0.62802708171E+03  0.95431078333E+03  0.00000000000E+00 0.  1.
         11    1    5    5    0    0 -0.10991441799E+03 -0.25945531904E+03  0.89163078985E+02  0.29554745222E+03  0.00000000000E+00 0. -1.
        -11    1    5    5    0    0 -0.78241276757E+02 -0.57695786719E+02  0.43256839552E+01  0.97309879947E+02  0.00000000000E+00 0.  1.
          2    1    6    6  503    0  0.38441044602E+03 -0.14075535693E+03  0.52781903660E+03  0.66796436799E+03  0.00000000000E+00 0. -1.
         -2    1    6    6    0  503  0.23986922353E+03 -0.15095113701E+03  0.44233759973E+03  0.52534373728E+03  0.00000000000E+00 0.  1.
<mgrwt>
<rscale>  0 0.19307097E+04</rscale>
<asrwt>0</asrwt>
<pdfrwt beam="1">  1        2 0.67129631E-01 0.19307097E+04</pdfrwt>
<pdfrwt beam="2">  1       -1 0.32857384E+00 0.19307097E+04</pdfrwt>
<totfact> 0.16569216E+00</totfact>
</mgrwt>
</event>
<event>
12    6  0.1556619E-007  0.1358987E+04  0.7818608E-02  0.8984053E-01
          2   -1    0    0  501    0  0.00000000000E+00  0.00000000000E+00  0.95377358195E+03  0.95377358195E+03  0.00000000000E+00 0. -1.
         -1   -1    0    0    0  501 -0.00000000000E+00 -0.00000000000E+00 -0.48408911257E+03  0.48408911257E+03  0.00000000000E+00 0.  1.
         24    2    1    2    0    0  0.29464675855E+03 -0.20345212866E+03  0.22091591075E+03  0.42814002526E+03  0.79313054555E+02 0.  0.
        254    2    1    2    0    0 -0.29464675855E+03  0.20345212866E+03  0.24876855863E+03  0.10097226693E+04  0.91073848720E+03 0.  0.
         23    2    4    4    0    0  0.18450590401E+03 -0.94071684775E+01  0.40549822184E+03  0.45487129367E+03  0.91368279286E+02 0.  0.
         23    2    4    4    0    0 -0.47915266256E+03  0.21285929714E+03 -0.15672966321E+03  0.55485137558E+03  0.91648825626E+02 0.  0.
          4    1    3    3  502    0  0.28914962272E+03 -0.18591813282E+03  0.22282853019E+03  0.40966524174E+03  0.00000000000E+00 0. -1.
         -3    1    3    3    0  502  0.54971358370E+01 -0.17533995850E+02 -0.19126194392E+01  0.18474783517E+02  0.00000000000E+00 0.  1.
         11    1    5    5    0    0  0.98316267425E+02 -0.63070336454E+01  0.31417737316E+03  0.32926173315E+03  0.00000000000E+00 0. -1.
        -11    1    5    5    0    0  0.86189636582E+02 -0.31001348321E+01  0.91320848681E+02  0.12560956052E+03  0.00000000000E+00 0.  1.
          1    1    6    6  503    0 -0.48211005426E+03  0.21562234129E+03 -0.15633626217E+03  0.55078500829E+03  0.00000000000E+00 0. -1.
         -1    1    6    6    0  503  0.29573916993E+01 -0.27630441487E+01 -0.39340103925E+00  0.40663672987E+01  0.00000000000E+00 0.  1.
<mgrwt>
<rscale>  0 0.13589870E+04</rscale>
<asrwt>0</asrwt>
<pdfrwt beam="1">  1        2 0.14673440E+00 0.13589870E+04</pdfrwt>
<pdfrwt beam="2">  1       -1 0.74475248E-01 0.13589870E+04</pdfrwt>
<totfact> 0.54568234E+01</totfact>
</mgrwt>
</event>
<event>
12    6  0.1556619E-007  0.3369058E+04  0.7818608E-02  0.8145543E-01
         -1   -1    0    0    0  501 -0.00000000000E+00  0.00000000000E+00  0.12749289734E+04  0.12749289734E+04  0.00000000000E+00 0.  1.
          2   -1    0    0  501    0  0.00000000000E+00 -0.00000000000E+00 -0.22257218470E+04  0.22257218470E+04  0.00000000000E+00 0. -1.
         24    2    1    2    0    0 -0.14790805544E+04 -0.32908853422E+03 -0.77360099936E+03  0.17031279261E+04  0.78788811249E+02 0.  0.
        254    2    1    2    0    0  0.14790805544E+04  0.32908853422E+03 -0.17719187425E+03  0.17975228944E+04  0.95063823075E+03 0.  0.
         23    2    4    4    0    0  0.14675865264E+04  0.64984160685E+02 -0.28220005686E+03  0.14981601121E+04  0.82545114973E+02 0.  0.
         23    2    4    4    0    0  0.11494028031E+02  0.26410437354E+03  0.10500818261E+03  0.29936278224E+03  0.93317330497E+02 0.  0.
          4    1    3    3  502    0 -0.41396366551E+03 -0.59411562573E+02 -0.23003013961E+03  0.47729395058E+03  0.00000000000E+00 0. -1.
         -3    1    3    3    0  502 -0.10651168889E+04 -0.26967697165E+03 -0.54357085975E+03  0.12258339755E+04  0.00000000000E+00 0.  1.
         11    1    5    5    0    0  0.11578143554E+04  0.78217055033E+02 -0.20202925108E+03  0.11779082339E+04  0.00000000000E+00 0. -1.
        -11    1    5    5    0    0  0.30977217097E+03 -0.13232894348E+02 -0.80170805783E+02  0.32025187822E+03  0.00000000000E+00 0.  1.
          2    1    6    6  503    0 -0.46144399468E+01  0.10561722098E+03  0.90920277294E+02  0.13943739544E+03  0.00000000000E+00 0. -1.
         -2    1    6    6    0  503  0.16108467978E+02  0.15848715256E+03  0.14087905318E+02  0.15992538680E+03  0.00000000000E+00 0.  1.
<mgrwt>
<rscale>  0 0.33690576E+04</rscale>
<asrwt>0</asrwt>
<pdfrwt beam="1">  1        2 0.34241874E+00 0.33690576E+04</pdfrwt>
<pdfrwt beam="2">  1       -1 0.19614292E+00 0.33690576E+04</pdfrwt>
<totfact> 0.75481548E-01</totfact>
</mgrwt>
</event>
<event>
12    6  0.1556619E-007  0.2471458E+04  0.7818608E-02  0.8413225E-01
         -1   -1    0    0    0  501 -0.00000000000E+00  0.00000000000E+00  0.47759955109E+03  0.47759955109E+03  0.00000000000E+00 0.  1.
          2   -1    0    0  501    0  0.00000000000E+00 -0.00000000000E+00 -0.31972938816E+04  0.31972938816E+04  0.00000000000E+00 0. -1.
         24    2    1    2    0    0  0.62388550332E+03  0.74621416678E+03 -0.51702793117E+03  0.11044229481E+04  0.79771315458E+02 0.  0.
        254    2    1    2    0    0 -0.62388550332E+03 -0.74621416678E+03 -0.22026663994E+04  0.25704704846E+04  0.89972803741E+03 0.  0.
         23    2    4    4    0    0  0.55286244083E+02 -0.17014982953E+03 -0.12388921235E+04  0.12551038949E+04  0.91785401472E+02 0.  0.
         23    2    4    4    0    0 -0.67917174741E+03 -0.57606433726E+03 -0.96377427582E+03  0.13153665897E+04  0.90576086446E+02 0.  0.
          4    1    3    3  502    0  0.23132594247E+03  0.23196627172E+03 -0.20169167755E+03  0.38470712973E+03  0.00000000000E+00 0. -1.
         -3    1    3    3    0  502  0.39255956085E+03  0.51424789507E+03 -0.31533625362E+03  0.71971581840E+03  0.00000000000E+00 0.  1.
         11    1    5    5    0    0 -0.71936564266E+01 -0.11375578176E+03 -0.60444339218E+03  0.61509669234E+03  0.00000000000E+00 0. -1.
        -11    1    5    5    0    0  0.62479900509E+02 -0.56394047767E+02 -0.63444873137E+03  0.64000720255E+03  0.00000000000E+00 0.  1.
          1    1    6    6  503    0 -0.53423732296E+03 -0.49017997432E+03 -0.74961352586E+03  0.10428836765E+04  0.00000000000E+00 0. -1.
         -1    1    6    6    0  503 -0.14493442445E+03 -0.85884362938E+02 -0.21416074997E+03  0.27248291325E+03  0.00000000000E+00 0.  1.
<mgrwt>
<rscale>  0 0.24714580E+04</rscale>
<asrwt>0</asrwt>
<pdfrwt beam="1">  1        2 0.49189136E+00 0.24714580E+04</pdfrwt>
<pdfrwt beam="2">  1       -1 0.73476855E-01 0.24714580E+04</pdfrwt>
<totfact> 0.24720426E+00</totfact>
</mgrwt>
</event>
<event>
12    6  0.1556619E-007  0.1966309E+04  0.7818608E-02  0.8622536E-01
          2   -1    0    0  501    0  0.00000000000E+00  0.00000000000E+00  0.88524427977E+03  0.88524427977E+03  0.00000000000E+00 0. -1.
         -1   -1    0    0    0  501 -0.00000000000E+00 -0.00000000000E+00 -0.10918942389E+04  0.10918942389E+04  0.00000000000E+00 0.  1.
         24    2    1    2    0    0  0.23756368521E+03 -0.35528327165E+03 -0.75051996745E+03  0.86682211200E+03  0.73740386956E+02 0.  0.
        254    2    1    2    0    0 -0.23756368521E+03  0.35528327165E+03  0.54387000828E+03  0.11103164067E+04  0.86853050001E+03 0.  0.
         23    2    4    4    0    0 -0.30674498524E+03  0.60648971268E+03  0.32951848432E+03  0.76082353460E+03  0.91366086347E+02 0.  0.
         23    2    4    4    0    0  0.69181300024E+02 -0.25120644103E+03  0.21435152395E+03  0.34949287211E+03  0.91148030934E+02 0.  0.
          2    1    3    3  502    0  0.85522956411E+02 -0.17922908103E+03 -0.39229705219E+03  0.43969786981E+03  0.00000000000E+00 0. -1.
         -1    1    3    3    0  502  0.15204072880E+03 -0.17605419062E+03 -0.35822291526E+03  0.42712424219E+03  0.00000000000E+00 0.  1.
         11    1    5    5    0    0 -0.12971040217E+03  0.33120421457E+03  0.20566715340E+03  0.41087710836E+03  0.00000000000E+00 0. -1.
        -11    1    5    5    0    0 -0.17703458307E+03  0.27528549810E+03  0.12385133092E+03  0.34994642624E+03  0.00000000000E+00 0.  1.
          3    1    6    6  503    0  0.17555525456E+02 -0.26684240084E+02 -0.38595521756E+01  0.32173611639E+02  0.00000000000E+00 0. -1.
         -3    1    6    6    0  503  0.51625774568E+02 -0.22452220095E+03  0.21821107613E+03  0.31731926047E+03  0.00000000000E+00 0.  1.
<mgrwt>
<rscale>  0 0.19663094E+04</rscale>
<asrwt>0</asrwt>
<pdfrwt beam="1">  1        2 0.13619143E+00 0.19663094E+04</pdfrwt>
<pdfrwt beam="2">  1       -1 0.16798373E+00 0.19663094E+04</pdfrwt>
<totfact> 0.81224915E+00</totfact>
</mgrwt>
</event>
<event>
12    6  0.1556619E-007  0.1587538E+04  0.7818608E-02  0.8828241E-01
         -1   -1    0    0    0  501 -0.00000000000E+00  0.00000000000E+00  0.42711455676E+03  0.42711455676E+03  0.00000000000E+00 0.  1.
          2   -1    0    0  501    0  0.00000000000E+00 -0.00000000000E+00 -0.14751752775E+04  0.14751752775E+04  0.00000000000E+00 0. -1.
         24    2    1    2    0    0 -0.28272759012E+03  0.46285902281E+02 -0.90627653171E+03  0.95360547269E+03  0.77129570489E+02 0.  0.
        254    2    1    2    0    0  0.28272759012E+03 -0.46285902281E+02 -0.14178418907E+03  0.94868436162E+03  0.89320881475E+03 0.  0.
         23    2    4    4    0    0  0.23690647996E+01 -0.38520102477E+03  0.13617958685E+03  0.42063401989E+03  0.10001328342E+03 0.  0.
         23    2    4    4    0    0  0.28035852532E+03  0.33891512249E+03 -0.27796377592E+03  0.52805034173E+03  0.90049651331E+02 0.  0.
          4    1    3    3  502    0 -0.28712630971E+03  0.45765847577E+02 -0.87560897858E+03  0.92261970166E+03  0.00000000000E+00 0. -1.
         -1    1    3    3    0  502  0.43987195832E+01  0.52005470333E+00 -0.30667553132E+02  0.30985771024E+02  0.00000000000E+00 0.  1.
         11    1    5    5    0    0 -0.29419059284E+02 -0.33806595368E+03  0.13021554738E+03  0.36346961202E+03  0.00000000000E+00 0. -1.
        -11    1    5    5    0    0  0.31788124083E+02 -0.47135071094E+02  0.59640394709E+01  0.57164407865E+02  0.00000000000E+00 0.  1.
          2    1    6    6  503    0  0.25694221742E+03  0.27674596130E+03 -0.26231039719E+03  0.45979818906E+03  0.00000000000E+00 0. -1.
         -2    1    6    6    0  503  0.23416307901E+02  0.62169161189E+02 -0.15653378736E+02  0.68252152673E+02  0.00000000000E+00 0.  1.
<mgrwt>
<rscale>  0 0.15875375E+04</rscale>
<asrwt>0</asrwt>
<pdfrwt beam="1">  1        2 0.22695004E+00 0.15875375E+04</pdfrwt>
<pdfrwt beam="2">  1       -1 0.65709932E-01 0.15875375E+04</pdfrwt>
<totfact> 0.33665541E+01</totfact>
</mgrwt>
</event>
<event>
12    6  0.1556619E-007  0.1386279E+04  0.7818608E-02  0.8963811E-01
          2   -1    0    0  501    0  0.00000000000E+00  0.00000000000E+00  0.19213113210E+04  0.19213113210E+04  0.00000000000E+00 0. -1.
         -1   -1    0    0    0  501 -0.00000000000E+00 -0.00000000000E+00 -0.25005963568E+03  0.25005963568E+03  0.00000000000E+00 0.  1.
         24    2    1    2    0    0  0.26867806358E+03 -0.17405091216E+03  0.16726685451E+03  0.37098787618E+03  0.84688734682E+02 0.  0.
        254    2    1    2    0    0 -0.26867806358E+03  0.17405091216E+03  0.15039848309E+04  0.18003830805E+04  0.93644393501E+03 0.  0.
         23    2    4    4    0    0 -0.55009845929E+03  0.33758998973E+03  0.98209961282E+03  0.11786466415E+04  0.90071859429E+02 0.  0.
         23    2    4    4    0    0  0.28142039571E+03 -0.16353907758E+03  0.52188521804E+03  0.62173643908E+03  0.90827032649E+02 0.  0.
          4    1    3    3  502    0  0.14714924574E+03 -0.10463113989E+03  0.47297268477E+02  0.18664835269E+03  0.00000000000E+00 0. -1.
         -3    1    3    3    0  502  0.12152881784E+03 -0.69419772265E+02  0.11996958603E+03  0.18433952349E+03  0.00000000000E+00 0.  1.
         11    1    5    5    0    0 -0.47988605770E+03  0.27406927186E+03  0.78536452521E+03  0.96031350694E+03  0.00000000000E+00 0. -1.
        -11    1    5    5    0    0 -0.70212401593E+02  0.63520717878E+02  0.19673508761E+03  0.21833313453E+03  0.00000000000E+00 0.  1.
          3    1    6    6  503    0  0.27629823130E+03 -0.13766953322E+03  0.49926924173E+03  0.58699522037E+03  0.00000000000E+00 0. -1.
         -3    1    6    6    0  503  0.51221644078E+01 -0.25869544353E+02  0.22615976305E+02  0.34741218710E+02  0.00000000000E+00 0.  1.
<mgrwt>
<rscale>  0 0.13862791E+04</rscale>
<asrwt>0</asrwt>
<pdfrwt beam="1">  1        2 0.29558635E+00 0.13862791E+04</pdfrwt>
<pdfrwt beam="2">  1       -1 0.38470714E-01 0.13862791E+04</pdfrwt>
<totfact> 0.53659149E+01</totfact>
</mgrwt>
</event>
<event>
12    6  0.1556619E-007  0.1480730E+04  0.7818608E-02  0.8897369E-01
          2   -1    0    0  501    0  0.00000000000E+00  0.00000000000E+00  0.22375998715E+04  0.22375998715E+04  0.00000000000E+00 0. -1.
         -1   -1    0    0    0  501 -0.00000000000E+00 -0.00000000000E+00 -0.24496800829E+03  0.24496800829E+03  0.00000000000E+00 0.  1.
         24    2    1    2    0    0  0.33571363802E+03  0.27258929092E+03  0.89619709337E+03  0.99829252072E+03  0.80063465296E+02 0.  0.
        254    2    1    2    0    0 -0.33571363802E+03 -0.27258929092E+03  0.10964347698E+04  0.14842753590E+04  0.90216160899E+03 0.  0.
         23    2    4    4    0    0 -0.21633925668E+03 -0.39457134128E+03  0.98580318273E+02  0.46804272465E+03  0.82805166563E+02 0.  0.
         23    2    4    4    0    0 -0.11937438134E+03  0.12198205036E+03  0.99785445154E+03  0.10162326344E+04  0.88799759095E+02 0.  0.
          2    1    3    3  502    0  0.26195387940E+03  0.23992888323E+03  0.67354453427E+03  0.76147747412E+03  0.00000000000E+00 0. -1.
         -1    1    3    3    0  502  0.73759758628E+02  0.32660407685E+02  0.22265255910E+03  0.23681504660E+03  0.00000000000E+00 0.  1.
         11    1    5    5    0    0 -0.12334406915E+03 -0.30223460574E+03  0.66951805918E+02  0.33322974149E+03  0.00000000000E+00 0.  1.
        -11    1    5    5    0    0 -0.92995187536E+02 -0.92336735544E+02  0.31628512355E+02  0.13481298316E+03  0.00000000000E+00 0. -1.
          3    1    6    6  503    0 -0.10294926716E+03  0.10189672300E+03  0.95654885133E+03  0.96745397759E+03  0.00000000000E+00 0.  1.
         -3    1    6    6    0  503 -0.16425114177E+02  0.20085327366E+02  0.41305600211E+02  0.48778656808E+02  0.00000000000E+00 0. -1.
<mgrwt>
<rscale>  0 0.14807301E+04</rscale>
<asrwt>0</asrwt>
<pdfrwt beam="1">  1        2 0.34424612E+00 0.14807301E+04</pdfrwt>
<pdfrwt beam="2">  1       -1 0.37687387E-01 0.14807301E+04</pdfrwt>
<totfact> 0.36847864E+01</totfact>
</mgrwt>
</event>
<event>
12    6  0.1556619E-007  0.2394777E+04  0.7818608E-02  0.8441462E-01
         -1   -1    0    0    0  501 -0.00000000000E+00  0.00000000000E+00  0.76144611987E+03  0.76144611987E+03  0.00000000000E+00 0.  1.
          2   -1    0    0  501    0  0.00000000000E+00 -0.00000000000E+00 -0.18829157406E+04  0.18829157406E+04  0.00000000000E+00 0. -1.
         24    2    1    2    0    0  0.49952257668E+03 -0.58160625063E+03  0.27240784672E+03  0.81742867270E+03  0.78708097575E+02 0.  0.
        254    2    1    2    0    0 -0.49952257668E+03  0.58160625063E+03 -0.13938774674E+04  0.18269331877E+04  0.89833281296E+03 0.  0.
         23    2    4    4    0    0  0.21340691324E+03  0.17628266320E+03 -0.13460463172E+03  0.32146207358E+03  0.92743570697E+02 0.  0.
         23    2    4    4    0    0 -0.71292948992E+03  0.40532358742E+03 -0.12592728357E+04  0.15054711141E+04  0.90108449423E+02 0.  0.
          2    1    3    3  502    0  0.21850960659E+03 -0.19920796639E+03  0.90757204313E+02  0.30930103811E+03  0.00000000000E+00 0. -1.
         -1    1    3    3    0  502  0.28101297010E+03 -0.38239828423E+03  0.18165064241E+03  0.50812763459E+03  0.00000000000E+00 0.  1.
         11    1    5    5    0    0  0.97788942083E+02  0.38338769884E+02 -0.84002527246E+02  0.13449521573E+03  0.00000000000E+00 0. -1.
        -11    1    5    5    0    0  0.11561797116E+03  0.13794389332E+03 -0.50602104473E+02  0.18696685785E+03  0.00000000000E+00 0.  1.
          4    1    6    6  503    0 -0.21306689744E+03  0.16935151710E+03 -0.40466586927E+03  0.48768012557E+03  0.00000000000E+00 0. -1.
         -4    1    6    6    0  503 -0.49986259248E+03  0.23597207033E+03 -0.85460696643E+03  0.10177909886E+04  0.00000000000E+00 0.  1.
<mgrwt>
<rscale>  0 0.23947767E+04</rscale>
<asrwt>0</asrwt>
<pdfrwt beam="1">  1        2 0.28967934E+00 0.23947767E+04</pdfrwt>
<pdfrwt beam="2">  1       -1 0.11714556E+00 0.23947767E+04</pdfrwt>
<totfact> 0.52169569E+00</totfact>
</mgrwt>
</event>
<event>
12    6  0.1556619E-007  0.1420301E+04  0.7818608E-02  0.8939253E-01
          2   -1    0    0  501    0  0.00000000000E+00  0.00000000000E+00  0.20437334175E+04  0.20437334175E+04  0.00000000000E+00 0. -1.
         -1   -1    0    0    0  501 -0.00000000000E+00 -0.00000000000E+00 -0.24676100534E+03  0.24676100534E+03  0.00000000000E+00 0.  1.
         24    2    1    2    0    0 -0.21574609215E+02  0.29690274404E+03  0.10050752127E+04  0.10522891597E+04  0.92301620415E+02 0.  0.
        254    2    1    2    0    0  0.21574609215E+02 -0.29690274404E+03  0.79189719948E+03  0.12382052632E+04  0.90412078625E+03 0.  0.
         23    2    4    4    0    0  0.26417612490E+03 -0.49966365202E+03  0.68390156479E+03  0.89183550208E+03  0.90534094828E+02 0.  0.
         23    2    4    4    0    0 -0.24260151569E+03  0.20276090798E+03  0.10799563469E+03  0.34636976114E+03  0.91331665371E+02 0.  0.
          4    1    3    3  502    0 -0.15019633999E+02  0.16297026142E+03  0.70283305241E+03  0.72163647017E+03  0.00000000000E+00 0. -1.
         -3    1    3    3    0  502 -0.65549752159E+01  0.13393248262E+03  0.30224216031E+03  0.33065268949E+03  0.00000000000E+00 0.  1.
         11    1    5    5    0    0  0.23652823838E+03 -0.48760015605E+03  0.64104505276E+03  0.83942735207E+03  0.00000000000E+00 0. -1.
        -11    1    5    5    0    0  0.27647886519E+02 -0.12063495968E+02  0.42856512029E+02  0.52408150008E+02  0.00000000000E+00 0.  1.
          2    1    6    6  503    0 -0.19943363981E+03  0.13993226180E+03  0.11578707381E+03  0.26974332437E+03  0.00000000000E+00 0. -1.
         -2    1    6    6    0  503 -0.43167875881E+02  0.62828646178E+02 -0.77914391174E+01  0.76626436771E+02  0.00000000000E+00 0.  1.
<mgrwt>
<rscale>  0 0.14203010E+04</rscale>
<asrwt>0</asrwt>
<pdfrwt beam="1">  1        2 0.31442051E+00 0.14203010E+04</pdfrwt>
<pdfrwt beam="2">  1       -1 0.37963233E-01 0.14203010E+04</pdfrwt>
<totfact> 0.46889972E+01</totfact>
</mgrwt>
</event>
<event>
12    6  0.1556619E-007  0.1557331E+04  0.7818608E-02  0.8847198E-01
          2   -1    0    0  501    0  0.00000000000E+00  0.00000000000E+00  0.11636034273E+04  0.11636034273E+04  0.00000000000E+00 0. -1.
         -1   -1    0    0    0  501 -0.00000000000E+00 -0.00000000000E+00 -0.52107116332E+03  0.52107116332E+03  0.00000000000E+00 0.  1.
         24    2    1    2    0    0 -0.30589035538E+03 -0.34474763095E+03  0.46140554454E+03  0.65658467722E+03  0.76082345328E+02 0.  0.
        254    2    1    2    0    0  0.30589035538E+03  0.34474763095E+03  0.18112671940E+03  0.10280899134E+04  0.90096733732E+03 0.  0.
         23    2    4    4    0    0  0.22893065347E+02  0.57827601062E+03  0.25942920574E+03  0.64214169304E+03  0.10057437178E+03 0.  0.
         23    2    4    4    0    0  0.28299729004E+03 -0.23352837966E+03 -0.78302486336E+02  0.38594822033E+03  0.90563674450E+02 0.  0.
          2    1    3    3  502    0 -0.17880621162E+03 -0.25519667880E+03  0.30294649949E+03  0.43459589015E+03  0.00000000000E+00 0. -1.
         -1    1    3    3    0  502 -0.12708414377E+03 -0.89550952152E+02  0.15845904505E+03  0.22198878707E+03  0.00000000000E+00 0.  1.
         11    1    5    5    0    0  0.14688175199E+02  0.25970323101E+02 -0.41261691802E+01  0.30120183345E+02  0.00000000000E+00 0. -1.
        -11    1    5    5    0    0  0.82048901477E+01  0.55230568751E+03  0.26355537492E+03  0.61202150970E+03  0.00000000000E+00 0.  1.
          1    1    6    6  503    0  0.86577218983E+02 -0.10132349777E+03  0.90481873992E+01  0.13358119532E+03  0.00000000000E+00 0. -1.
         -1    1    6    6    0  503  0.19642007105E+03 -0.13220488189E+03 -0.87350673735E+02  0.25236702500E+03  0.00000000000E+00 0.  1.
<mgrwt>
<rscale>  0 0.15573313E+04</rscale>
<asrwt>0</asrwt>
<pdfrwt beam="1">  1        2 0.17901591E+00 0.15573313E+04</pdfrwt>
<pdfrwt beam="2">  1       -1 0.80164794E-01 0.15573313E+04</pdfrwt>
<totfact> 0.33946114E+01</totfact>
</mgrwt>
</event>
<event>
12    6  0.1556619E-007  0.1419128E+04  0.7818608E-02  0.8940088E-01
          2   -1    0    0  501    0  0.00000000000E+00  0.00000000000E+00  0.51220755129E+03  0.51220755129E+03  0.00000000000E+00 0. -1.
         -1   -1    0    0    0  501 -0.00000000000E+00 -0.00000000000E+00 -0.98296234247E+03  0.98296234247E+03  0.00000000000E+00 0.  1.
         24    2    1    2    0    0  0.31712841627E+03 -0.89893342329E+02  0.14059423169E+03  0.36784225061E+03  0.83005650076E+02 0.  0.
        254    2    1    2    0    0 -0.31712841627E+03  0.89893342329E+02 -0.61134902286E+03  0.11273276432E+04  0.88795762391E+03 0.  0.
         23    2    4    4    0    0 -0.55124561316E+03  0.11001968951E+03 -0.65915420062E+03  0.87109635655E+03  0.91370367726E+02 0.  0.
         23    2    4    4    0    0  0.23411719689E+03 -0.20126347182E+02  0.47805177757E+02  0.25623128660E+03  0.90295102213E+02 0.  0.
          4    1    3    3  502    0  0.19674527848E+03 -0.33795131860E+02  0.46201678092E+02  0.20490341774E+03  0.00000000000E+00 0. -1.
         -3    1    3    3    0  502  0.12038313779E+03 -0.56098210469E+02  0.94392553594E+02  0.16293883287E+03  0.00000000000E+00 0.  1.
         11    1    5    5    0    0 -0.84870245275E+02  0.10458808574E+02 -0.15570796150E+03  0.17764378538E+03  0.00000000000E+00 0. -1.
        -11    1    5    5    0    0 -0.46637536788E+03  0.99560880937E+02 -0.50344623912E+03  0.69345257117E+03  0.00000000000E+00 0.  1.
          2    1    6    6  503    0  0.14777755498E+03 -0.34926588372E+02  0.67929379517E+02  0.16635045215E+03  0.00000000000E+00 0. -1.
         -2    1    6    6    0  503  0.86339641909E+02  0.14800241190E+02 -0.20124201760E+02  0.89880834447E+02  0.00000000000E+00 0.  1.
<mgrwt>
<rscale>  0 0.14191275E+04</rscale>
<asrwt>0</asrwt>
<pdfrwt beam="1">  1        2 0.78801163E-01 0.14191275E+04</pdfrwt>
<pdfrwt beam="2">  1       -1 0.15122497E+00 0.14191275E+04</pdfrwt>
<totfact> 0.22709019E+01</totfact>
</mgrwt>
</event>
<event>
12    6  0.1556619E-007  0.1704745E+04  0.7818608E-02  0.8758663E-01
         -1   -1    0    0    0  501 -0.00000000000E+00  0.00000000000E+00  0.45697668580E+03  0.45697668580E+03  0.00000000000E+00 0.  1.
          2   -1    0    0  501    0  0.00000000000E+00 -0.00000000000E+00 -0.15898810364E+04  0.15898810364E+04  0.00000000000E+00 0. -1.
         24    2    1    2    0    0 -0.23595015904E+03  0.55048413379E+03 -0.26908619847E+03  0.66169854520E+03  0.82050736804E+02 0.  0.
        254    2    1    2    0    0  0.23595015904E+03 -0.55048413379E+03 -0.86381815211E+03  0.13851591770E+04  0.90209693857E+03 0.  0.
         23    2    4    4    0    0 -0.21988023353E+03 -0.46505090860E+03 -0.17764690698E+03  0.55179236068E+03  0.91086338513E+02 0.  0.
         23    2    4    4    0    0  0.45583039257E+03 -0.85433225189E+02 -0.68617124513E+03  0.83336681630E+03  0.92677344117E+02 0.  0.
          4    1    3    3  502    0 -0.13214499048E+03  0.29389897024E+03 -0.18891365476E+03  0.37353349538E+03  0.00000000000E+00 0. -1.
         -3    1    3    3    0  502 -0.10380516856E+03  0.25658516354E+03 -0.80172543710E+02  0.28816504982E+03  0.00000000000E+00 0.  1.
         11    1    5    5    0    0 -0.12104540683E+03 -0.29878928881E+03 -0.68053607572E+02  0.32948190106E+03  0.00000000000E+00 0. -1.
        -11    1    5    5    0    0 -0.98834826703E+02 -0.16626161979E+03 -0.10959329941E+03  0.22231045963E+03  0.00000000000E+00 0.  1.
          3    1    6    6  503    0  0.41578532273E+03 -0.67084889174E+02 -0.65745427121E+03  0.78078417996E+03  0.00000000000E+00 0. -1.
         -3    1    6    6    0  503  0.40045069841E+02 -0.18348336015E+02 -0.28716973926E+02  0.52582636341E+02  0.00000000000E+00 0.  1.
<mgrwt>
<rscale>  0 0.17047446E+04</rscale>
<asrwt>0</asrwt>
<pdfrwt beam="1">  1        2 0.24459708E+00 0.17047446E+04</pdfrwt>
<pdfrwt beam="2">  1       -1 0.70304106E-01 0.17047446E+04</pdfrwt>
<totfact> 0.25037799E+01</totfact>
</mgrwt>
</event>
<event>
12    6  0.1556619E-007  0.1388687E+04  0.7818608E-02  0.8962048E-01
          2   -1    0    0  501    0  0.00000000000E+00  0.00000000000E+00  0.28461766199E+03  0.28461766199E+03  0.00000000000E+00 0. -1.
         -1   -1    0    0    0  501 -0.00000000000E+00 -0.00000000000E+00 -0.16938976583E+04  0.16938976583E+04  0.00000000000E+00 0.  1.
         24    2    1    2    0    0 -0.29696175363E+02 -0.25744491893E+03 -0.84490714269E+03  0.88773109513E+03  0.83896772146E+02 0.  0.
        254    2    1    2    0    0  0.29696175363E+02  0.25744491893E+03 -0.56437285367E+03  0.10907842252E+04  0.89673505502E+03 0.  0.
         23    2    4    4    0    0  0.12195759008E+03 -0.16605840164E+03  0.13560967214E+03  0.26241818717E+03  0.89578319051E+02 0.  0.
         23    2    4    4    0    0 -0.92261414720E+02  0.42350332057E+03 -0.69998252581E+03  0.82836603804E+03  0.91364792834E+02 0.  0.
          4    1    3    3  502    0  0.43418282239E+01 -0.65513479266E+02 -0.34446064012E+03  0.35066223069E+03  0.00000000000E+00 0. -1.
         -3    1    3    3    0  502 -0.34038003587E+02 -0.19193143966E+03 -0.50044650257E+03  0.53706886444E+03  0.00000000000E+00 0.  1.
         11    1    5    5    0    0  0.11762765876E+02 -0.86113990475E+00 -0.10570743155E+02  0.15838081760E+02  0.00000000000E+00 0.  1.
        -11    1    5    5    0    0  0.11019482421E+03 -0.16519726173E+03  0.14618041530E+03  0.24658010541E+03  0.00000000000E+00 0. -1.
          4    1    6    6  503    0 -0.62361972954E+02  0.39638554364E+03 -0.61565080500E+03  0.73487170892E+03  0.00000000000E+00 0. -1.
         -4    1    6    6    0  503 -0.29899441766E+02  0.27117776928E+02 -0.84331720807E+02  0.93494329121E+02  0.00000000000E+00 0.  1.
<mgrwt>
<rscale>  0 0.13886874E+04</rscale>
<asrwt>0</asrwt>
<pdfrwt beam="1">  1        2 0.43787334E-01 0.13886874E+04</pdfrwt>
<pdfrwt beam="2">  1       -1 0.26059963E+00 0.13886874E+04</pdfrwt>
<totfact> 0.77378117E+00</totfact>
</mgrwt>
</event>
<event>
12    6  0.1556619E-007  0.1398348E+04  0.7818608E-02  0.8955015E-01
         -1   -1    0    0    0  501 -0.00000000000E+00  0.00000000000E+00  0.39799972449E+03  0.39799972449E+03  0.00000000000E+00 0.  1.
          2   -1    0    0  501    0  0.00000000000E+00 -0.00000000000E+00 -0.12282522353E+04  0.12282522353E+04  0.00000000000E+00 0. -1.
         24    2    1    2    0    0 -0.25321211982E+03  0.22450068481E+03  0.18102152359E+02  0.34829674876E+03  0.80411455491E+02 0.  0.
        254    2    1    2    0    0  0.25321211982E+03 -0.22450068481E+03 -0.84835466317E+03  0.12779552110E+04  0.89383832530E+03 0.  0.
         23    2    4    4    0    0  0.43300524055E+03 -0.35878645700E+03 -0.23031348867E+03  0.61416427535E+03  0.89062865342E+02 0.  0.
         23    2    4    4    0    0 -0.17979312073E+03  0.13428577219E+03 -0.61804117450E+03  0.66379093568E+03  0.91023502672E+02 0.  0.
          4    1    3    3  502    0 -0.34627354541E+02  0.58326468480E+02  0.28374548109E+02  0.73526495824E+02  0.00000000000E+00 0. -1.
         -3    1    3    3    0  502 -0.21858476528E+03  0.16617421633E+03 -0.10272395750E+02  0.27477025294E+03  0.00000000000E+00 0.  1.
         11    1    5    5    0    0  0.37795032954E+03 -0.34670255661E+03 -0.20410471717E+03  0.55200348724E+03  0.00000000000E+00 0. -1.
        -11    1    5    5    0    0  0.55054911003E+02 -0.12083900397E+02 -0.26208771495E+02  0.62160788103E+02  0.00000000000E+00 0.  1.
          1    1    6    6  503    0 -0.83182047854E+02  0.11494523040E+03 -0.40313631882E+03  0.42737635713E+03  0.00000000000E+00 0. -1.
         -1    1    6    6    0  503 -0.96611072876E+02  0.19340541793E+02 -0.21490485568E+03  0.23641457856E+03  0.00000000000E+00 0.  1.
<mgrwt>
<rscale>  0 0.13983477E+04</rscale>
<asrwt>0</asrwt>
<pdfrwt beam="1">  1        2 0.18896188E+00 0.13983477E+04</pdfrwt>
<pdfrwt beam="2">  1       -1 0.61230728E-01 0.13983477E+04</pdfrwt>
<totfact> 0.54700246E+01</totfact>
</mgrwt>
</event>
<event>
12    6  0.1556619E-007  0.1595302E+04  0.7818608E-02  0.8823439E-01
         -1   -1    0    0    0  501 -0.00000000000E+00  0.00000000000E+00  0.29786051932E+03  0.29786051932E+03  0.00000000000E+00 0.  1.
          2   -1    0    0  501    0  0.00000000000E+00 -0.00000000000E+00 -0.21360579733E+04  0.21360579733E+04  0.00000000000E+00 0. -1.
         24    2    1    2    0    0  0.92034608663E+02  0.52790647395E+03 -0.66574258278E+03  0.85848451081E+03  0.81405493357E+02 0.  0.
        254    2    1    2    0    0 -0.92034608663E+02 -0.52790647395E+03 -0.11724548712E+04  0.15754339818E+04  0.90564131511E+03 0.  0.
         23    2    4    4    0    0  0.78725181156E+02  0.18176579983E+03 -0.61291010584E+03  0.65064181712E+03  0.91866839577E+02 0.  0.
         23    2    4    4    0    0 -0.17075978982E+03 -0.70967227379E+03 -0.55954476541E+03  0.92479216473E+03  0.96729320532E+02 0.  0.
          4    1    3    3  502    0  0.45616515770E+02  0.18624723168E+03 -0.18149226426E+03  0.26402336981E+03  0.00000000000E+00 0. -1.
         -3    1    3    3    0  502  0.46418092893E+02  0.34165924228E+03 -0.48425031852E+03  0.59446114101E+03  0.00000000000E+00 0.  1.
         11    1    5    5    0    0  0.56342530534E+02  0.18698867398E+03 -0.55333157149E+03  0.58678366793E+03  0.00000000000E+00 0. -1.
        -11    1    5    5    0    0  0.22382650622E+02 -0.52228741442E+01 -0.59578534343E+02  0.63858149187E+02  0.00000000000E+00 0.  1.
          1    1    6    6  503    0 -0.16854887470E+03 -0.70514621498E+03 -0.53840719509E+03  0.90306268630E+03  0.00000000000E+00 0. -1.
         -1    1    6    6    0  503 -0.22109151142E+01 -0.45260588071E+01 -0.21137570312E+02  0.21729478426E+02  0.00000000000E+00 0.  1.
<mgrwt>
<rscale>  0 0.15953023E+04</rscale>
<asrwt>0</asrwt>
<pdfrwt beam="1">  1        2 0.32862430E+00 0.15953023E+04</pdfrwt>
<pdfrwt beam="2">  1       -1 0.45824696E-01 0.15953023E+04</pdfrwt>
<totfact> 0.29025389E+01</totfact>
</mgrwt>
</event>
<event>
12    6  0.1556619E-007  0.1189747E+04  0.7818608E-02  0.9121879E-01
         -1   -1    0    0    0  501 -0.00000000000E+00  0.00000000000E+00  0.26951735492E+03  0.26951735492E+03  0.00000000000E+00 0.  1.
          2   -1    0    0  501    0  0.00000000000E+00 -0.00000000000E+00 -0.13129926524E+04  0.13129926524E+04  0.00000000000E+00 0. -1.
         24    2    1    2    0    0 -0.12154461646E+03  0.20286640553E+03 -0.14498912855E+03  0.28831371883E+03  0.78581682235E+02 0.  0.
        254    2    1    2    0    0  0.12154461646E+03 -0.20286640553E+03 -0.89848616897E+03  0.12941962885E+04  0.90096546279E+03 0.  0.
         23    2    4    4    0    0  0.40967915372E+03 -0.36165309119E+03 -0.72376154040E+03  0.91146244403E+03  0.91121085157E+02 0.  0.
         23    2    4    4    0    0 -0.28813453726E+03  0.15878668565E+03 -0.17472462857E+03  0.38273384450E+03  0.87873641061E+02 0.  0.
          2    1    3    3  502    0  0.85320617736E+01  0.24808430135E+02 -0.29192252991E+02  0.39248463900E+02  0.00000000000E+00 0. -1.
         -1    1    3    3    0  502 -0.13007667823E+03  0.17805797540E+03 -0.11579687556E+03  0.24906525493E+03  0.00000000000E+00 0.  1.
         11    1    5    5    0    0  0.15599686787E+03 -0.11390745522E+03 -0.32302965220E+03  0.37637492921E+03  0.00000000000E+00 0. -1.
        -11    1    5    5    0    0  0.25368228585E+03 -0.24774563597E+03 -0.40073188821E+03  0.53508751482E+03  0.00000000000E+00 0.  1.
          2    1    6    6  503    0 -0.74715536480E+02  0.29678911078E+02 -0.40460537622E+01  0.80496085031E+02  0.00000000000E+00 0. -1.
         -2    1    6    6    0  503 -0.21341900078E+03  0.12910777458E+03 -0.17067857481E+03  0.30223775947E+03  0.00000000000E+00 0.  1.
<mgrwt>
<rscale>  0 0.11897467E+04</rscale>
<asrwt>0</asrwt>
<pdfrwt beam="1">  1        2 0.20199887E+00 0.11897467E+04</pdfrwt>
<pdfrwt beam="2">  1       -1 0.41464209E-01 0.11897467E+04</pdfrwt>
<totfact> 0.10417163E+02</totfact>
</mgrwt>
</event>
<event>
12    6  0.1556619E-007  0.2315182E+04  0.7818608E-02  0.8471959E-01
         -1   -1    0    0    0  501 -0.00000000000E+00  0.00000000000E+00  0.79461536122E+03  0.79461536122E+03  0.00000000000E+00 0.  1.
          2   -1    0    0  501    0  0.00000000000E+00 -0.00000000000E+00 -0.16863713812E+04  0.16863713812E+04  0.00000000000E+00 0. -1.
         24    2    1    2    0    0  0.36644381507E+03  0.33162973748E+03 -0.12924767033E+04  0.13858326924E+04  0.76005727544E+02 0.  0.
        254    2    1    2    0    0 -0.36644381507E+03 -0.33162973748E+03  0.40072068327E+03  0.10951540500E+04  0.89136186524E+03 0.  0.
         23    2    4    4    0    0 -0.57403597473E+03 -0.47339138853E+03  0.26069451891E+03  0.79357386242E+03  0.90449631885E+02 0.  0.
         23    2    4    4    0    0  0.20759215966E+03  0.14176165105E+03  0.14002616436E+03  0.30158018755E+03  0.90290710251E+02 0.  0.
          4    1    3    3  502    0  0.19676360988E+03  0.13687598662E+03 -0.68482572044E+03  0.72555993637E+03  0.00000000000E+00 0. -1.
         -3    1    3    3    0  502  0.16968020519E+03  0.19475375086E+03 -0.60765098282E+03  0.66027275608E+03  0.00000000000E+00 0.  1.
         11    1    5    5    0    0 -0.57419226197E+03 -0.47273843730E+03  0.25264811028E+03  0.78549949168E+03  0.00000000000E+00 0. -1.
        -11    1    5    5    0    0  0.15628723527E+00 -0.65295122904E+00  0.80464086290E+01  0.80743707391E+01  0.00000000000E+00 0.  1.
          1    1    6    6  503    0  0.18555790853E+03  0.10295067456E+03  0.80005019052E+02  0.22678488019E+03  0.00000000000E+00 0. -1.
         -1    1    6    6    0  503  0.22034251131E+02  0.38810976490E+02  0.60021145308E+02  0.74795307360E+02  0.00000000000E+00 0.  1.
<mgrwt>
<rscale>  0 0.23151817E+04</rscale>
<asrwt>0</asrwt>
<pdfrwt beam="1">  1        2 0.25944175E+00 0.23151817E+04</pdfrwt>
<pdfrwt beam="2">  1       -1 0.12224852E+00 0.23151817E+04</pdfrwt>
<totfact> 0.60856217E+00</totfact>
</mgrwt>
</event>
<event>
12    6  0.1556619E-007  0.3285993E+04  0.7818608E-02  0.8166469E-01
         -1   -1    0    0    0  501 -0.00000000000E+00  0.00000000000E+00  0.13215677795E+04  0.13215677795E+04  0.00000000000E+00 0.  1.
          2   -1    0    0  501    0  0.00000000000E+00 -0.00000000000E+00 -0.20426021896E+04  0.20426021896E+04  0.00000000000E+00 0. -1.
         24    2    1    2    0    0  0.13223852397E+04  0.73895793837E+03 -0.20068429571E+03  0.15300806135E+04  0.78172503408E+02 0.  0.
        254    2    1    2    0    0 -0.13223852397E+04 -0.73895793837E+03 -0.52035011446E+03  0.18340893556E+04  0.89350879456E+03 0.  0.
         23    2    4    4    0    0 -0.28926695158E+03 -0.35882567995E+03  0.20699229668E+03  0.51164553696E+03  0.80648042366E+02 0.  0.
         23    2    4    4    0    0 -0.10331182881E+04 -0.38013225843E+03 -0.72734241114E+03  0.13224438187E+04  0.89424489712E+02 0.  0.
          2    1    3    3  502    0  0.13531047540E+03  0.76591769042E+02 -0.44779616239E+02  0.16180370165E+03  0.00000000000E+00 0. -1.
         -1    1    3    3    0  502  0.11870747643E+04  0.66236616933E+03 -0.15590467948E+03  0.13682769118E+04  0.00000000000E+00 0.  1.
         11    1    5    5    0    0 -0.27361394137E+03 -0.31953129822E+03  0.16450381823E+03  0.45169275583E+03  0.00000000000E+00 0. -1.
        -11    1    5    5    0    0 -0.15653010204E+02 -0.39294381723E+02  0.42488478452E+02  0.59952781125E+02  0.00000000000E+00 0.  1.
          2    1    6    6  503    0 -0.25691927343E+03 -0.98575061302E+02 -0.13680331783E+03  0.30731043513E+03  0.00000000000E+00 0.  1.
         -2    1    6    6    0  503 -0.77619901471E+03 -0.28155719712E+03 -0.59053909330E+03  0.10151333836E+04  0.00000000000E+00 0. -1.
<mgrwt>
<rscale>  0 0.32859928E+04</rscale>
<asrwt>0</asrwt>
<pdfrwt beam="1">  1        2 0.31424649E+00 0.32859928E+04</pdfrwt>
<pdfrwt beam="2">  1       -1 0.20331812E+00 0.32859928E+04</pdfrwt>
<totfact> 0.85905524E-01</totfact>
</mgrwt>
</event>
<event>
12    6  0.1556619E-007  0.2902297E+04  0.7818608E-02  0.8272194E-01
          2   -1    0    0  501    0  0.00000000000E+00  0.00000000000E+00  0.95301370724E+03  0.95301370724E+03  0.00000000000E+00 0. -1.
         -1   -1    0    0    0  501 -0.00000000000E+00 -0.00000000000E+00 -0.22096552481E+04  0.22096552481E+04  0.00000000000E+00 0.  1.
         24    2    1    2    0    0 -0.65810000293E+03 -0.30782330062E+03  0.61844895784E+03  0.95733661662E+03  0.78507870942E+02 0.  0.
        254    2    1    2    0    0  0.65810000293E+03  0.30782330062E+03 -0.18750904987E+04  0.22053323388E+04  0.90535934728E+03 0.  0.
         23    2    4    4    0    0  0.81905896795E+03  0.41903149102E+03 -0.16533869435E+04  0.18943004751E+04  0.90779522530E+02 0.  0.
         23    2    4    4    0    0 -0.16095896502E+03 -0.11120819040E+03 -0.22170355526E+03  0.31103186365E+03  0.96505459739E+02 0.  0.
          4    1    3    3  502    0 -0.31723582518E+03 -0.17048695262E+03  0.26189815401E+03  0.44530328190E+03  0.00000000000E+00 0. -1.
         -3    1    3    3    0  502 -0.34086417775E+03 -0.13733634800E+03  0.35655080383E+03  0.51203333472E+03  0.00000000000E+00 0.  1.
         11    1    5    5    0    0  0.53875838169E+02  0.54286777303E+02 -0.15149546055E+03  0.16970720284E+03  0.00000000000E+00 0. -1.
        -11    1    5    5    0    0  0.76518312978E+03  0.36474471372E+03 -0.15018914829E+04  0.17245932723E+04  0.00000000000E+00 0.  1.
          2    1    6    6  503    0 -0.38248917217E+02 -0.42417830392E+02 -0.13294517405E+03  0.14469509773E+03  0.00000000000E+00 0. -1.
         -2    1    6    6    0  503 -0.12271004780E+03 -0.68790360012E+02 -0.88758381203E+02  0.16633676592E+03  0.00000000000E+00 0.  1.
<mgrwt>
<rscale>  0 0.29022968E+04</rscale>
<asrwt>0</asrwt>
<pdfrwt beam="1">  1        2 0.14661749E+00 0.29022968E+04</pdfrwt>
<pdfrwt beam="2">  1       -1 0.33994696E+00 0.29022968E+04</pdfrwt>
<totfact> 0.48126312E-01</totfact>
</mgrwt>
</event>
<event>
12    6  0.1556619E-007  0.2797962E+04  0.7818608E-02  0.8303901E-01
          2   -1    0    0  501    0  0.00000000000E+00  0.00000000000E+00  0.30804845522E+04  0.30804845522E+04  0.00000000000E+00 0. -1.
         -1   -1    0    0    0  501 -0.00000000000E+00 -0.00000000000E+00 -0.63533767345E+03  0.63533767345E+03  0.00000000000E+00 0.  1.
         24    2    1    2    0    0 -0.10447470342E+03 -0.12128045731E+04  0.14923086336E+04  0.19274858262E+04  0.80041589651E+02 0.  0.
        254    2    1    2    0    0  0.10447470342E+03  0.12128045731E+04  0.95283824517E+03  0.17883363995E+04  0.89913094707E+03 0.  0.
         23    2    4    4    0    0  0.24068122979E+03  0.87309750377E+03  0.17887978296E+03  0.92742976998E+03  0.88889234626E+02 0.  0.
         23    2    4    4    0    0 -0.13620652637E+03  0.33970706935E+03  0.77395846221E+03  0.86090662949E+03  0.90528518627E+02 0.  0.
          2    1    3    3  502    0 -0.48174397987E+02 -0.51068081740E+03  0.69141954473E+03  0.86091617287E+03  0.00000000000E+00 0. -1.
         -1    1    3    3    0  502 -0.56300305436E+02 -0.70212375572E+03  0.80088908888E+03  0.10665696533E+04  0.00000000000E+00 0.  1.
         11    1    5    5    0    0  0.49242487855E+01  0.76852577835E+02 -0.40100862234E+01  0.77114510551E+02  0.00000000000E+00 0. -1.
        -11    1    5    5    0    0  0.23575698100E+03  0.79624492593E+03  0.18288986918E+03  0.85031525943E+03  0.00000000000E+00 0.  1.
          1    1    6    6  503    0 -0.13936965689E+01  0.58747187232E+02  0.19162946278E+03  0.20043708590E+03  0.00000000000E+00 0. -1.
         -1    1    6    6    0  503 -0.13481282980E+03  0.28095988212E+03  0.58232899943E+03  0.66046954359E+03  0.00000000000E+00 0.  1.
<mgrwt>
<rscale>  0 0.27979620E+04</rscale>
<asrwt>0</asrwt>
<pdfrwt beam="1">  1        2 0.47392069E+00 0.27979620E+04</pdfrwt>
<pdfrwt beam="2">  1       -1 0.97744259E-01 0.27979620E+04</pdfrwt>
<totfact> 0.15373577E+00</totfact>
</mgrwt>
</event>
<event>
12    6  0.1556619E-007  0.1205641E+04  0.7818608E-02  0.9107933E-01
         -1   -1    0    0    0  501 -0.00000000000E+00  0.00000000000E+00  0.14459743767E+03  0.14459743767E+03  0.00000000000E+00 0.  1.
          2   -1    0    0  501    0  0.00000000000E+00 -0.00000000000E+00 -0.25131330030E+04  0.25131330030E+04  0.00000000000E+00 0. -1.
         24    2    1    2    0    0 -0.16446022480E+03 -0.33969430994E+02 -0.96355761970E+03  0.98121872513E+03  0.78395231228E+02 0.  0.
        254    2    1    2    0    0  0.16446022480E+03  0.33969430994E+02 -0.14049779457E+04  0.16765117156E+04  0.89918152609E+03 0.  0.
         23    2    4    4    0    0  0.25949513409E+03  0.40199206196E+03 -0.54190372746E+03  0.72917517462E+03  0.95401482975E+02 0.  0.
         23    2    4    4    0    0 -0.95034909290E+02 -0.36802263097E+03 -0.86307421821E+03  0.94733654095E+03  0.89872825703E+02 0.  0.
          4    1    3    3  502    0 -0.10706888728E+03 -0.59457858876E+02 -0.62482745592E+03  0.63671683916E+03  0.00000000000E+00 0. -1.
         -1    1    3    3    0  502 -0.57391337525E+02  0.25488427882E+02 -0.33873016378E+03  0.34450188597E+03  0.00000000000E+00 0.  1.
         11    1    5    5    0    0  0.20632387797E+03  0.37325451048E+03 -0.48899410418E+03  0.64884798384E+03  0.00000000000E+00 0.  1.
        -11    1    5    5    0    0  0.53171256125E+02  0.28737551481E+02 -0.52909623276E+02  0.80327190778E+02  0.00000000000E+00 0. -1.
          1    1    6    6  503    0  0.62882338705E+00 -0.46728637766E+01 -0.65729532639E+02  0.65898425897E+02  0.00000000000E+00 0. -1.
         -1    1    6    6    0  503 -0.95663732677E+02 -0.36334976719E+03 -0.79734468557E+03  0.88143811506E+03  0.00000000000E+00 0.  1.
<mgrwt>
<rscale>  0 0.12056411E+04</rscale>
<asrwt>0</asrwt>
<pdfrwt beam="1">  1        2 0.38663580E+00 0.12056411E+04</pdfrwt>
<pdfrwt beam="2">  1       -1 0.22245762E-01 0.12056411E+04</pdfrwt>
<totfact> 0.66122410E+01</totfact>
</mgrwt>
</event>
<event>
12    6  0.1556619E-007  0.2553917E+04  0.7818608E-02  0.8384025E-01
          2   -1    0    0  501    0  0.00000000000E+00  0.00000000000E+00  0.23897158516E+04  0.23897158516E+04  0.00000000000E+00 0. -1.
         -1   -1    0    0    0  501 -0.00000000000E+00 -0.00000000000E+00 -0.68235021574E+03  0.68235021574E+03  0.00000000000E+00 0.  1.
         24    2    1    2    0    0  0.10722478687E+04  0.20703049105E+03  0.70027529490E+03  0.12999753911E+04  0.83506960411E+02 0.  0.
        254    2    1    2    0    0 -0.10722478687E+04 -0.20703049105E+03  0.10070903410E+04  0.17720906763E+04  0.96617663701E+03 0.  0.
         23    2    4    4    0    0 -0.11405076425E+04 -0.38195683326E+03  0.99369184128E+03  0.15628234373E+04  0.91350509878E+02 0.  0.
         23    2    4    4    0    0  0.68259773717E+02  0.17492634221E+03  0.13398499684E+02  0.20926723903E+03  0.91403695921E+02 0.  0.
          4    1    3    3  502    0  0.16579087001E+03  0.50682727768E+02  0.14090852532E+03  0.22340672322E+03  0.00000000000E+00 0. -1.
         -3    1    3    3    0  502  0.90645699874E+03  0.15634776328E+03  0.55936676958E+03  0.10765686678E+04  0.00000000000E+00 0.  1.
         11    1    5    5    0    0 -0.71308422630E+03 -0.26819193313E+03  0.67243166954E+03  0.10161596218E+04  0.00000000000E+00 0. -1.
        -11    1    5    5    0    0 -0.42742341616E+03 -0.11376490014E+03  0.32126017174E+03  0.54666381546E+03  0.00000000000E+00 0.  1.
          2    1    6    6  503    0  0.79448809971E+02  0.14782297398E+03  0.36732742157E+02  0.17179359530E+03  0.00000000000E+00 0.  1.
         -2    1    6    6    0  503 -0.11189036255E+02  0.27103368237E+02 -0.23334242472E+02  0.37473643722E+02  0.00000000000E+00 0. -1.
<mgrwt>
<rscale>  0 0.25539171E+04</rscale>
<asrwt>0</asrwt>
<pdfrwt beam="1">  1        2 0.36764859E+00 0.25539171E+04</pdfrwt>
<pdfrwt beam="2">  1       -1 0.10497696E+00 0.25539171E+04</pdfrwt>
<totfact> 0.34658199E+00</totfact>
</mgrwt>
</event>
<event>
12    6  0.1556619E-007  0.1311207E+04  0.7818608E-02  0.9020725E-01
          2   -1    0    0  501    0  0.00000000000E+00  0.00000000000E+00  0.95370795877E+03  0.95370795877E+03  0.00000000000E+00 0. -1.
         -1   -1    0    0    0  501 -0.00000000000E+00 -0.00000000000E+00 -0.45067891296E+03  0.45067891296E+03  0.00000000000E+00 0.  1.
         24    2    1    2    0    0  0.17832297043E+03  0.29187622049E+03  0.12279100606E+03  0.37144704856E+03  0.76840541648E+02 0.  0.
        254    2    1    2    0    0 -0.17832297043E+03 -0.29187622049E+03  0.38023803975E+03  0.10329398232E+04  0.89743685101E+03 0.  0.
         23    2    4    4    0    0  0.31778203214E+03  0.35141197629E+02  0.19468063024E+02  0.33189793928E+03  0.86930506141E+02 0.  0.
         23    2    4    4    0    0 -0.49610500257E+03 -0.32701741812E+03  0.36076997672E+03  0.70104188389E+03  0.90797475305E+02 0.  0.
          2    1    3    3  502    0  0.15815786072E+02  0.82304325212E+02  0.44737063135E+02  0.95002872881E+02  0.00000000000E+00 0. -1.
         -1    1    3    3    0  502  0.16250718436E+03  0.20957189528E+03  0.78053942928E+02  0.27644417568E+03  0.00000000000E+00 0.  1.
         11    1    5    5    0    0  0.85428176868E+02  0.49085716631E+02  0.77811454863E+01  0.98832824533E+02  0.00000000000E+00 0. -1.
        -11    1    5    5    0    0  0.23235385528E+03 -0.13944519001E+02  0.11686917537E+02  0.23306511475E+03  0.00000000000E+00 0.  1.
          1    1    6    6  503    0 -0.31049585415E+03 -0.25459747177E+03  0.23033011696E+03  0.46290334937E+03  0.00000000000E+00 0. -1.
         -1    1    6    6    0  503 -0.18560914842E+03 -0.72419946358E+02  0.13043985976E+03  0.23813853452E+03  0.00000000000E+00 0.  1.
<mgrwt>
<rscale>  0 0.13112072E+04</rscale>
<asrwt>0</asrwt>
<pdfrwt beam="1">  1        2 0.14672430E+00 0.13112072E+04</pdfrwt>
<pdfrwt beam="2">  1       -1 0.69335218E-01 0.13112072E+04</pdfrwt>
<totfact> 0.63494245E+01</totfact>
</mgrwt>
</event>
<event>
12    6  0.1556619E-007  0.1425252E+04  0.7818608E-02  0.8935740E-01
         -1   -1    0    0    0  501 -0.00000000000E+00  0.00000000000E+00  0.18960043556E+03  0.18960043556E+03  0.00000000000E+00 0.  1.
          2   -1    0    0  501    0  0.00000000000E+00 -0.00000000000E+00 -0.26784543831E+04  0.26784543831E+04  0.00000000000E+00 0. -1.
         24    2    1    2    0    0  0.27141223405E+03 -0.33869652610E+02 -0.10542172875E+03  0.30352918823E+03  0.78768477525E+02 0.  0.
        254    2    1    2    0    0 -0.27141223405E+03  0.33869652610E+02 -0.23834322188E+04  0.25645256304E+04  0.90621786203E+03 0.  0.
         23    2    4    4    0    0 -0.29596002759E+03 -0.29271196213E+03 -0.20307581471E+04  0.20749750755E+04  0.90941087548E+02 0.  0.
         23    2    4    4    0    0  0.24547793544E+02  0.32658161474E+03 -0.35267407170E+03  0.48955055491E+03  0.89568966223E+02 0.  0.
          4    1    3    3  502    0  0.41036400010E+02 -0.18092051731E+02 -0.47775184236E+02  0.65526915771E+02  0.00000000000E+00 0. -1.
         -3    1    3    3    0  502  0.23037583404E+03 -0.15777600879E+02 -0.57646544519E+02  0.23800227246E+03  0.00000000000E+00 0.  1.
         11    1    5    5    0    0  0.58102862856E+01 -0.14294091960E+02 -0.67231647411E+02  0.68979525261E+02  0.00000000000E+00 0.  1.
        -11    1    5    5    0    0 -0.30177031388E+03 -0.27841787017E+03 -0.19635264997E+04  0.20059955503E+04  0.00000000000E+00 0. -1.
          3    1    6    6  503    0 -0.47511332100E+01  0.29547376816E+03 -0.32132674626E+03  0.43655263005E+03  0.00000000000E+00 0. -1.
         -3    1    6    6    0  503  0.29298926754E+02  0.31107846580E+02 -0.31347325437E+02  0.52997924864E+02  0.00000000000E+00 0.  1.
<mgrwt>
<rscale>  0 0.14252524E+04</rscale>
<asrwt>0</asrwt>
<pdfrwt beam="1">  1        2 0.41206993E+00 0.14252524E+04</pdfrwt>
<pdfrwt beam="2">  1       -1 0.29169296E-01 0.14252524E+04</pdfrwt>
<totfact> 0.32602272E+01</totfact>
</mgrwt>
</event>
<event>
12    6  0.1556619E-007  0.1254997E+04  0.7818608E-02  0.9066034E-01
         -1   -1    0    0    0  501 -0.00000000000E+00  0.00000000000E+00  0.50302081040E+03  0.50302081040E+03  0.00000000000E+00 0.  1.
          2   -1    0    0  501    0  0.00000000000E+00 -0.00000000000E+00 -0.78277961629E+03  0.78277961629E+03  0.00000000000E+00 0. -1.
         24    2    1    2    0    0 -0.82433851612E+02 -0.93907038677E+02 -0.35454497308E+03  0.38440006338E+03  0.80295697174E+02 0.  0.
        254    2    1    2    0    0  0.82433851612E+02  0.93907038677E+02  0.74786167190E+02  0.90140036331E+03  0.88955931358E+03 0.  0.
         23    2    4    4    0    0 -0.10567184791E+03  0.21706157069E+03  0.41319481388E+03  0.48737874423E+03  0.92335373519E+02 0.  0.
         23    2    4    4    0    0  0.18810569952E+03 -0.12315453202E+03 -0.33840864669E+03  0.41402161908E+03  0.79641044472E+02 0.  0.
          2    1    3    3  502    0 -0.57132268589E+02 -0.10591420478E+03 -0.29481857303E+03  0.31843351880E+03  0.00000000000E+00 0. -1.
         -1    1    3    3    0  502 -0.25301583023E+02  0.12007166105E+02 -0.59726400046E+02  0.65966544580E+02  0.00000000000E+00 0.  1.
         11    1    5    5    0    0 -0.80342752737E+02  0.89710535383E+02  0.26015937228E+03  0.28668072322E+03  0.00000000000E+00 0.  1.
        -11    1    5    5    0    0 -0.25329095170E+02  0.12735103531E+03  0.15303544159E+03  0.20069802102E+03  0.00000000000E+00 0. -1.
          2    1    6    6  503    0  0.36177668082E+02 -0.60094172586E+02 -0.13753601391E+03  0.15439005269E+03  0.00000000000E+00 0. -1.
         -2    1    6    6    0  503  0.15192803144E+03 -0.63060359430E+02 -0.20087263278E+03  0.25963156639E+03  0.00000000000E+00 0.  1.
<mgrwt>
<rscale>  0 0.12549971E+04</rscale>
<asrwt>0</asrwt>
<pdfrwt beam="1">  1        2 0.12042763E+00 0.12549971E+04</pdfrwt>
<pdfrwt beam="2">  1       -1 0.77387817E-01 0.12549971E+04</pdfrwt>
<totfact> 0.66645321E+01</totfact>
</mgrwt>
</event>
<event>
12    6  0.1556619E-007  0.1257273E+04  0.7818608E-02  0.9064152E-01
          2   -1    0    0  501    0  0.00000000000E+00  0.00000000000E+00  0.16251545768E+04  0.16251545768E+04  0.00000000000E+00 0. -1.
         -1   -1    0    0    0  501 -0.00000000000E+00 -0.00000000000E+00 -0.24316674624E+03  0.24316674624E+03  0.00000000000E+00 0.  1.
         24    2    1    2    0    0 -0.17292607181E+03 -0.50359912328E+02  0.79571222119E+03  0.81974407653E+03  0.79892834381E+02 0.  0.
        254    2    1    2    0    0  0.17292607181E+03  0.50359912328E+02  0.58627560937E+03  0.10485772465E+04  0.85050314795E+03 0.  0.
         23    2    4    4    0    0 -0.48295987424E+02  0.20826544648E+03  0.70289543434E+03  0.73983111496E+03  0.87069446125E+02 0.  0.
         23    2    4    4    0    0  0.22122205923E+03 -0.15790553415E+03 -0.11661982497E+03  0.30874613155E+03  0.88603797682E+02 0.  0.
          4    1    3    3  502    0 -0.53712618028E+02  0.31290233005E+01  0.38518298656E+03  0.38892257489E+03  0.00000000000E+00 0. -1.
         -3    1    3    3    0  502 -0.11921345378E+03 -0.53488935628E+02  0.41052923462E+03  0.43082150164E+03  0.00000000000E+00 0.  1.
         11    1    5    5    0    0 -0.51046320856E+00  0.38666092674E+02  0.47962369744E+02  0.61609384080E+02  0.00000000000E+00 0. -1.
        -11    1    5    5    0    0 -0.47785524215E+02  0.16959935381E+03  0.65493306459E+03  0.67822173088E+03  0.00000000000E+00 0.  1.
          2    1    6    6  503    0  0.61399749757E+02 -0.21492598511E+02  0.62222829450E+01  0.65349658499E+02  0.00000000000E+00 0. -1.
         -2    1    6    6    0  503  0.15982230948E+03 -0.13641293564E+03 -0.12284210791E+03  0.24339647305E+03  0.00000000000E+00 0.  1.
<mgrwt>
<rscale>  0 0.12572725E+04</rscale>
<asrwt>0</asrwt>
<pdfrwt beam="1">  1        2 0.25002377E+00 0.12572725E+04</pdfrwt>
<pdfrwt beam="2">  1       -1 0.37410270E-01 0.12572725E+04</pdfrwt>
<totfact> 0.83185099E+01</totfact>
</mgrwt>
</event>
<event>
12    6  0.1556619E-007  0.1802116E+04  0.7818608E-02  0.8705175E-01
         -1   -1    0    0    0  501 -0.00000000000E+00  0.00000000000E+00  0.82240835708E+03  0.82240835708E+03  0.00000000000E+00 0.  1.
          2   -1    0    0  501    0  0.00000000000E+00 -0.00000000000E+00 -0.98722895225E+03  0.98722895225E+03  0.00000000000E+00 0. -1.
         24    2    1    2    0    0 -0.80720589208E+02 -0.45408849907E+02  0.61012922868E+03  0.62220116873E+03  0.79365241197E+02 0.  0.
        254    2    1    2    0    0  0.80720589208E+02  0.45408849907E+02 -0.77494982384E+03  0.11874361406E+04  0.89491875685E+03 0.  0.
         23    2    4    4    0    0  0.23682486169E+03 -0.25043982830E+03 -0.21356238842E+02  0.35796390084E+03  0.94212221350E+02 0.  0.
         23    2    4    4    0    0 -0.15610427248E+03  0.29584867820E+03 -0.75359358500E+03  0.82947223977E+03  0.90696862700E+02 0.  0.
          4    1    3    3  502    0 -0.41790444262E+02  0.17089265365E+02  0.30440850120E+03  0.30773855758E+03  0.00000000000E+00 0. -1.
         -3    1    3    3    0  502 -0.38930144945E+02 -0.62498115272E+02  0.30572072748E+03  0.31446261115E+03  0.00000000000E+00 0.  1.
         11    1    5    5    0    0  0.16767579686E+03 -0.13605886997E+03 -0.49126095496E+02  0.22145103795E+03  0.00000000000E+00 0.  1.
        -11    1    5    5    0    0  0.69149064827E+02 -0.11438095833E+03  0.27769856654E+02  0.13651286288E+03  0.00000000000E+00 0. -1.
          2    1    6    6  503    0 -0.15720133336E+02  0.35754209281E+02 -0.34906127960E+02  0.52382476484E+02  0.00000000000E+00 0. -1.
         -2    1    6    6    0  503 -0.14038413915E+03  0.26009446892E+03 -0.71868745704E+03  0.77708976328E+03  0.00000000000E+00 0.  1.
<mgrwt>
<rscale>  0 0.18021158E+04</rscale>
<asrwt>0</asrwt>
<pdfrwt beam="1">  1        2 0.15188138E+00 0.18021158E+04</pdfrwt>
<pdfrwt beam="2">  1       -1 0.12652436E+00 0.18021158E+04</pdfrwt>
<totfact> 0.15011678E+01</totfact>
</mgrwt>
</event>
<event>
12    6  0.1556619E-007  0.1301311E+04  0.7818608E-02  0.9028526E-01
          2   -1    0    0  501    0  0.00000000000E+00  0.00000000000E+00  0.88013764888E+03  0.88013764888E+03  0.00000000000E+00 0. -1.
         -1   -1    0    0    0  501 -0.00000000000E+00 -0.00000000000E+00 -0.48100696457E+03  0.48100696457E+03  0.00000000000E+00 0.  1.
         24    2    1    2    0    0 -0.29975846607E+03  0.15245228577E+03  0.66572960158E+02  0.35180023550E+03  0.78959541911E+02 0.  0.
        254    2    1    2    0    0  0.29975846607E+03 -0.15245228577E+03  0.33255772415E+03  0.10093443779E+04  0.89167516281E+03 0.  0.
         23    2    4    4    0    0  0.13728957782E+03 -0.45768512098E+03 -0.44973670187E+02  0.48891168943E+03  0.93208963676E+02 0.  0.
         23    2    4    4    0    0  0.16246888824E+03  0.30523283521E+03  0.37753139434E+03  0.52043268851E+03  0.93578877014E+02 0.  0.
          2    1    3    3  502    0 -0.17210830928E+03  0.54847990198E+02  0.62218514833E+02  0.19105160491E+03  0.00000000000E+00 0. -1.
         -1    1    3    3    0  502 -0.12765015679E+03  0.97604295570E+02  0.43544453259E+01  0.16074863059E+03  0.00000000000E+00 0.  1.
         11    1    5    5    0    0  0.14007673698E+03 -0.45046202558E+03 -0.30777743083E+02  0.47274178808E+03  0.00000000000E+00 0. -1.
        -11    1    5    5    0    0 -0.27871591525E+01 -0.72230953983E+01 -0.14195927104E+02  0.16169901348E+02  0.00000000000E+00 0.  1.
          1    1    6    6  503    0  0.11625776090E+03  0.14896826281E+03  0.25068977190E+03  0.31393115810E+03  0.00000000000E+00 0. -1.
         -1    1    6    6    0  503  0.46211127341E+02  0.15626457240E+03  0.12684162244E+03  0.20650153041E+03  0.00000000000E+00 0.  1.
<mgrwt>
<rscale>  0 0.13013106E+04</rscale>
<asrwt>0</asrwt>
<pdfrwt beam="1">  1        2 0.13540579E+00 0.13013106E+04</pdfrwt>
<pdfrwt beam="2">  1       -1 0.74001072E-01 0.13013106E+04</pdfrwt>
<totfact> 0.62237551E+01</totfact>
</mgrwt>
</event>
<event>
12    6  0.2176720E-007  0.2772252E+04  0.7818608E-02  0.8311935E-01
         -1   -1    0    0    0  501 -0.00000000000E+00  0.00000000000E+00  0.72139536424E+03  0.72139536424E+03  0.00000000000E+00 0.  1.
          2   -1    0    0  501    0  0.00000000000E+00 -0.00000000000E+00 -0.26633727783E+04  0.26633727783E+04  0.00000000000E+00 0. -1.
         24    2    1    2    0    0 -0.86127364813E+03 -0.36126263264E+03  0.12483719793E+03  0.94639583294E+03  0.88191609011E+02 0.  0.
        254    2    1    2    0    0  0.86127364813E+03  0.36126263264E+03 -0.20668146120E+04  0.24383723096E+04  0.89534009916E+03 0.  0.
         23    2    4    4    0    0  0.62967780810E+03 -0.10238734998E+03 -0.60155359612E+03  0.88142803553E+03  0.89840644301E+02 0.  0.
         23    2    4    4    0    0  0.23159584004E+03  0.46364998261E+03 -0.14652610158E+04  0.15569442740E+04  0.92074363560E+02 0.  0.
          4    1    3    3  502    0 -0.17439352228E+03 -0.86401170655E+02  0.60311573794E+02  0.20375413821E+03  0.00000000000E+00 0. -1.
         -3    1    3    3    0  502 -0.68688012585E+03 -0.27486146198E+03  0.64525624139E+02  0.74264169472E+03  0.00000000000E+00 0.  1.
         11    1    5    5    0    0 -0.12223369112E+01 -0.56322079071E+01 -0.76715269330E+01  0.95952175023E+01  0.00000000000E+00 0. -1.
        -11    1    5    5    0    0  0.63090014501E+03 -0.96755142068E+02 -0.59388206918E+03  0.87183281802E+03  0.00000000000E+00 0.  1.
          3    1    6    6  503    0  0.54278776374E+02  0.11004302276E+03 -0.24226926750E+03  0.27156960507E+03  0.00000000000E+00 0. -1.
         -3    1    6    6    0  503  0.17731706366E+03  0.35360695986E+03 -0.12229917483E+04  0.12853746690E+04  0.00000000000E+00 0.  1.
<mgrwt>
<rscale>  0 0.27722516E+04</rscale>
<asrwt>0</asrwt>
<pdfrwt beam="1">  1        2 0.40974965E+00 0.27722516E+04</pdfrwt>
<pdfrwt beam="2">  1       -1 0.11098390E+00 0.27722516E+04</pdfrwt>
<totfact> 0.20677339E+00</totfact>
</mgrwt>
</event>
<event>
12    6  0.1556619E-007  0.3408907E+04  0.7818608E-02  0.8135724E-01
         -3   -1    0    0    0  501 -0.00000000000E+00  0.00000000000E+00  0.78728523367E+03  0.78728523367E+03  0.00000000000E+00 0.  1.
          2   -1    0    0  501    0  0.00000000000E+00 -0.00000000000E+00 -0.36901015041E+04  0.36901015041E+04  0.00000000000E+00 0. -1.
         24    2    1    2    0    0  0.41102284296E+03  0.85836250486E+03 -0.30148382595E+04  0.31627998053E+04  0.91251905845E+02 0.  0.
        254    2    1    2    0    0 -0.41102284296E+03 -0.85836250486E+03  0.11202198910E+03  0.13145869324E+04  0.89992439111E+03 0.  0.
         23    2    4    4    0    0  0.21954774628E+03 -0.23959066265E+03  0.24504691052E+03  0.41662296164E+03  0.89004523966E+02 0.  0.
         23    2    4    4    0    0 -0.63057058924E+03 -0.61877184221E+03 -0.13302492142E+03  0.89796397079E+03  0.90254099055E+02 0.  0.
          4    1    3    3  502    0  0.27261885362E+03  0.49766627944E+03 -0.18994271013E+04  0.19823763714E+04  0.00000000000E+00 0. -1.
         -3    1    3    3    0  502  0.13840398934E+03  0.36069622542E+03 -0.11154111583E+04  0.11804234339E+04  0.00000000000E+00 0.  1.
         11    1    5    5    0    0  0.12963316422E+03 -0.17520863595E+03  0.20440135664E+03  0.29880217197E+03  0.00000000000E+00 0. -1.
        -11    1    5    5    0    0  0.89914582061E+02 -0.64382026701E+02  0.40645553881E+02  0.11782078967E+03  0.00000000000E+00 0.  1.
          4    1    6    6  503    0 -0.29663768966E+03 -0.29222560035E+03 -0.10828682880E+03  0.43025080793E+03  0.00000000000E+00 0. -1.
         -4    1    6    6    0  503 -0.33393289958E+03 -0.32654624186E+03 -0.24738092620E+02  0.46771316286E+03  0.00000000000E+00 0.  1.
<mgrwt>
<rscale>  0 0.34089074E+04</rscale>
<asrwt>0</asrwt>
<pdfrwt beam="1">  1        2 0.56770793E+00 0.34089074E+04</pdfrwt>
<pdfrwt beam="2">  1       -3 0.12112080E+00 0.34089074E+04</pdfrwt>
<totfact> 0.17338964E-01</totfact>
</mgrwt>
</event>
<event>
12    6  0.1556619E-007  0.1395437E+04  0.7818608E-02  0.8957128E-01
          2   -1    0    0  501    0  0.00000000000E+00  0.00000000000E+00  0.30960053121E+04  0.30960053121E+04  0.00000000000E+00 0. -1.
         -1   -1    0    0    0  501 -0.00000000000E+00 -0.00000000000E+00 -0.15723835683E+03  0.15723835683E+03  0.00000000000E+00 0.  1.
         24    2    1    2    0    0 -0.39108840756E+03  0.83376656897E+02  0.12052655802E+04  0.12723678437E+04  0.79705717419E+02 0.  0.
        254    2    1    2    0    0  0.39108840756E+03 -0.83376656897E+02  0.17335013751E+04  0.19808758253E+04  0.87117174439E+03 0.  0.
         23    2    4    4    0    0  0.37496260526E+01  0.34421942245E+03  0.85339738469E+03  0.92456741494E+03  0.89647855939E+02 0.  0.
         23    2    4    4    0    0  0.38733878150E+03 -0.42759607935E+03  0.88010399040E+03  0.10563084103E+04  0.91294496435E+02 0.  0.
          2    1    3    3  502    0 -0.12387365678E+03  0.56567544686E+02  0.33546072335E+03  0.36204760304E+03  0.00000000000E+00 0. -1.
         -3    1    3    3    0  502 -0.26721475078E+03  0.26809112211E+02  0.86980485686E+03  0.91032024065E+03  0.00000000000E+00 0.  1.
         11    1    5    5    0    0  0.84253730063E+01  0.34880451994E+03  0.84191748200E+03  0.91135098976E+03  0.00000000000E+00 0.  1.
        -11    1    5    5    0    0 -0.46757469537E+01 -0.45850974911E+01  0.11479902694E+02  0.13216425177E+02  0.00000000000E+00 0. -1.
          4    1    6    6  503    0  0.10443164229E+03 -0.69509188600E+02  0.15300131819E+03  0.19785575194E+03  0.00000000000E+00 0. -1.
         -4    1    6    6    0  503  0.28290713922E+03 -0.35808689075E+03  0.72710267222E+03  0.85845265839E+03  0.00000000000E+00 0.  1.
<mgrwt>
<rscale>  0 0.13954365E+04</rscale>
<asrwt>0</asrwt>
<pdfrwt beam="1">  1        2 0.47630846E+00 0.13954365E+04</pdfrwt>
<pdfrwt beam="2">  1       -1 0.24190519E-01 0.13954365E+04</pdfrwt>
<totfact> 0.25140086E+01</totfact>
</mgrwt>
</event>
<event>
12    6  0.1556619E-007  0.1918947E+04  0.7818608E-02  0.8645482E-01
         -1   -1    0    0    0  501 -0.00000000000E+00  0.00000000000E+00  0.11631863396E+04  0.11631863396E+04  0.00000000000E+00 0.  1.
          2   -1    0    0  501    0  0.00000000000E+00 -0.00000000000E+00 -0.79143792208E+03  0.79143792208E+03  0.00000000000E+00 0. -1.
         24    2    1    2    0    0 -0.18172230284E+03 -0.34356757587E+02  0.86402787329E+03  0.88815699149E+03  0.89862637297E+02 0.  0.
        254    2    1    2    0    0  0.18172230284E+03  0.34356757587E+02 -0.49227945577E+03  0.10664672702E+04  0.92779846608E+03 0.  0.
         23    2    4    4    0    0  0.16912599021E+03 -0.36153971253E+03  0.23499090845E+02  0.40985383395E+03  0.90074378333E+02 0.  0.
         23    2    4    4    0    0  0.12596312628E+02  0.39589647012E+03 -0.51577854661E+03  0.65661343624E+03  0.90669804024E+02 0.  0.
          4    1    3    3  502    0 -0.14760760105E+01  0.17843491143E+02  0.69386638041E+02  0.71659434237E+02  0.00000000000E+00 0. -1.
         -3    1    3    3    0  502 -0.18024622683E+03 -0.52200248729E+02  0.79464123525E+03  0.81649755726E+03  0.00000000000E+00 0.  1.
         11    1    5    5    0    0  0.66348712372E+02 -0.19000623274E+03 -0.28425985480E+02  0.20325490588E+03  0.00000000000E+00 0. -1.
        -11    1    5    5    0    0  0.10277727784E+03 -0.17153347979E+03  0.51925076325E+02  0.20659892807E+03  0.00000000000E+00 0.  1.
          2    1    6    6  503    0  0.99172146859E+00  0.32939508633E+03 -0.36644908624E+03  0.49273424807E+03  0.00000000000E+00 0. -1.
         -2    1    6    6    0  503  0.11604591159E+02  0.66501383783E+02 -0.14932946037E+03  0.16387918817E+03  0.00000000000E+00 0.  1.
<mgrwt>
<rscale>  0 0.19189474E+04</rscale>
<asrwt>0</asrwt>
<pdfrwt beam="1">  1        2 0.12175968E+00 0.19189474E+04</pdfrwt>
<pdfrwt beam="2">  1       -1 0.17895174E+00 0.19189474E+04</pdfrwt>
<totfact> 0.78973888E+00</totfact>
</mgrwt>
</event>
<event>
12    6  0.1556619E-007  0.1635837E+04  0.7818608E-02  0.8798829E-01
          4   -1    0    0  501    0  0.00000000000E+00  0.00000000000E+00  0.11823502620E+04  0.11823502620E+04  0.00000000000E+00 0. -1.
         -3   -1    0    0    0  501 -0.00000000000E+00 -0.00000000000E+00 -0.56581447637E+03  0.56581447637E+03  0.00000000000E+00 0.  1.
         24    2    1    2    0    0  0.73559222382E+02  0.31544893650E+03 -0.27978634322E+03  0.43522926892E+03  0.78899479964E+02 0.  0.
        254    2    1    2    0    0 -0.73559222382E+02 -0.31544893650E+03  0.89632212886E+03  0.13129354695E+04  0.90304329771E+03 0.  0.
         23    2    4    4    0    0 -0.43688588430E+03 -0.18731237094E+03  0.74717264805E+03  0.89014624905E+03  0.90211853415E+02 0.  0.
         23    2    4    4    0    0  0.36332666192E+03 -0.12813656556E+03  0.14914948080E+03  0.42278922040E+03  0.89888345016E+02 0.  0.
          4    1    3    3  502    0  0.20425928456E+02  0.89971228969E+01 -0.20433070283E+02  0.30260157549E+02  0.00000000000E+00 0. -1.
         -3    1    3    3    0  502  0.53133293926E+02  0.30645181360E+03 -0.25935327293E+03  0.40496911137E+03  0.00000000000E+00 0.  1.
         11    1    5    5    0    0 -0.22412429120E+03 -0.74120189488E+02  0.44402787456E+03  0.50287797107E+03  0.00000000000E+00 0. -1.
        -11    1    5    5    0    0 -0.21276159310E+03 -0.11319218145E+03  0.30314477349E+03  0.38726827799E+03  0.00000000000E+00 0.  1.
          1    1    6    6  503    0  0.36339328626E+03 -0.11790990186E+03  0.13471587774E+03  0.40509973238E+03  0.00000000000E+00 0. -1.
         -1    1    6    6    0  503 -0.66624342711E-01 -0.10226663702E+02  0.14433603061E+02  0.17689488025E+02  0.00000000000E+00 0.  1.
<mgrwt>
<rscale>  0 0.16358373E+04</rscale>
<asrwt>0</asrwt>
<pdfrwt beam="1">  1        4 0.18190004E+00 0.16358373E+04</pdfrwt>
<pdfrwt beam="2">  1       -3 0.87048381E-01 0.16358373E+04</pdfrwt>
<totfact> 0.45834888E-01</totfact>
</mgrwt>
</event>
<event>
12    6  0.1556619E-007  0.1924728E+04  0.7818608E-02  0.8642645E-01
         -1   -1    0    0    0  501 -0.00000000000E+00  0.00000000000E+00  0.24726913349E+03  0.24726913349E+03  0.00000000000E+00 0.  1.
          2   -1    0    0  501    0  0.00000000000E+00 -0.00000000000E+00 -0.37454923150E+04  0.37454923150E+04  0.00000000000E+00 0. -1.
         24    2    1    2    0    0 -0.45716692101E+03 -0.12593362485E+02 -0.25354860267E+04  0.25777100665E+04  0.82095121516E+02 0.  0.
        254    2    1    2    0    0  0.45716692101E+03  0.12593362485E+02 -0.96273715481E+03  0.14150513820E+04  0.93077784563E+03 0.  0.
         23    2    4    4    0    0  0.61926220495E+03  0.30643065547E+02 -0.10379907824E+04  0.12122998250E+04  0.88438257839E+02 0.  0.
         23    2    4    4    0    0 -0.16209528394E+03 -0.18049703062E+02  0.75253627569E+02  0.20275155696E+03  0.94044736862E+02 0.  0.
          2    1    3    3  502    0 -0.32930720771E+03  0.11558126996E+02 -0.19765304970E+04  0.20038087815E+04  0.00000000000E+00 0. -1.
         -1    1    3    3    0  502 -0.12785971330E+03 -0.24151489481E+02 -0.55895552965E+03  0.57390128494E+03  0.00000000000E+00 0.  1.
         11    1    5    5    0    0  0.10004202148E+03 -0.10783783849E+02 -0.11785960507E+03  0.15496961820E+03  0.00000000000E+00 0. -1.
        -11    1    5    5    0    0  0.51922018347E+03  0.41426849395E+02 -0.92013117731E+03  0.10573302068E+04  0.00000000000E+00 0.  1.
          4    1    6    6  503    0 -0.10665417609E+03 -0.14476554658E+02 -0.19338684317E+01  0.10764954138E+03  0.00000000000E+00 0. -1.
         -4    1    6    6    0  503 -0.55441107857E+02 -0.35731484037E+01  0.77187496000E+02  0.95102015587E+02  0.00000000000E+00 0.  1.
<mgrwt>
<rscale>  0 0.19247282E+04</rscale>
<asrwt>0</asrwt>
<pdfrwt beam="1">  1        2 0.57622956E+00 0.19247282E+04</pdfrwt>
<pdfrwt beam="2">  1       -1 0.38041407E-01 0.19247282E+04</pdfrwt>
<totfact> 0.38693926E+00</totfact>
</mgrwt>
</event>
<event>
12    6  0.1556619E-007  0.1815801E+04  0.7818608E-02  0.8697942E-01
          2   -1    0    0  501    0  0.00000000000E+00  0.00000000000E+00  0.20768724111E+04  0.20768724111E+04  0.00000000000E+00 0. -1.
         -1   -1    0    0    0  501 -0.00000000000E+00 -0.00000000000E+00 -0.39688685298E+03  0.39688685298E+03  0.00000000000E+00 0.  1.
         24    2    1    2    0    0 -0.22110225020E+03  0.56270195099E+03  0.10624278989E+04  0.12249646396E+04  0.79155779094E+02 0.  0.
        254    2    1    2    0    0  0.22110225020E+03 -0.56270195099E+03  0.61755765931E+03  0.12487946245E+04  0.90143821802E+03 0.  0.
         23    2    4    4    0    0 -0.15669376010E+03  0.14176141885E+03 -0.64238432970E+01  0.23050598544E+03  0.91883128101E+02 0.  0.
         23    2    4    4    0    0  0.37779601030E+03 -0.70446336984E+03  0.62398150260E+03  0.10182886391E+04  0.92522278370E+02 0.  0.
          2    1    3    3  502    0 -0.16998742132E+03  0.39841915924E+03  0.82431096610E+03  0.93119392109E+03  0.00000000000E+00 0. -1.
         -1    1    3    3    0  502 -0.51114828879E+02  0.16428279175E+03  0.23811693276E+03  0.29377071853E+03  0.00000000000E+00 0.  1.
         11    1    5    5    0    0  0.38922912962E+01  0.36398550379E+02 -0.11510114033E+02  0.38372999965E+02  0.00000000000E+00 0. -1.
        -11    1    5    5    0    0 -0.16058605140E+03  0.10536286847E+03  0.50862707359E+01  0.19213298547E+03  0.00000000000E+00 0.  1.
          3    1    6    6  503    0  0.24970734229E+03 -0.54106231617E+03  0.48649711396E+03  0.76927344206E+03  0.00000000000E+00 0. -1.
         -3    1    6    6    0  503  0.12808866801E+03 -0.16340105368E+03  0.13748438864E+03  0.24901519699E+03  0.00000000000E+00 0.  1.
<mgrwt>
<rscale>  0 0.18158010E+04</rscale>
<asrwt>0</asrwt>
<pdfrwt beam="1">  1        2 0.31951883E+00 0.18158010E+04</pdfrwt>
<pdfrwt beam="2">  1       -1 0.61059517E-01 0.18158010E+04</pdfrwt>
<totfact> 0.17682153E+01</totfact>
</mgrwt>
</event>
<event>
12    6  0.1556619E-007  0.1784488E+04  0.7818608E-02  0.8714593E-01
         -1   -1    0    0    0  501 -0.00000000000E+00  0.00000000000E+00  0.23149766521E+03  0.23149766521E+03  0.00000000000E+00 0.  1.
          2   -1    0    0  501    0  0.00000000000E+00 -0.00000000000E+00 -0.34389074287E+04  0.34389074287E+04  0.00000000000E+00 0. -1.
         24    2    1    2    0    0 -0.28536083844E+03  0.36938005275E+03 -0.21346750160E+04  0.21865799155E+04  0.80136579898E+02 0.  0.
        254    2    1    2    0    0  0.28536083844E+03 -0.36938005275E+03 -0.10727347476E+04  0.14838251785E+04  0.91274579714E+03 0.  0.
         23    2    4    4    0    0 -0.26090804507E+03 -0.68627897642E+02 -0.59918731084E+02  0.29085040272E+03  0.90669212592E+02 0.  0.
         23    2    4    4    0    0  0.54626888351E+03 -0.30075215510E+03 -0.10128160165E+04  0.11929747758E+04  0.92363307011E+02 0.  0.
          4    1    3    3  502    0 -0.24258369513E+03  0.25727510601E+03 -0.15964831272E+04  0.16351745182E+04  0.00000000000E+00 0. -1.
         -3    1    3    3    0  502 -0.42777143311E+02  0.11210494674E+03 -0.53819188872E+03  0.55140539729E+03  0.00000000000E+00 0.  1.
         11    1    5    5    0    0 -0.47284022217E+02 -0.38867593859E+02  0.14108349940E+02  0.62813327785E+02  0.00000000000E+00 0. -1.
        -11    1    5    5    0    0 -0.21362402285E+03 -0.29760303783E+02 -0.74027081024E+02  0.22803707493E+03  0.00000000000E+00 0.  1.
          3    1    6    6  503    0  0.39469869168E+03 -0.21393562451E+03 -0.80286580191E+03  0.91986357930E+03  0.00000000000E+00 0. -1.
         -3    1    6    6    0  503  0.15157019183E+03 -0.86816530598E+02 -0.20995021457E+03  0.27311119647E+03  0.00000000000E+00 0.  1.
<mgrwt>
<rscale>  0 0.17844876E+04</rscale>
<asrwt>0</asrwt>
<pdfrwt beam="1">  1        2 0.52906267E+00 0.17844876E+04</pdfrwt>
<pdfrwt beam="2">  1       -1 0.35615027E-01 0.17844876E+04</pdfrwt>
<totfact> 0.73126388E+00</totfact>
</mgrwt>
</event>
<event>
12    6  0.1556619E-007  0.1797402E+04  0.7818608E-02  0.8707682E-01
         -1   -1    0    0    0  501 -0.00000000000E+00  0.00000000000E+00  0.47335739170E+03  0.47335739170E+03  0.00000000000E+00 0.  1.
          2   -1    0    0  501    0  0.00000000000E+00 -0.00000000000E+00 -0.17062454079E+04  0.17062454079E+04  0.00000000000E+00 0. -1.
         24    2    1    2    0    0  0.47942338936E+01 -0.17266177574E+03 -0.12347855415E+04  0.12493364193E+04  0.79442315340E+02 0.  0.
        254    2    1    2    0    0 -0.47942338936E+01  0.17266177574E+03  0.18975253817E+01  0.93026638027E+03  0.91408799587E+03 0.  0.
         23    2    4    4    0    0 -0.44997839884E+03  0.10637752769E+03 -0.54691166886E+00  0.47092419769E+03  0.89289210089E+02 0.  0.
         23    2    4    4    0    0  0.44518416495E+03  0.66284248056E+02  0.24444370505E+01  0.45934218258E+03  0.91688184461E+02 0.  0.
          4    1    3    3  502    0 -0.10400676896E+02 -0.15176235427E+03 -0.11655783470E+04  0.11754628320E+04  0.00000000000E+00 0. -1.
         -3    1    3    3    0  502  0.15194910789E+02 -0.20899421476E+02 -0.69207194505E+02  0.73873587317E+02  0.00000000000E+00 0.  1.
         11    1    5    5    0    0 -0.36634229606E+02 -0.72581881523E+01  0.18793084703E+02  0.41808230132E+02  0.00000000000E+00 0. -1.
        -11    1    5    5    0    0 -0.41334416923E+03  0.11363571584E+03 -0.19339996372E+02  0.42911596756E+03  0.00000000000E+00 0.  1.
          2    1    6    6  503    0  0.26979765851E+03  0.24743675492E+02 -0.40808716947E+02  0.27398608978E+03  0.00000000000E+00 0. -1.
         -2    1    6    6    0  503  0.17538650643E+03  0.41540572564E+02  0.43253153997E+02  0.18535609280E+03  0.00000000000E+00 0.  1.
<mgrwt>
<rscale>  0 0.17974024E+04</rscale>
<asrwt>0</asrwt>
<pdfrwt beam="1">  1        2 0.26249929E+00 0.17974024E+04</pdfrwt>
<pdfrwt beam="2">  1       -1 0.72824215E-01 0.17974024E+04</pdfrwt>
<totfact> 0.19893592E+01</totfact>
</mgrwt>
</event>
<event>
12    6  0.1556619E-007  0.1404577E+04  0.7818608E-02  0.8950512E-01
          2   -1    0    0  501    0  0.00000000000E+00  0.00000000000E+00  0.69426294027E+03  0.69426294027E+03  0.00000000000E+00 0. -1.
         -1   -1    0    0    0  501 -0.00000000000E+00 -0.00000000000E+00 -0.71040639311E+03  0.71040639311E+03  0.00000000000E+00 0.  1.
         24    2    1    2    0    0 -0.30591475266E+03 -0.26359859619E+03  0.35819301833E+02  0.41271302944E+03  0.77336708478E+02 0.  0.
        254    2    1    2    0    0  0.30591475266E+03  0.26359859619E+03 -0.51962754665E+02  0.99195630394E+03  0.90454912815E+03 0.  0.
         23    2    4    4    0    0  0.27853416131E+03  0.57377333637E+03  0.60939382544E+02  0.64866763652E+03  0.10128659231E+03 0.  0.
         23    2    4    4    0    0  0.27380591350E+02 -0.31017474017E+03 -0.11290213721E+03  0.34328866742E+03  0.90233864876E+02 0.  0.
          4    1    3    3  502    0 -0.18965313663E+03 -0.18502841863E+03  0.56383956143E+02  0.27089292801E+03  0.00000000000E+00 0. -1.
         -3    1    3    3    0  502 -0.11626161603E+03 -0.78570177564E+02 -0.20564654310E+02  0.14182010143E+03  0.00000000000E+00 0.  1.
         11    1    5    5    0    0  0.19315812814E+02  0.52042980624E+02  0.34770860743E+02  0.65502558833E+02  0.00000000000E+00 0. -1.
        -11    1    5    5    0    0  0.25921834849E+03  0.52173035574E+03  0.26168521801E+02  0.58316507768E+03  0.00000000000E+00 0.  1.
          4    1    6    6  503    0  0.41014930661E+02 -0.10592369942E+03 -0.95930377037E+01  0.11399158306E+03  0.00000000000E+00 0.  1.
         -4    1    6    6    0  503 -0.13634339311E+02 -0.20425104075E+03 -0.10330909950E+03  0.22929708436E+03  0.00000000000E+00 0. -1.
<mgrwt>
<rscale>  0 0.14045766E+04</rscale>
<asrwt>0</asrwt>
<pdfrwt beam="1">  1        2 0.10680968E+00 0.14045766E+04</pdfrwt>
<pdfrwt beam="2">  1       -1 0.10929329E+00 0.14045766E+04</pdfrwt>
<totfact> 0.35671542E+01</totfact>
</mgrwt>
</event>
<event>
12    6  0.1556619E-007  0.1332753E+04  0.7818608E-02  0.9003987E-01
          2   -1    0    0  501    0  0.00000000000E+00  0.00000000000E+00  0.27797204244E+04  0.27797204244E+04  0.00000000000E+00 0. -1.
         -1   -1    0    0    0  501 -0.00000000000E+00 -0.00000000000E+00 -0.15974909532E+03  0.15974909532E+03  0.00000000000E+00 0.  1.
         24    2    1    2    0    0 -0.93406838667E+02  0.17429525535E+03  0.56961029874E+02  0.22093438293E+03  0.80397568916E+02 0.  0.
        254    2    1    2    0    0  0.93406838667E+02 -0.17429525535E+03  0.25630102992E+04  0.27185351368E+04  0.88448166891E+03 0.  0.
         23    2    4    4    0    0  0.95246292197E+01 -0.44305643927E+03  0.22171053643E+04  0.22630979779E+04  0.98318535918E+02 0.  0.
         23    2    4    4    0    0  0.83882209447E+02  0.26876118392E+03  0.34590493491E+03  0.45543715885E+03  0.92217040841E+02 0.  0.
          4    1    3    3  502    0 -0.73589460485E+02  0.54373659455E+02  0.31329904698E+02  0.96713321034E+02  0.00000000000E+00 0. -1.
         -3    1    3    3    0  502 -0.19817378182E+02  0.11992159589E+03  0.25631125176E+02  0.12422106189E+03  0.00000000000E+00 0.  1.
         11    1    5    5    0    0  0.14946523550E+02 -0.39881276706E+03  0.21041921716E+04  0.21417048622E+04  0.00000000000E+00 0. -1.
        -11    1    5    5    0    0 -0.54218943305E+01 -0.44243672208E+02  0.11291319265E+03  0.12139311572E+03  0.00000000000E+00 0.  1.
          3    1    6    6  503    0  0.18636356685E+02  0.20206733440E+03  0.23351959055E+03  0.30937019991E+03  0.00000000000E+00 0. -1.
         -3    1    6    6    0  503  0.65245852762E+02  0.66693849516E+02  0.11238534437E+03  0.14606695894E+03  0.00000000000E+00 0.  1.
<mgrwt>
<rscale>  0 0.13327533E+04</rscale>
<asrwt>0</asrwt>
<pdfrwt beam="1">  1        2 0.42764926E+00 0.13327533E+04</pdfrwt>
<pdfrwt beam="2">  1       -1 0.24576786E-01 0.13327533E+04</pdfrwt>
<totfact> 0.38502375E+01</totfact>
</mgrwt>
</event>
<event>
12    6  0.1556619E-007  0.1503847E+04  0.7818608E-02  0.8881899E-01
         -1   -1    0    0    0  501 -0.00000000000E+00  0.00000000000E+00  0.93619078235E+03  0.93619078235E+03  0.00000000000E+00 0.  1.
          2   -1    0    0  501    0  0.00000000000E+00 -0.00000000000E+00 -0.60392496912E+03  0.60392496912E+03  0.00000000000E+00 0. -1.
         24    2    1    2    0    0  0.96362406670E+02 -0.15342675383E+03  0.56207164016E+03  0.59596823119E+03  0.80175567967E+02 0.  0.
        254    2    1    2    0    0 -0.96362406670E+02  0.15342675383E+03 -0.22980582693E+03  0.94414752029E+03  0.89765156924E+03 0.  0.
         23    2    4    4    0    0 -0.40903363497E+03  0.28547342295E+03  0.28361305391E+02  0.50782820891E+03  0.91002947036E+02 0.  0.
         23    2    4    4    0    0  0.31267122830E+03 -0.13204666912E+03 -0.25816713232E+03  0.43631931138E+03  0.92329049789E+02 0.  0.
          4    1    3    3  502    0  0.84576843641E+02 -0.12324707406E+03  0.33814045663E+03  0.36970535857E+03  0.00000000000E+00 0. -1.
         -3    1    3    3    0  502  0.11785563029E+02 -0.30179679769E+02  0.22393118353E+03  0.22626287262E+03  0.00000000000E+00 0.  1.
         11    1    5    5    0    0 -0.21069014343E+03  0.17101179184E+03 -0.25574808402E+02  0.27256089286E+03  0.00000000000E+00 0. -1.
        -11    1    5    5    0    0 -0.19834349154E+03  0.11446163111E+03  0.53936113793E+02  0.23526731605E+03  0.00000000000E+00 0.  1.
          3    1    6    6  503    0  0.29126323014E+03 -0.10026442729E+03 -0.20213493458E+03  0.36843690965E+03  0.00000000000E+00 0. -1.
         -3    1    6    6    0  503  0.21407998164E+02 -0.31782241835E+02 -0.56032197741E+02  0.67882401734E+02  0.00000000000E+00 0.  1.
<mgrwt>
<rscale>  0 0.15038471E+04</rscale>
<asrwt>0</asrwt>
<pdfrwt beam="1">  1        2 0.92911534E-01 0.15038471E+04</pdfrwt>
<pdfrwt beam="2">  1       -1 0.14402935E+00 0.15038471E+04</pdfrwt>
<totfact> 0.21126191E+01</totfact>
</mgrwt>
</event>
<event>
12    6  0.1556619E-007  0.1433330E+04  0.7818608E-02  0.8930039E-01
         -1   -1    0    0    0  501 -0.00000000000E+00  0.00000000000E+00  0.10643059189E+03  0.10643059189E+03  0.00000000000E+00 0.  1.
          2   -1    0    0  501    0  0.00000000000E+00 -0.00000000000E+00 -0.48257651907E+04  0.48257651907E+04  0.00000000000E+00 0. -1.
         24    2    1    2    0    0  0.20378433377E+03  0.31189250153E+03 -0.21244194556E+04  0.21583048516E+04  0.79478437051E+02 0.  0.
        254    2    1    2    0    0 -0.20378433377E+03 -0.31189250153E+03 -0.25949151432E+04  0.27738909309E+04  0.90668699633E+03 0.  0.
         23    2    4    4    0    0 -0.18250505532E+02 -0.56050195663E+03 -0.21577070766E+04  0.22311430514E+04  0.88340041587E+02 0.  0.
         23    2    4    4    0    0 -0.18553382824E+03  0.24860945510E+03 -0.43720806655E+03  0.54274787955E+03  0.84822784196E+02 0.  0.
          2    1    3    3  502    0  0.13462729588E+03  0.25835063005E+03 -0.15303922649E+04  0.15578735640E+04  0.00000000000E+00 0. -1.
         -1    1    3    3    0  502  0.69157037887E+02  0.53541871484E+02 -0.59402719066E+03  0.60043128760E+03  0.00000000000E+00 0.  1.
         11    1    5    5    0    0 -0.44074936460E+02 -0.40658541574E+03 -0.16540957700E+04  0.17039034939E+04  0.00000000000E+00 0. -1.
        -11    1    5    5    0    0  0.25824430928E+02 -0.15391654089E+03 -0.50361130661E+03  0.52723955744E+03  0.00000000000E+00 0.  1.
          2    1    6    6  503    0 -0.12597164145E+03  0.22083482874E+03 -0.32392660579E+03  0.41178310064E+03  0.00000000000E+00 0. -1.
         -2    1    6    6    0  503 -0.59562186782E+02  0.27774626360E+02 -0.11328146076E+03  0.13096477891E+03  0.00000000000E+00 0.  1.
<mgrwt>
<rscale>  0 0.14333305E+04</rscale>
<asrwt>0</asrwt>
<pdfrwt beam="1">  1        2 0.74242524E+00 0.14333305E+04</pdfrwt>
<pdfrwt beam="2">  1       -1 0.16373941E-01 0.14333305E+04</pdfrwt>
<totfact> 0.18444262E+00</totfact>
</mgrwt>
</event>
<event>
12    6  0.1556619E-007  0.1450648E+04  0.7818608E-02  0.8917951E-01
         -1   -1    0    0    0  501 -0.00000000000E+00  0.00000000000E+00  0.62724688325E+03  0.62724688325E+03  0.00000000000E+00 0.  1.
          2   -1    0    0  501    0  0.00000000000E+00 -0.00000000000E+00 -0.83873646289E+03  0.83873646289E+03  0.00000000000E+00 0. -1.
         24    2    1    2    0    0  0.18432501410E+03 -0.29093033854E+03 -0.38269210214E+03  0.52105189199E+03  0.80160192092E+02 0.  0.
        254    2    1    2    0    0 -0.18432501410E+03  0.29093033854E+03  0.17120252250E+03  0.94493145415E+03  0.86311585354E+03 0.  0.
         23    2    4    4    0    0 -0.16171322230E+03  0.41600189099E+02  0.49216470477E+03  0.52781357480E+03  0.92083283610E+02 0.  0.
         23    2    4    4    0    0 -0.22611791797E+02  0.24933014944E+03 -0.32096218227E+03  0.41711787935E+03  0.91070227192E+02 0.  0.
          4    1    3    3  502    0  0.14107627299E+03 -0.21347294862E+03 -0.22796667608E+03  0.34269814706E+03  0.00000000000E+00 0. -1.
         -3    1    3    3    0  502  0.43248741113E+02 -0.77457389917E+02 -0.15472542606E+03  0.17835374493E+03  0.00000000000E+00 0.  1.
         11    1    5    5    0    0 -0.17968891047E+02  0.29152703004E+02  0.18886223753E+03  0.19194193367E+03  0.00000000000E+00 0. -1.
        -11    1    5    5    0    0 -0.14374433126E+03  0.12447486095E+02  0.30330246725E+03  0.33587164113E+03  0.00000000000E+00 0.  1.
          4    1    6    6  503    0 -0.46001063663E+02  0.21939307833E+03 -0.29737917310E+03  0.37240272994E+03  0.00000000000E+00 0. -1.
         -4    1    6    6    0  503  0.23389271866E+02  0.29937071115E+02 -0.23583009171E+02  0.44715149412E+02  0.00000000000E+00 0.  1.
<mgrwt>
<rscale>  0 0.14506479E+04</rscale>
<asrwt>0</asrwt>
<pdfrwt beam="1">  1        2 0.12903638E+00 0.14506479E+04</pdfrwt>
<pdfrwt beam="2">  1       -1 0.96499521E-01 0.14506479E+04</pdfrwt>
<totfact> 0.36995741E+01</totfact>
</mgrwt>
</event>
<event>
12    6  0.1556619E-007  0.1685774E+04  0.7818608E-02  0.8769520E-01
          2   -1    0    0  501    0  0.00000000000E+00  0.00000000000E+00  0.17721845444E+04  0.17721845444E+04  0.00000000000E+00 0. -1.
         -1   -1    0    0    0  501 -0.00000000000E+00 -0.00000000000E+00 -0.40089431829E+03  0.40089431829E+03  0.00000000000E+00 0.  1.
         24    2    1    2    0    0 -0.19950852639E+03 -0.23284842463E+03 -0.16928312619E+03  0.35938320874E+03  0.80482749407E+02 0.  0.
        254    2    1    2    0    0  0.19950852639E+03  0.23284842463E+03  0.15405733523E+04  0.18136956539E+04  0.90669930539E+03 0.  0.
         23    2    4    4    0    0 -0.13533099166E+02 -0.17034361022E+03 -0.10691777786E+02  0.19374998329E+03  0.90689864921E+02 0.  0.
         23    2    4    4    0    0  0.21304162556E+03  0.40319203485E+03  0.15512651301E+04  0.16199456706E+04  0.99246767616E+02 0.  0.
          4    1    3    3  502    0 -0.34601257182E+02 -0.33806476746E+02  0.34524613658E+01  0.48497879934E+02  0.00000000000E+00 0. -1.
         -3    1    3    3    0  502 -0.16490726921E+03 -0.19904194789E+03 -0.17273558755E+03  0.31088532880E+03  0.00000000000E+00 0.  1.
         11    1    5    5    0    0  0.13301887313E+02  0.63272194527E+01  0.51205789832E-01  0.14730123358E+02  0.00000000000E+00 0. -1.
        -11    1    5    5    0    0 -0.26834986479E+02 -0.17667082967E+03 -0.10742983576E+02  0.17901985994E+03  0.00000000000E+00 0.  1.
          3    1    6    6  503    0  0.18980265278E+03  0.26245344496E+03  0.10576315114E+04  0.11061153971E+04  0.00000000000E+00 0. -1.
         -3    1    6    6    0  503  0.23238972779E+02  0.14073858989E+03  0.49363361866E+03  0.51383027355E+03  0.00000000000E+00 0.  1.
<mgrwt>
<rscale>  0 0.16857743E+04</rscale>
<asrwt>0</asrwt>
<pdfrwt beam="1">  1        2 0.27264377E+00 0.16857743E+04</pdfrwt>
<pdfrwt beam="2">  1       -1 0.61676050E-01 0.16857743E+04</pdfrwt>
<totfact> 0.25868832E+01</totfact>
</mgrwt>
</event>
<event>
12    6  0.1556619E-007  0.3391833E+04  0.7818608E-02  0.8139914E-01
          2   -1    0    0  501    0  0.00000000000E+00  0.00000000000E+00  0.25527704554E+04  0.25527704554E+04  0.00000000000E+00 0. -1.
         -1   -1    0    0    0  501 -0.00000000000E+00 -0.00000000000E+00 -0.11266713791E+04  0.11266713791E+04  0.00000000000E+00 0.  1.
         24    2    1    2    0    0  0.83256993367E+03 -0.15009752320E+03  0.21086882643E+04  0.22734263554E+04  0.78735231106E+02 0.  0.
        254    2    1    2    0    0 -0.83256993367E+03  0.15009752320E+03 -0.68258918797E+03  0.14060154791E+04  0.89176766417E+03 0.  0.
         23    2    4    4    0    0 -0.87146982665E+02  0.16903829067E+03 -0.61673504379E+03  0.65201809218E+03  0.92719674252E+02 0.  0.
         23    2    4    4    0    0 -0.74542295101E+03 -0.18940767470E+02 -0.65854144186E+02  0.75399738687E+03  0.90339152876E+02 0.  0.
          4    1    3    3  502    0  0.82411580081E+03 -0.14463802529E+03  0.20550999874E+04  0.22189012979E+04  0.00000000000E+00 0. -1.
         -3    1    3    3    0  502  0.84541328595E+01 -0.54594979114E+01  0.53588276838E+02  0.54525057490E+02  0.00000000000E+00 0.  1.
         11    1    5    5    0    0  0.10969171362E+02  0.72892253145E+02 -0.23704632542E+03  0.24824295294E+03  0.00000000000E+00 0.  1.
        -11    1    5    5    0    0 -0.98116154027E+02  0.96146037526E+02 -0.37968871837E+03  0.40377513924E+03  0.00000000000E+00 0. -1.
          2    1    6    6  503    0 -0.11506214285E+03  0.18940280639E+02  0.14092053105E+02  0.11745900096E+03  0.00000000000E+00 0. -1.
         -2    1    6    6    0  503 -0.63036080816E+03 -0.37881048109E+02 -0.79946197290E+02  0.63653838591E+03  0.00000000000E+00 0.  1.
<mgrwt>
<rscale>  0 0.33918334E+04</rscale>
<asrwt>0</asrwt>
<pdfrwt beam="1">  1        2 0.39273392E+00 0.33918334E+04</pdfrwt>
<pdfrwt beam="2">  1       -1 0.17333406E+00 0.33918334E+04</pdfrwt>
<totfact> 0.71054160E-01</totfact>
</mgrwt>
</event>
<event>
12    6  0.1556619E-007  0.1487147E+04  0.7818608E-02  0.8893046E-01
          2   -1    0    0  501    0  0.00000000000E+00  0.00000000000E+00  0.12284793368E+04  0.12284793368E+04  0.00000000000E+00 0. -1.
         -1   -1    0    0    0  501 -0.00000000000E+00 -0.00000000000E+00 -0.45006960460E+03  0.45006960460E+03  0.00000000000E+00 0.  1.
         24    2    1    2    0    0  0.10065851475E+03  0.30808142232E+03  0.62696934754E+03  0.71035142227E+03  0.80388313765E+02 0.  0.
        254    2    1    2    0    0 -0.10065851475E+03 -0.30808142232E+03  0.15144038461E+03  0.96819751908E+03  0.89968102486E+03 0.  0.
         23    2    4    4    0    0  0.32722824735E+03 -0.23438702443E+03  0.28862584287E+03  0.50351141752E+03  0.90571890262E+02 0.  0.
         23    2    4    4    0    0 -0.42788676210E+03 -0.73694397891E+02 -0.13718545826E+03  0.46468610157E+03  0.92711259132E+02 0.  0.
          4    1    3    3  502    0  0.83862117564E+02  0.30563432163E+03  0.59317057383E+03  0.67252994207E+03  0.00000000000E+00 0. -1.
         -3    1    3    3    0  502  0.16796397185E+02  0.24471006953E+01  0.33798773705E+02  0.37821480196E+02  0.00000000000E+00 0.  1.
         11    1    5    5    0    0  0.29200184286E+03 -0.18608472627E+03  0.21080376826E+03  0.40537739244E+03  0.00000000000E+00 0.  1.
        -11    1    5    5    0    0  0.35226404494E+02 -0.48302298159E+02  0.77822074616E+02  0.98134025081E+02  0.00000000000E+00 0. -1.
          2    1    6    6  503    0 -0.92063453689E+02 -0.47449415317E+01  0.76841073188E+01  0.92505348389E+02  0.00000000000E+00 0. -1.
         -2    1    6    6    0  503 -0.33582330841E+03 -0.68949456359E+02 -0.14486956558E+03  0.37218075318E+03  0.00000000000E+00 0.  1.
<mgrwt>
<rscale>  0 0.14871465E+04</rscale>
<asrwt>0</asrwt>
<pdfrwt beam="1">  1        2 0.18899682E+00 0.14871465E+04</pdfrwt>
<pdfrwt beam="2">  1       -1 0.69241478E-01 0.14871465E+04</pdfrwt>
<totfact> 0.42379866E+01</totfact>
</mgrwt>
</event>
<event>
12    6  0.1556619E-007  0.1808910E+04  0.7818608E-02  0.8701575E-01
          2   -1    0    0  501    0  0.00000000000E+00  0.00000000000E+00  0.13413434706E+04  0.13413434706E+04  0.00000000000E+00 0. -1.
         -1   -1    0    0    0  501 -0.00000000000E+00 -0.00000000000E+00 -0.60986557044E+03  0.60986557044E+03  0.00000000000E+00 0.  1.
         24    2    1    2    0    0 -0.96852668114E+02  0.17781474303E+03  0.97698172781E+03  0.10008966034E+04  0.79386346251E+02 0.  0.
        254    2    1    2    0    0  0.96852668114E+02 -0.17781474303E+03 -0.24550382766E+03  0.95031243768E+03  0.89544574244E+03 0.  0.
         23    2    4    4    0    0  0.21670157703E+03  0.31900841074E+03 -0.86360277205E+02  0.40593487752E+03  0.92731266012E+02 0.  0.
         23    2    4    4    0    0 -0.11984890892E+03 -0.49682315376E+03 -0.15914355046E+03  0.54437756016E+03  0.99112316442E+02 0.  0.
          2    1    3    3  502    0 -0.74730528950E+02  0.18023531211E+03  0.88658770939E+03  0.90780349533E+03  0.00000000000E+00 0. -1.
         -1    1    3    3    0  502 -0.22122139164E+02 -0.24205690779E+01  0.90394018424E+02  0.93093108030E+02  0.00000000000E+00 0.  1.
         11    1    5    5    0    0  0.20505717092E+03  0.23528768325E+03 -0.69238015922E+02  0.31969147640E+03  0.00000000000E+00 0.  1.
        -11    1    5    5    0    0  0.11644406115E+02  0.83720727486E+02 -0.17122261283E+02  0.86243401116E+02  0.00000000000E+00 0. -1.
          4    1    6    6  503    0 -0.12151732781E+03 -0.45481160839E+03 -0.11751541517E+03  0.48521122503E+03  0.00000000000E+00 0.  1.
         -4    1    6    6    0  503  0.16684188961E+01 -0.42011545371E+02 -0.41628135285E+02  0.59166335135E+02  0.00000000000E+00 0. -1.
<mgrwt>
<rscale>  0 0.18089104E+04</rscale>
<asrwt>0</asrwt>
<pdfrwt beam="1">  1        2 0.20636053E+00 0.18089104E+04</pdfrwt>
<pdfrwt beam="2">  1       -1 0.93825472E-01 0.18089104E+04</pdfrwt>
<totfact> 0.18520843E+01</totfact>
</mgrwt>
</event>
<event>
12    6  0.1556619E-007  0.2068401E+04  0.7818608E-02  0.8575292E-01
          2   -1    0    0  501    0  0.00000000000E+00  0.00000000000E+00  0.11917356258E+04  0.11917356258E+04  0.00000000000E+00 0. -1.
         -1   -1    0    0    0  501 -0.00000000000E+00 -0.00000000000E+00 -0.89749026322E+03  0.89749026322E+03  0.00000000000E+00 0.  1.
         24    2    1    2    0    0 -0.82353542399E+03  0.14006534321E+03  0.92253871014E+02  0.84432882087E+03  0.80941250907E+02 0.  0.
        254    2    1    2    0    0  0.82353542399E+03 -0.14006534321E+03  0.20199149159E+03  0.12448970682E+04  0.90063269582E+03 0.  0.
         23    2    4    4    0    0  0.66180095056E+03 -0.22353033125E+02 -0.27180480733E+03  0.72160486242E+03  0.91408795703E+02 0.  0.
         23    2    4    4    0    0  0.16173447343E+03 -0.11771231009E+03  0.47379629892E+03  0.52329220577E+03  0.96631112497E+02 0.  0.
          2    1    3    3  502    0 -0.68763963752E+03  0.11439769694E+03  0.10696772337E+03  0.70524974158E+03  0.00000000000E+00 0. -1.
         -1    1    3    3    0  502 -0.13589578647E+03  0.25667646277E+02 -0.14713852353E+02  0.13907907929E+03  0.00000000000E+00 0.  1.
         11    1    5    5    0    0  0.65503476315E+03 -0.30846505436E+02 -0.27369050097E+03  0.71058323802E+03  0.00000000000E+00 0. -1.
        -11    1    5    5    0    0  0.67661874139E+01  0.84934723113E+01  0.18856936431E+01  0.11021624406E+02  0.00000000000E+00 0.  1.
          4    1    6    6  503    0  0.14098831022E+03 -0.50975425646E+02  0.28597392897E+03  0.32288896805E+03  0.00000000000E+00 0. -1.
         -4    1    6    6    0  503  0.20746163210E+02 -0.66736884444E+02  0.18782236995E+03  0.20040323771E+03  0.00000000000E+00 0.  1.
<mgrwt>
<rscale>  0 0.20684014E+04</rscale>
<asrwt>0</asrwt>
<pdfrwt beam="1">  1        2 0.18334394E+00 0.20684014E+04</pdfrwt>
<pdfrwt beam="2">  1       -1 0.13807542E+00 0.20684014E+04</pdfrwt>
<totfact> 0.87710910E+00</totfact>
</mgrwt>
</event>
<event>
12    6  0.1556619E-007  0.9606603E+03  0.7818608E-02  0.9352776E-01
         -1   -1    0    0    0  501 -0.00000000000E+00  0.00000000000E+00  0.20951958093E+03  0.20951958093E+03  0.00000000000E+00 0.  1.
          2   -1    0    0  501    0  0.00000000000E+00 -0.00000000000E+00 -0.11011717465E+04  0.11011717465E+04  0.00000000000E+00 0. -1.
         24    2    1    2    0    0  0.63744442963E+02 -0.25646204432E+02 -0.39263192408E+02  0.11282228001E+03  0.80412603351E+02 0.  0.
        254    2    1    2    0    0 -0.63744442963E+02  0.25646204432E+02 -0.85238897319E+03  0.11978690475E+04  0.83880999721E+03 0.  0.
         23    2    4    4    0    0 -0.38634313755E+03 -0.13304424121E+03 -0.65580687798E+03  0.77877257754E+03  0.97171375851E+02 0.  0.
         23    2    4    4    0    0  0.32259869458E+03  0.15869044564E+03 -0.19658209521E+03  0.41909646991E+03  0.88004293351E+02 0.  0.
          4    1    3    3  502    0 -0.31292350441E+00 -0.35512001355E+02 -0.31638752728E+02  0.47562704250E+02  0.00000000000E+00 0. -1.
         -3    1    3    3    0  502  0.64057366468E+02  0.98657969229E+01 -0.76244396801E+01  0.65259575758E+02  0.00000000000E+00 0.  1.
         11    1    5    5    0    0 -0.38042696907E+03 -0.13879207459E+03 -0.60967790997E+03  0.73191192959E+03  0.00000000000E+00 0. -1.
        -11    1    5    5    0    0 -0.59161684817E+01  0.57478333778E+01 -0.46128968003E+02  0.46860647958E+02  0.00000000000E+00 0.  1.
          1    1    6    6  503    0  0.26205760706E+03  0.16337424603E+03 -0.15524033983E+03  0.34563694362E+03  0.00000000000E+00 0. -1.
         -1    1    6    6    0  503  0.60541087523E+02 -0.46838003903E+01 -0.41341755384E+02  0.73459526290E+02  0.00000000000E+00 0.  1.
<mgrwt>
<rscale>  0 0.96066028E+03</rscale>
<asrwt>0</asrwt>
<pdfrwt beam="1">  1        2 0.16941104E+00 0.96066028E+03</pdfrwt>
<pdfrwt beam="2">  1       -1 0.32233782E-01 0.96066028E+03</pdfrwt>
<totfact> 0.22255563E+02</totfact>
</mgrwt>
</event>
<event>
12    6  0.1556619E-007  0.2636121E+04  0.7818608E-02  0.8356034E-01
          2   -1    0    0  501    0  0.00000000000E+00  0.00000000000E+00  0.13173781081E+04  0.13173781081E+04  0.00000000000E+00 0. -1.
         -1   -1    0    0    0  501 -0.00000000000E+00 -0.00000000000E+00 -0.13187430838E+04  0.13187430838E+04  0.00000000000E+00 0.  1.
         24    2    1    2    0    0  0.16080720462E+03 -0.65309293319E+03  0.94755783864E+03  0.11647702303E+04  0.80215305727E+02 0.  0.
        254    2    1    2    0    0 -0.16080720462E+03  0.65309293319E+03 -0.94892281430E+03  0.14713509616E+04  0.90112696569E+03 0.  0.
         23    2    4    4    0    0  0.26810420008E+03  0.61160697610E+03 -0.66712542881E+03  0.94838447549E+03  0.91835833296E+02 0.  0.
         23    2    4    4    0    0 -0.42891140470E+03  0.41485957094E+02 -0.28179738549E+03  0.52296648612E+03  0.91641155685E+02 0.  0.
          2    1    3    3  502    0  0.12437681269E+03 -0.48378837886E+03  0.64067170104E+03  0.81239215626E+03  0.00000000000E+00 0. -1.
         -1    1    3    3    0  502  0.36430391936E+02 -0.16930455434E+03  0.30688613760E+03  0.35237807399E+03  0.00000000000E+00 0.  1.
         11    1    5    5    0    0  0.27077526869E+03  0.60662042932E+03 -0.64639043090E+03  0.92689167682E+03  0.00000000000E+00 0.  1.
        -11    1    5    5    0    0 -0.26710686098E+01  0.49865467778E+01 -0.20734997915E+02  0.21492798674E+02  0.00000000000E+00 0. -1.
          2    1    6    6  503    0 -0.18997412552E+03  0.54639230771E+02 -0.16079137515E+03  0.25481263750E+03  0.00000000000E+00 0. -1.
         -2    1    6    6    0  503 -0.23893727918E+03 -0.13153273677E+02 -0.12100601034E+03  0.26815384862E+03  0.00000000000E+00 0.  1.
<mgrwt>
<rscale>  0 0.26361208E+04</rscale>
<asrwt>0</asrwt>
<pdfrwt beam="1">  1        2 0.20267355E+00 0.26361208E+04</pdfrwt>
<pdfrwt beam="2">  1       -1 0.20288355E+00 0.26361208E+04</pdfrwt>
<totfact> 0.23331989E+00</totfact>
</mgrwt>
</event>
<event>
12    6  0.1556619E-007  0.2225725E+04  0.7818608E-02  0.8507797E-01
         -1   -1    0    0    0  501 -0.00000000000E+00  0.00000000000E+00  0.25551828729E+04  0.25551828729E+04  0.00000000000E+00 0.  1.
          2   -1    0    0  501    0  0.00000000000E+00 -0.00000000000E+00 -0.48468648128E+03  0.48468648128E+03  0.00000000000E+00 0. -1.
         24    2    1    2    0    0 -0.19821834571E+03  0.18544690613E+03  0.20796976266E+04  0.20990199413E+04  0.84032306724E+02 0.  0.
        254    2    1    2    0    0  0.19821834571E+03 -0.18544690613E+03 -0.92012349724E+01  0.94084941283E+03  0.90079514171E+03 0.  0.
         23    2    4    4    0    0  0.24296031830E+03 -0.39851741989E+03 -0.30303067809E+03  0.56356470926E+03  0.89060313473E+02 0.  0.
         23    2    4    4    0    0 -0.44741972585E+02  0.21307051376E+03  0.29382944312E+03  0.37728470357E+03  0.92774554499E+02 0.  0.
          4    1    3    3  502    0 -0.57746591608E+02  0.27110963885E+02  0.29529883975E+03  0.30211103582E+03  0.00000000000E+00 0. -1.
         -1    1    3    3    0  502 -0.14047175411E+03  0.15833594224E+03  0.17843987868E+04  0.17969089055E+04  0.00000000000E+00 0.  1.
         11    1    5    5    0    0  0.12672868542E+03 -0.28638583952E+03 -0.21189025703E+03  0.37811967658E+03  0.00000000000E+00 0.  1.
        -11    1    5    5    0    0  0.11623163288E+03 -0.11213158037E+03 -0.91140421057E+02  0.18544503268E+03  0.00000000000E+00 0. -1.
          1    1    6    6  503    0 -0.48695310972E+02  0.49716283358E+02  0.11994955701E+03  0.13867529834E+03  0.00000000000E+00 0. -1.
         -1    1    6    6    0  503  0.39533383869E+01  0.16335423040E+03  0.17387988611E+03  0.23860940524E+03  0.00000000000E+00 0.  1.
<mgrwt>
<rscale>  0 0.22257247E+04</rscale>
<asrwt>0</asrwt>
<pdfrwt beam="1">  1        2 0.74567152E-01 0.22257247E+04</pdfrwt>
<pdfrwt beam="2">  1       -1 0.39310505E+00 0.22257247E+04</pdfrwt>
<totfact> 0.53063754E-01</totfact>
</mgrwt>
</event>
<event>
12    6  0.1556619E-007  0.1767599E+04  0.7818608E-02  0.8723722E-01
         -1   -1    0    0    0  501 -0.00000000000E+00  0.00000000000E+00  0.36812480065E+03  0.36812480065E+03  0.00000000000E+00 0.  1.
          2   -1    0    0  501    0  0.00000000000E+00 -0.00000000000E+00 -0.21218391293E+04  0.21218391293E+04  0.00000000000E+00 0. -1.
         24    2    1    2    0    0  0.46824723045E+03  0.29146877423E+03 -0.16500570861E+03  0.58175111795E+03  0.83653835488E+02 0.  0.
        254    2    1    2    0    0 -0.46824723045E+03 -0.29146877423E+03 -0.15887086200E+04  0.19082128120E+04  0.90170479719E+03 0.  0.
         23    2    4    4    0    0  0.22087125639E+01  0.28465784164E+03 -0.34471627822E+03  0.45618046053E+03  0.90754255419E+02 0.  0.
         23    2    4    4    0    0 -0.47045594301E+03 -0.57612661587E+03 -0.12439923418E+04  0.14520323514E+04  0.87351767910E+02 0.  0.
          2    1    3    3  502    0  0.92417395391E+01 -0.40696392852E+01  0.30507997370E+01  0.10548890589E+02  0.00000000000E+00 0. -1.
         -1    1    3    3    0  502  0.45900549091E+03  0.29553841351E+03 -0.16805650835E+03  0.57120222736E+03  0.00000000000E+00 0.  1.
         11    1    5    5    0    0 -0.20526012701E+02  0.24614115359E+03 -0.32256542415E+03  0.40626990726E+03  0.00000000000E+00 0. -1.
        -11    1    5    5    0    0  0.22734725265E+02  0.38516688054E+02 -0.22150854072E+02  0.49910553269E+02  0.00000000000E+00 0.  1.
          3    1    6    6  503    0 -0.36488751490E+03 -0.49898807097E+03 -0.10250991378E+04  0.11970631712E+04  0.00000000000E+00 0. -1.
         -3    1    6    6    0  503 -0.10556842811E+03 -0.77138544904E+02 -0.21889320401E+03  0.25496918027E+03  0.00000000000E+00 0.  1.
<mgrwt>
<rscale>  0 0.17675991E+04</rscale>
<asrwt>0</asrwt>
<pdfrwt beam="1">  1        2 0.32643678E+00 0.17675991E+04</pdfrwt>
<pdfrwt beam="2">  1       -1 0.56634586E-01 0.17675991E+04</pdfrwt>
<totfact> 0.19435860E+01</totfact>
</mgrwt>
</event>
<event>
12    6  0.1556619E-007  0.2532946E+04  0.7818608E-02  0.8391341E-01
          2   -1    0    0  501    0  0.00000000000E+00  0.00000000000E+00  0.76855168086E+03  0.76855168086E+03  0.00000000000E+00 0. -1.
         -1   -1    0    0    0  501 -0.00000000000E+00 -0.00000000000E+00 -0.20869824476E+04  0.20869824476E+04  0.00000000000E+00 0.  1.
         24    2    1    2    0    0 -0.75273740252E+03 -0.66909308655E+03 -0.43992456252E+02  0.10112461082E+04  0.79901185704E+02 0.  0.
        254    2    1    2    0    0  0.75273740252E+03  0.66909308655E+03 -0.12744383105E+04  0.18442880203E+04  0.87344498333E+03 0.  0.
         23    2    4    4    0    0  0.76128032196E+03  0.58794367380E+03 -0.55447228915E+03  0.11140061698E+04  0.91349519047E+02 0.  0.
         23    2    4    4    0    0 -0.85429194390E+01  0.81149412745E+02 -0.71996602134E+03  0.73028185054E+03  0.91116961530E+02 0.  0.
          2    1    3    3  502    0 -0.83968498960E+02 -0.58178158529E+02  0.16292048909E+02  0.10344485393E+03  0.00000000000E+00 0. -1.
         -1    1    3    3    0  502 -0.66876890356E+03 -0.61091492802E+03 -0.60284505162E+02  0.90780125425E+03  0.00000000000E+00 0.  1.
         11    1    5    5    0    0  0.60199679986E+02  0.68434586676E+02 -0.30111957217E+02  0.95989708258E+02  0.00000000000E+00 0.  1.
        -11    1    5    5    0    0  0.70108064198E+03  0.51950908713E+03 -0.52436033194E+03  0.10180164615E+04  0.00000000000E+00 0. -1.
          3    1    6    6  503    0 -0.31197244691E+02  0.41770320715E+02 -0.59560659657E+03  0.59788397340E+03  0.00000000000E+00 0. -1.
         -3    1    6    6    0  503  0.22654325252E+02  0.39379092030E+02 -0.12435942477E+03  0.13239787714E+03  0.00000000000E+00 0.  1.
<mgrwt>
<rscale>  0 0.25329460E+04</rscale>
<asrwt>0</asrwt>
<pdfrwt beam="1">  1        2 0.11823872E+00 0.25329460E+04</pdfrwt>
<pdfrwt beam="2">  1       -1 0.32107422E+00 0.25329460E+04</pdfrwt>
<totfact> 0.88759161E-01</totfact>
</mgrwt>
</event>
<event>
12    6  0.1556619E-007  0.2865814E+04  0.7818608E-02  0.8283122E-01
          2   -1    0    0  501    0  0.00000000000E+00  0.00000000000E+00  0.20114223802E+04  0.20114223802E+04  0.00000000000E+00 0. -1.
         -1   -1    0    0    0  501 -0.00000000000E+00 -0.00000000000E+00 -0.10207816118E+04  0.10207816118E+04  0.00000000000E+00 0.  1.
         24    2    1    2    0    0  0.11990854635E+04  0.42515842418E+03  0.67142416088E+03  0.14404655845E+04  0.74599341530E+02 0.  0.
        254    2    1    2    0    0 -0.11990854635E+04 -0.42515842418E+03  0.31921660753E+03  0.15917384076E+04  0.90175732942E+03 0.  0.
         23    2    4    4    0    0 -0.91448605890E+03 -0.69723137990E+03  0.22335450210E+03  0.11759839150E+04  0.10312412798E+03 0.  0.
         23    2    4    4    0    0 -0.28459940460E+03  0.27207295572E+03  0.95862105432E+02  0.41575449253E+03  0.92960962053E+02 0.  0.
          4    1    3    3  502    0  0.57793847152E+03  0.21367622712E+03  0.36628873971E+03  0.71682483755E+03  0.00000000000E+00 0. -1.
         -1    1    3    3    0  502  0.62114699198E+03  0.21148219705E+03  0.30513542117E+03  0.72364074690E+03  0.00000000000E+00 0.  1.
         11    1    5    5    0    0 -0.25720782001E+03 -0.14672664342E+03  0.35015979295E+02  0.29817895527E+03  0.00000000000E+00 0.  1.
        -11    1    5    5    0    0 -0.65727823889E+03 -0.55050473648E+03  0.18833852280E+03  0.87780495976E+03  0.00000000000E+00 0. -1.
          2    1    6    6  503    0 -0.24493951897E+03  0.18663578999E+03  0.53843156975E+02  0.31261377386E+03  0.00000000000E+00 0. -1.
         -2    1    6    6    0  503 -0.39659885630E+02  0.85437165734E+02  0.42018948458E+02  0.10314071866E+03  0.00000000000E+00 0.  1.
<mgrwt>
<rscale>  0 0.28658144E+04</rscale>
<asrwt>0</asrwt>
<pdfrwt beam="1">  1        2 0.30944960E+00 0.28658144E+04</pdfrwt>
<pdfrwt beam="2">  1       -1 0.15704333E+00 0.28658144E+04</pdfrwt>
<totfact> 0.19952551E+00</totfact>
</mgrwt>
</event>
<event>
12    6  0.1556619E-007  0.1815470E+04  0.7818608E-02  0.8698116E-01
          2   -1    0    0  501    0  0.00000000000E+00  0.00000000000E+00  0.29234172461E+04  0.29234172461E+04  0.00000000000E+00 0. -1.
         -1   -1    0    0    0  501 -0.00000000000E+00 -0.00000000000E+00 -0.28185611791E+03  0.28185611791E+03  0.00000000000E+00 0.  1.
         24    2    1    2    0    0 -0.10731306681E+03 -0.55354295375E+02  0.21789137807E+04  0.21836866470E+04  0.79005798790E+02 0.  0.
        254    2    1    2    0    0  0.10731306681E+03  0.55354295375E+02  0.46264734747E+03  0.10215867170E+04  0.90278273127E+03 0.  0.
         23    2    4    4    0    0  0.31530333231E+03 -0.22839515666E+03  0.51749059946E+03  0.65399863653E+03  0.91308034153E+02 0.  0.
         23    2    4    4    0    0 -0.20799026550E+03  0.28374945203E+03 -0.54843251985E+02  0.36758808046E+03  0.91320931539E+02 0.  0.
          2    1    3    3  502    0 -0.64581270959E+02  0.38031061664E+01  0.70320201891E+03  0.70617156809E+03  0.00000000000E+00 0. -1.
         -1    1    3    3    0  502 -0.42731795852E+02 -0.59157401541E+02  0.14757117618E+04  0.14775150789E+04  0.00000000000E+00 0.  1.
         11    1    5    5    0    0  0.28179886019E+03 -0.17629954308E+03  0.47131747633E+03  0.57674282830E+03  0.00000000000E+00 0.  1.
        -11    1    5    5    0    0  0.33504472118E+02 -0.52095613580E+02  0.46173123127E+02  0.77255808232E+02  0.00000000000E+00 0. -1.
          3    1    6    6  503    0  0.89130553932E+01  0.15492470459E+02 -0.74792649650E+01  0.19375205851E+02  0.00000000000E+00 0. -1.
         -3    1    6    6    0  503 -0.21690332089E+03  0.26825698158E+03 -0.47363987020E+02  0.34821287461E+03  0.00000000000E+00 0.  1.
<mgrwt>
<rscale>  0 0.18154702E+04</rscale>
<asrwt>0</asrwt>
<pdfrwt beam="1">  1        2 0.44975648E+00 0.18154702E+04</pdfrwt>
<pdfrwt beam="2">  1       -1 0.43362482E-01 0.18154702E+04</pdfrwt>
<totfact> 0.10982738E+01</totfact>
</mgrwt>
</event>
<event>
12    6  0.1556619E-007  0.1398643E+04  0.7818608E-02  0.8954802E-01
         -1   -1    0    0    0  501 -0.00000000000E+00  0.00000000000E+00  0.15046908288E+03  0.15046908288E+03  0.00000000000E+00 0.  1.
          2   -1    0    0  501    0  0.00000000000E+00 -0.00000000000E+00 -0.32501723124E+04  0.32501723124E+04  0.00000000000E+00 0. -1.
         24    2    1    2    0    0  0.21657499831E+03  0.31594720973E+03 -0.59536142163E+03  0.71243393427E+03  0.79871891768E+02 0.  0.
        254    2    1    2    0    0 -0.21657499831E+03 -0.31594720973E+03 -0.25043418078E+04  0.26882074610E+04  0.89889047916E+03 0.  0.
         23    2    4    4    0    0 -0.76691807041E+02  0.87497176438E+02 -0.20602591353E+04  0.20654470938E+04  0.88693875820E+02 0.  0.
         23    2    4    4    0    0 -0.13988319126E+03 -0.40344438617E+03 -0.44408267252E+03  0.62276036714E+03  0.91029527738E+02 0.  0.
          4    1    3    3  502    0  0.11288285111E+02  0.23705077838E+01 -0.45828108149E+02  0.47257382327E+02  0.00000000000E+00 0. -1.
         -3    1    3    3    0  502  0.20528671319E+03  0.31357670195E+03 -0.54953331349E+03  0.66517655194E+03  0.00000000000E+00 0.  1.
         11    1    5    5    0    0 -0.13751870386E+02  0.16816585796E+02 -0.11643986778E+04  0.11646013019E+04  0.00000000000E+00 0. -1.
        -11    1    5    5    0    0 -0.62939936655E+02  0.70680590642E+02 -0.89586045753E+03  0.90084579195E+03  0.00000000000E+00 0.  1.
          4    1    6    6  503    0 -0.14188897431E+03 -0.35119068731E+03 -0.35314508230E+03  0.51785985463E+03  0.00000000000E+00 0. -1.
         -4    1    6    6    0  503  0.20057830485E+01 -0.52253698854E+02 -0.90937590216E+02  0.10490051251E+03  0.00000000000E+00 0.  1.
<mgrwt>
<rscale>  0 0.13986428E+04</rscale>
<asrwt>0</asrwt>
<pdfrwt beam="1">  1        2 0.50002650E+00 0.13986428E+04</pdfrwt>
<pdfrwt beam="2">  1       -1 0.23149090E-01 0.13986428E+04</pdfrwt>
<totfact> 0.21565099E+01</totfact>
</mgrwt>
</event>
<event>
12    6  0.1556619E-007  0.2461356E+04  0.7818608E-02  0.8416883E-01
          2   -1    0    0  501    0  0.00000000000E+00  0.00000000000E+00  0.15352761119E+04  0.15352761119E+04  0.00000000000E+00 0. -1.
         -1   -1    0    0    0  501 -0.00000000000E+00 -0.00000000000E+00 -0.98651224882E+03  0.98651224882E+03  0.00000000000E+00 0.  1.
         24    2    1    2    0    0  0.59726072754E+03  0.61027536265E+03  0.88791405487E+03  0.12345396942E+04  0.80873313501E+02 0.  0.
        254    2    1    2    0    0 -0.59726072754E+03 -0.61027536265E+03 -0.33915019177E+03  0.12872486665E+04  0.90157078589E+03 0.  0.
         23    2    4    4    0    0 -0.42558752611E+02 -0.11026857734E+03  0.27679432720E+03  0.31441453518E+03  0.90945004207E+02 0.  0.
         23    2    4    4    0    0 -0.55470197492E+03 -0.50000678531E+03 -0.61594451897E+03  0.97283413134E+03  0.96527355217E+02 0.  0.
          4    1    3    3  502    0  0.58715717147E+03  0.57869802511E+03  0.84871620035E+03  0.11832008016E+04  0.00000000000E+00 0. -1.
         -3    1    3    3    0  502  0.10103556065E+02  0.31577337533E+02  0.39197854514E+02  0.51338892560E+02  0.00000000000E+00 0.  1.
         11    1    5    5    0    0 -0.53342414503E+02 -0.38950057860E+02  0.19226505514E+03  0.20329380615E+03  0.00000000000E+00 0.  1.
        -11    1    5    5    0    0  0.10783661892E+02 -0.71318519478E+02  0.84529272060E+02  0.11112072903E+03  0.00000000000E+00 0. -1.
          4    1    6    6  503    0 -0.29198974973E+03 -0.20553184995E+03 -0.26407558317E+03  0.44411402693E+03  0.00000000000E+00 0. -1.
         -4    1    6    6    0  503 -0.26271222520E+03 -0.29447493536E+03 -0.35186893580E+03  0.52872010441E+03  0.00000000000E+00 0.  1.
<mgrwt>
<rscale>  0 0.24613563E+04</rscale>
<asrwt>0</asrwt>
<pdfrwt beam="1">  1        2 0.23619633E+00 0.24613563E+04</pdfrwt>
<pdfrwt beam="2">  1       -1 0.15177112E+00 0.24613563E+04</pdfrwt>
<totfact> 0.41763329E+00</totfact>
</mgrwt>
</event>
<event>
12    6  0.1556619E-007  0.1370468E+04  0.7818608E-02  0.8975477E-01
          2   -1    0    0  501    0  0.00000000000E+00  0.00000000000E+00  0.18205378510E+04  0.18205378510E+04  0.00000000000E+00 0. -1.
         -1   -1    0    0    0  501 -0.00000000000E+00 -0.00000000000E+00 -0.25791606190E+03  0.25791606190E+03  0.00000000000E+00 0.  1.
         24    2    1    2    0    0 -0.32233948364E+03 -0.58649843844E+02  0.74482395122E+03  0.81741568736E+03  0.77866171905E+02 0.  0.
        254    2    1    2    0    0  0.32233948364E+03  0.58649843844E+02  0.81779783791E+03  0.12610382256E+04  0.90226468166E+03 0.  0.
         23    2    4    4    0    0  0.37054104761E+03 -0.27498664158E+03  0.12664544696E+03  0.48694625891E+03  0.90328671076E+02 0.  0.
         23    2    4    4    0    0 -0.48201563972E+02  0.33363648542E+03  0.69115239095E+03  0.77409196666E+03  0.88825954313E+02 0.  0.
          4    1    3    3  502    0 -0.17432961086E+03  0.78248432476E+01  0.38553499506E+03  0.42318940654E+03  0.00000000000E+00 0. -1.
         -3    1    3    3    0  502 -0.14800987278E+03 -0.66474687092E+02  0.35928895617E+03  0.39422628082E+03  0.00000000000E+00 0.  1.
         11    1    5    5    0    0  0.35534384414E+03 -0.23366377571E+03  0.10588758233E+03  0.43826953778E+03  0.00000000000E+00 0.  1.
        -11    1    5    5    0    0  0.15197203470E+02 -0.41322865862E+02  0.20757864622E+02  0.48676721130E+02  0.00000000000E+00 0. -1.
          3    1    6    6  503    0  0.45845005055E+01  0.22379956877E+03  0.39821192179E+03  0.45681506026E+03  0.00000000000E+00 0. -1.
         -3    1    6    6    0  503 -0.52786064478E+02  0.10983691665E+03  0.29294046916E+03  0.31727690640E+03  0.00000000000E+00 0.  1.
<mgrwt>
<rscale>  0 0.13704685E+04</rscale>
<asrwt>0</asrwt>
<pdfrwt beam="1">  1        2 0.28008274E+00 0.13704685E+04</pdfrwt>
<pdfrwt beam="2">  1       -1 0.39679395E-01 0.13704685E+04</pdfrwt>
<totfact> 0.57738360E+01</totfact>
</mgrwt>
</event>
<event>
12    6  0.1556619E-007  0.1633256E+04  0.7818608E-02  0.8800374E-01
          2   -1    0    0  501    0  0.00000000000E+00  0.00000000000E+00  0.25104834692E+04  0.25104834692E+04  0.00000000000E+00 0. -1.
         -1   -1    0    0    0  501 -0.00000000000E+00 -0.00000000000E+00 -0.26563846565E+03  0.26563846565E+03  0.00000000000E+00 0.  1.
         24    2    1    2    0    0  0.11995065028E+03 -0.50419442540E+03  0.39757277172E+03  0.65805720519E+03  0.79843593248E+02 0.  0.
        254    2    1    2    0    0 -0.11995065028E+03  0.50419442540E+03  0.18472722318E+04  0.21180647296E+04  0.89732007855E+03 0.  0.
         23    2    4    4    0    0  0.32323081374E+03 -0.15765654113E+02  0.76019323217E+03  0.83078168111E+03  0.87050196072E+02 0.  0.
         23    2    4    4    0    0 -0.44318146403E+03  0.51996007951E+03  0.10870789996E+04  0.12872830485E+04  0.92674706322E+02 0.  0.
          2    1    3    3  502    0  0.11100259652E+03 -0.48206265030E+03  0.35373228464E+03  0.60813855695E+03  0.00000000000E+00 0. -1.
         -3    1    3    3    0  502  0.89480537660E+01 -0.22131775102E+02  0.43840487079E+02  0.49918648245E+02  0.00000000000E+00 0.  1.
         11    1    5    5    0    0  0.29082768351E+03 -0.33981084632E+02  0.71245744034E+03  0.77027985817E+03  0.00000000000E+00 0.  1.
        -11    1    5    5    0    0  0.32403130231E+02  0.18215430518E+02  0.47735791829E+02  0.60501822942E+02  0.00000000000E+00 0. -1.
          2    1    6    6  503    0 -0.18458607864E+03  0.28294100560E+03  0.56526791346E+03  0.65852520610E+03  0.00000000000E+00 0. -1.
         -2    1    6    6    0  503 -0.25859538538E+03  0.23701907391E+03  0.52181108616E+03  0.62875784240E+03  0.00000000000E+00 0.  1.
<mgrwt>
<rscale>  0 0.16332556E+04</rscale>
<asrwt>0</asrwt>
<pdfrwt beam="1">  1        2 0.38622821E+00 0.16332556E+04</pdfrwt>
<pdfrwt beam="2">  1       -1 0.40867458E-01 0.16332556E+04</pdfrwt>
<totfact> 0.21938048E+01</totfact>
</mgrwt>
</event>
<event>
12    6  0.1556619E-007  0.1644046E+04  0.7818608E-02  0.8793937E-01
          2   -1    0    0  501    0  0.00000000000E+00  0.00000000000E+00  0.19995306697E+04  0.19995306697E+04  0.00000000000E+00 0. -1.
         -1   -1    0    0    0  501 -0.00000000000E+00 -0.00000000000E+00 -0.33794015141E+03  0.33794015141E+03  0.00000000000E+00 0.  1.
         24    2    1    2    0    0 -0.53557288729E+03 -0.19252670673E+03  0.75937777415E+03  0.95247252270E+03  0.81513509500E+02 0.  0.
        254    2    1    2    0    0  0.53557288729E+03  0.19252670673E+03  0.90221274415E+03  0.13849982984E+04  0.88336153441E+03 0.  0.
         23    2    4    4    0    0  0.24043003431E+03  0.42960883051E+03  0.85633262815E+03  0.99271262671E+03  0.99007275326E+02 0.  0.
         23    2    4    4    0    0  0.29514285298E+03 -0.23708212377E+03  0.45880116000E+02  0.39228567169E+03  0.92009923872E+02 0.  0.
          2    1    3    3  502    0 -0.13502430967E+03 -0.55961807674E+02  0.25653045331E+03  0.29524762759E+03  0.00000000000E+00 0. -1.
         -1    1    3    3    0  502 -0.40054857762E+03 -0.13656489906E+03  0.50284732084E+03  0.65722489512E+03  0.00000000000E+00 0.  1.
         11    1    5    5    0    0  0.73793131550E+02  0.18698968889E+03  0.26963115032E+03  0.33632057214E+03  0.00000000000E+00 0.  1.
        -11    1    5    5    0    0  0.16663690276E+03  0.24261914161E+03  0.58670147782E+03  0.65639205458E+03  0.00000000000E+00 0. -1.
          1    1    6    6  503    0  0.14981973946E+03 -0.90944869451E+02 -0.18830009537E+02  0.17627107781E+03  0.00000000000E+00 0. -1.
         -1    1    6    6    0  503  0.14532311352E+03 -0.14613725432E+03  0.64710125538E+02  0.21601459388E+03  0.00000000000E+00 0.  1.
<mgrwt>
<rscale>  0 0.16440459E+04</rscale>
<asrwt>0</asrwt>
<pdfrwt beam="1">  1        2 0.30762009E+00 0.16440459E+04</pdfrwt>
<pdfrwt beam="2">  1       -1 0.51990794E-01 0.16440459E+04</pdfrwt>
<totfact> 0.27110864E+01</totfact>
</mgrwt>
</event>
<event>
12    6  0.1556619E-007  0.1807620E+04  0.7818608E-02  0.8702258E-01
         -1   -1    0    0    0  501 -0.00000000000E+00  0.00000000000E+00  0.26561031301E+03  0.26561031301E+03  0.00000000000E+00 0.  1.
          2   -1    0    0  501    0  0.00000000000E+00 -0.00000000000E+00 -0.30754549747E+04  0.30754549747E+04  0.00000000000E+00 0. -1.
         24    2    1    2    0    0  0.58431712740E+03 -0.19742983756E+03 -0.14157166436E+04  0.15457917679E+04  0.69379597799E+02 0.  0.
        254    2    1    2    0    0 -0.58431712740E+03  0.19742983756E+03 -0.13941280180E+04  0.17952735198E+04  0.94816086925E+03 0.  0.
         23    2    4    4    0    0  0.24500000876E+03  0.12145010042E+03 -0.28485684642E+03  0.40520616492E+03  0.90958682668E+02 0.  0.
         23    2    4    4    0    0 -0.82931713615E+03  0.75979737139E+02 -0.11092711716E+04  0.13900673548E+04  0.90911418783E+02 0.  0.
          4    1    3    3  502    0  0.22023169833E+03 -0.77459870256E+02 -0.62150950485E+03  0.66390970550E+03  0.00000000000E+00 0. -1.
         -3    1    3    3    0  502  0.36408542907E+03 -0.11996996730E+03 -0.79420713877E+03  0.88188206240E+03  0.00000000000E+00 0.  1.
         11    1    5    5    0    0  0.12821905186E+03  0.92980557050E+02 -0.21206260290E+03  0.26468104730E+03  0.00000000000E+00 0. -1.
        -11    1    5    5    0    0  0.11678095689E+03  0.28469543368E+02 -0.72794243523E+02  0.14052511762E+03  0.00000000000E+00 0.  1.
          1    1    6    6  503    0 -0.41034209549E+03 -0.78077543162E+01 -0.53584148281E+03  0.67495754760E+03  0.00000000000E+00 0. -1.
         -1    1    6    6    0  503 -0.41897504066E+03  0.83787491455E+02 -0.57342968880E+03  0.71510980724E+03  0.00000000000E+00 0.  1.
<mgrwt>
<rscale>  0 0.18076200E+04</rscale>
<asrwt>0</asrwt>
<pdfrwt beam="1">  1        2 0.47314691E+00 0.18076200E+04</pdfrwt>
<pdfrwt beam="2">  1       -1 0.40863126E-01 0.18076200E+04</pdfrwt>
<totfact> 0.98571705E+00</totfact>
</mgrwt>
</event>
<event>
12    6  0.1556619E-007  0.1718348E+04  0.7818608E-02  0.8750968E-01
         -1   -1    0    0    0  501 -0.00000000000E+00  0.00000000000E+00  0.25528836528E+03  0.25528836528E+03  0.00000000000E+00 0.  1.
          2   -1    0    0  501    0  0.00000000000E+00 -0.00000000000E+00 -0.28915547970E+04  0.28915547970E+04  0.00000000000E+00 0. -1.
         24    2    1    2    0    0  0.38281239428E+03  0.48835777165E+03 -0.10953824973E+04  0.12614739134E+04  0.80093548590E+02 0.  0.
        254    2    1    2    0    0 -0.38281239428E+03 -0.48835777165E+03 -0.15408839344E+04  0.18853692488E+04  0.89177085780E+03 0.  0.
         23    2    4    4    0    0 -0.35757319275E+03  0.78258299767E+02 -0.19953092685E+03  0.42636543188E+03  0.89397657032E+02 0.  0.
         23    2    4    4    0    0 -0.25239201537E+02 -0.56661607142E+03 -0.13413530075E+04  0.14590038169E+04  0.88167212344E+02 0.  0.
          4    1    3    3  502    0  0.22672210311E+03  0.33459920269E+03 -0.65655449150E+03  0.77098854647E+03  0.00000000000E+00 0. -1.
         -3    1    3    3    0  502  0.15609029117E+03  0.15375856896E+03 -0.43882800580E+03  0.49048536696E+03  0.00000000000E+00 0.  1.
         11    1    5    5    0    0 -0.61965247775E+02  0.66997183433E+01  0.51455339709E+00  0.62328508107E+02  0.00000000000E+00 0. -1.
        -11    1    5    5    0    0 -0.29560794497E+03  0.71558581423E+02 -0.20004548025E+03  0.36403692378E+03  0.00000000000E+00 0.  1.
          3    1    6    6  503    0 -0.65851832192E+01 -0.77709258459E+00 -0.77177554584E+01  0.10175080355E+02  0.00000000000E+00 0. -1.
         -3    1    6    6    0  503 -0.18654018318E+02 -0.56583897883E+03 -0.13336352521E+04  0.14488287366E+04  0.00000000000E+00 0.  1.
<mgrwt>
<rscale>  0 0.17183484E+04</rscale>
<asrwt>0</asrwt>
<pdfrwt beam="1">  1        2 0.44485457E+00 0.17183484E+04</pdfrwt>
<pdfrwt beam="2">  1       -1 0.39275134E-01 0.17183484E+04</pdfrwt>
<totfact> 0.13907732E+01</totfact>
</mgrwt>
</event>
<event>
12    6  0.1556619E-007  0.1402774E+04  0.7818608E-02  0.8951813E-01
          2   -1    0    0  501    0  0.00000000000E+00  0.00000000000E+00  0.21218898380E+04  0.21218898380E+04  0.00000000000E+00 0. -1.
         -1   -1    0    0    0  501 -0.00000000000E+00 -0.00000000000E+00 -0.23184241781E+03  0.23184241781E+03  0.00000000000E+00 0.  1.
         24    2    1    2    0    0  0.11188341382E+03  0.31209887435E+03  0.93095604247E+03  0.99117772795E+03  0.76357905287E+02 0.  0.
        254    2    1    2    0    0 -0.11188341382E+03 -0.31209887435E+03  0.95909137772E+03  0.13625545279E+04  0.90927166729E+03 0.  0.
         23    2    4    4    0    0 -0.27275109514E+03 -0.54205886325E+03  0.84453710194E+03  0.10444234070E+04  0.96728307504E+02 0.  0.
         23    2    4    4    0    0  0.16086768133E+03  0.22995998890E+03  0.11455427577E+03  0.31813112083E+03  0.96564592653E+02 0.  0.
          4    1    3    3  502    0  0.10712393914E+03  0.28318174627E+03  0.89480963217E+03  0.94464369875E+03  0.00000000000E+00 0. -1.
         -3    1    3    3    0  502  0.47594746727E+01  0.28917128081E+02  0.36146410300E+02  0.46534029196E+02  0.00000000000E+00 0.  1.
         11    1    5    5    0    0 -0.98167340859E+02 -0.10933413296E+03  0.17852420059E+03  0.23121779698E+03  0.00000000000E+00 0. -1.
        -11    1    5    5    0    0 -0.17458375429E+03 -0.43272473028E+03  0.66601290135E+03  0.81320561005E+03  0.00000000000E+00 0.  1.
          4    1    6    6  503    0  0.12396997290E+03  0.12763838564E+03  0.11015576659E+03  0.20927112697E+03  0.00000000000E+00 0. -1.
         -4    1    6    6    0  503  0.36897708422E+02  0.10232160326E+03  0.43985091838E+01  0.10885999386E+03  0.00000000000E+00 0.  1.
<mgrwt>
<rscale>  0 0.14027745E+04</rscale>
<asrwt>0</asrwt>
<pdfrwt beam="1">  1        2 0.32644458E+00 0.14027745E+04</pdfrwt>
<pdfrwt beam="2">  1       -1 0.35668066E-01 0.14027745E+04</pdfrwt>
<totfact> 0.47545026E+01</totfact>
</mgrwt>
</event>
<event>
12    6  0.1556619E-007  0.1347285E+04  0.7818608E-02  0.8992886E-01
          2   -1    0    0  501    0  0.00000000000E+00  0.00000000000E+00  0.12124241230E+04  0.12124241230E+04  0.00000000000E+00 0. -1.
         -1   -1    0    0    0  501 -0.00000000000E+00 -0.00000000000E+00 -0.37428696107E+03  0.37428696107E+03  0.00000000000E+00 0.  1.
         24    2    1    2    0    0 -0.21455760876E+02  0.33385745346E+03  0.13367303885E+02  0.34202698238E+03  0.69875768027E+02 0.  0.
        254    2    1    2    0    0  0.21455760876E+02 -0.33385745346E+03  0.82476985804E+03  0.12446841017E+04  0.87009887102E+03 0.  0.
         23    2    4    4    0    0 -0.57910464699E+00 -0.12196590704E+03 -0.16685884400E+03  0.22629632163E+03  0.92152772725E+02 0.  0.
         23    2    4    4    0    0  0.22034865523E+02 -0.21189154641E+03  0.99162870204E+03  0.10183877801E+04  0.91665833927E+02 0.  0.
          4    1    3    3  502    0 -0.25192789989E+02  0.46197229200E+02 -0.93607385042E+01  0.53446085718E+02  0.00000000000E+00 0. -1.
         -3    1    3    3    0  502  0.37370291129E+01  0.28766022426E+03  0.22728042389E+02  0.28858089666E+03  0.00000000000E+00 0.  1.
         11    1    5    5    0    0  0.19684557759E+02 -0.48087189526E+02 -0.13252449149E+03  0.14234676131E+03  0.00000000000E+00 0.  1.
        -11    1    5    5    0    0 -0.20263662406E+02 -0.73878717518E+02 -0.34334352506E+02  0.83949560322E+02  0.00000000000E+00 0. -1.
          3    1    6    6  503    0  0.56261579736E+02 -0.11435404303E+03  0.49766022772E+03  0.51371968501E+03  0.00000000000E+00 0. -1.
         -3    1    6    6    0  503 -0.34226714213E+02 -0.97537503385E+02  0.49396847432E+03  0.50466809504E+03  0.00000000000E+00 0.  1.
<mgrwt>
<rscale>  0 0.13472855E+04</rscale>
<asrwt>0</asrwt>
<pdfrwt beam="1">  1        2 0.18652679E+00 0.13472855E+04</pdfrwt>
<pdfrwt beam="2">  1       -1 0.57582610E-01 0.13472855E+04</pdfrwt>
<totfact> 0.63348424E+01</totfact>
</mgrwt>
</event>
<event>
12    6  0.1556619E-007  0.2138988E+04  0.7818608E-02  0.8544261E-01
          2   -1    0    0  501    0  0.00000000000E+00  0.00000000000E+00  0.19545303286E+04  0.19545303286E+04  0.00000000000E+00 0. -1.
         -1   -1    0    0    0  501 -0.00000000000E+00 -0.00000000000E+00 -0.58521347712E+03  0.58521347712E+03  0.00000000000E+00 0.  1.
         24    2    1    2    0    0 -0.77695320575E+03  0.34525693587E+03  0.80760796007E+03  0.11752763848E+04  0.78646855077E+02 0.  0.
        254    2    1    2    0    0  0.77695320575E+03 -0.34525693587E+03  0.56170889144E+03  0.13644674209E+04  0.90741160912E+03 0.  0.
         23    2    4    4    0    0  0.30086829013E+03 -0.37006453872E+03 -0.14535614358E+03  0.50680429885E+03  0.90844361571E+02 0.  0.
         23    2    4    4    0    0  0.47608491562E+03  0.24807602849E+02  0.70706503501E+03  0.85766312208E+03  0.91503022891E+02 0.  0.
          4    1    3    3  502    0 -0.19377016755E+03  0.49727196469E+02  0.19039083476E+03  0.27616723532E+03  0.00000000000E+00 0. -1.
         -3    1    3    3    0  502 -0.58318303820E+03  0.29552973940E+03  0.61721712531E+03  0.89910914949E+03  0.00000000000E+00 0.  1.
         11    1    5    5    0    0  0.16250242471E+03 -0.23611626313E+03 -0.46656401248E+02  0.29040445508E+03  0.00000000000E+00 0.  1.
        -11    1    5    5    0    0  0.13836586542E+03 -0.13394827559E+03 -0.98699742332E+02  0.21639984377E+03  0.00000000000E+00 0. -1.
          3    1    6    6  503    0  0.24143864368E+03 -0.28882685301E+02  0.32093378266E+03  0.40264788714E+03  0.00000000000E+00 0. -1.
         -3    1    6    6    0  503  0.23464627195E+03  0.53690288150E+02  0.38613125236E+03  0.45501523494E+03  0.00000000000E+00 0.  1.
<mgrwt>
<rscale>  0 0.21389881E+04</rscale>
<asrwt>0</asrwt>
<pdfrwt beam="1">  1        2 0.30069697E+00 0.21389881E+04</pdfrwt>
<pdfrwt beam="2">  1       -1 0.90032844E-01 0.21389881E+04</pdfrwt>
<totfact> 0.89380921E+00</totfact>
</mgrwt>
</event>
<event>
12    6  0.1556619E-007  0.1777758E+04  0.7818608E-02  0.8718218E-01
          2   -1    0    0  501    0  0.00000000000E+00  0.00000000000E+00  0.17435746926E+04  0.17435746926E+04  0.00000000000E+00 0. -1.
         -1   -1    0    0    0  501 -0.00000000000E+00 -0.00000000000E+00 -0.45315274432E+03  0.45315274432E+03  0.00000000000E+00 0.  1.
         24    2    1    2    0    0 -0.24960495492E+03 -0.31467867257E+02  0.11725421607E+04  0.12013885917E+04  0.72017841985E+02 0.  0.
        254    2    1    2    0    0  0.24960495492E+03  0.31467867257E+02  0.11787978756E+03  0.99533884515E+03  0.95577764787E+03 0.  0.
         23    2    4    4    0    0  0.35155383967E+03 -0.20121275409E+03 -0.29066646729E+03  0.50555143647E+03  0.83776996334E+02 0.  0.
         23    2    4    4    0    0 -0.10194888475E+03  0.23268062135E+03  0.40854625485E+03  0.48978740868E+03  0.91912005178E+02 0.  0.
          2    1    3    3  502    0 -0.25211318029E+03 -0.32974420804E+02  0.11087839188E+04  0.11375632496E+04  0.00000000000E+00 0. -1.
         -1    1    3    3    0  502  0.25082253688E+01  0.15065535474E+01  0.63758241866E+02  0.63825342176E+02  0.00000000000E+00 0.  1.
         11    1    5    5    0    0  0.11492319808E+03 -0.60430304544E+02 -0.47669610493E+02  0.13831686422E+03  0.00000000000E+00 0.  1.
        -11    1    5    5    0    0  0.23663064159E+03 -0.14078244955E+03 -0.24299685680E+03  0.36723457225E+03  0.00000000000E+00 0. -1.
          3    1    6    6  503    0 -0.70815454806E+02  0.21214622119E+03  0.29450585075E+03  0.36980338550E+03  0.00000000000E+00 0. -1.
         -3    1    6    6    0  503 -0.31133429944E+02  0.20534400160E+02  0.11404040410E+03  0.11998402318E+03  0.00000000000E+00 0.  1.
<mgrwt>
<rscale>  0 0.17777578E+04</rscale>
<asrwt>0</asrwt>
<pdfrwt beam="1">  1        2 0.26824226E+00 0.17777578E+04</pdfrwt>
<pdfrwt beam="2">  1       -1 0.69715808E-01 0.17777578E+04</pdfrwt>
<totfact> 0.20786073E+01</totfact>
</mgrwt>
</event>
<event>
12    6  0.1556619E-007  0.2452431E+04  0.7818608E-02  0.8420131E-01
         -1   -1    0    0    0  501 -0.00000000000E+00  0.00000000000E+00  0.17643090948E+04  0.17643090948E+04  0.00000000000E+00 0.  1.
          2   -1    0    0  501    0  0.00000000000E+00 -0.00000000000E+00 -0.85223416123E+03  0.85223416123E+03  0.00000000000E+00 0. -1.
         24    2    1    2    0    0  0.87397257872E+03  0.52583607038E+03  0.83356843436E+02  0.10264658995E+04  0.79700929547E+02 0.  0.
        254    2    1    2    0    0 -0.87397257872E+03 -0.52583607038E+03  0.82871809014E+03  0.15900773566E+04  0.89512048665E+03 0.  0.
         23    2    4    4    0    0 -0.64560978007E+02 -0.50221699585E+03  0.48054864706E+03  0.70406088192E+03  0.91567966295E+02 0.  0.
         23    2    4    4    0    0 -0.80941160072E+03 -0.23619074522E+02  0.34816944308E+03  0.88601647463E+03  0.89990178167E+02 0.  0.
          4    1    3    3  502    0  0.38167828941E+02  0.25782721114E+02 -0.12669686171E+02  0.47770836519E+02  0.00000000000E+00 0. -1.
         -3    1    3    3    0  502  0.83580474978E+03  0.50005334926E+03  0.96026529607E+02  0.97869506296E+03  0.00000000000E+00 0.  1.
         11    1    5    5    0    0 -0.50825161772E+02 -0.12339583181E+03  0.15355238261E+03  0.20344056277E+03  0.00000000000E+00 0. -1.
        -11    1    5    5    0    0 -0.13735816235E+02 -0.37882116405E+03  0.32699626446E+03  0.50062031915E+03  0.00000000000E+00 0.  1.
          3    1    6    6  503    0 -0.12920466385E+03 -0.20517574601E+01  0.21024435593E+02  0.13092013504E+03  0.00000000000E+00 0. -1.
         -3    1    6    6    0  503 -0.68020693687E+03 -0.21567317062E+02  0.32714500748E+03  0.75509633958E+03  0.00000000000E+00 0.  1.
<mgrwt>
<rscale>  0 0.24524310E+04</rscale>
<asrwt>0</asrwt>
<pdfrwt beam="1">  1        2 0.13111295E+00 0.24524310E+04</pdfrwt>
<pdfrwt beam="2">  1       -1 0.27143217E+00 0.24524310E+04</pdfrwt>
<totfact> 0.16333041E+00</totfact>
</mgrwt>
</event>
<event>
12    6  0.1556619E-007  0.1307174E+04  0.7818608E-02  0.9023896E-01
         -3   -1    0    0    0  501 -0.00000000000E+00  0.00000000000E+00  0.21966207150E+03  0.21966207150E+03  0.00000000000E+00 0.  1.
          2   -1    0    0  501    0  0.00000000000E+00 -0.00000000000E+00 -0.19446954635E+04  0.19446954635E+04  0.00000000000E+00 0. -1.
         24    2    1    2    0    0  0.37407949164E+02 -0.15841195590E+03 -0.90113208095E+03  0.91905853965E+03  0.78331791476E+02 0.  0.
        254    2    1    2    0    0 -0.37407949164E+02  0.15841195590E+03 -0.82390131100E+03  0.12452989953E+04  0.91949035612E+03 0.  0.
         23    2    4    4    0    0  0.22307116065E+03  0.28097066114E+03 -0.37127999726E+01  0.37079613747E+03  0.93652205228E+02 0.  0.
         23    2    4    4    0    0 -0.26047910981E+03 -0.12255870524E+03 -0.82018851103E+03  0.87450285783E+03  0.95791710743E+02 0.  0.
          2    1    3    3  502    0  0.29322355299E+02 -0.96089037743E+02 -0.72748368697E+03  0.73438778482E+03  0.00000000000E+00 0. -1.
         -1    1    3    3    0  502  0.80855938656E+01 -0.62322918157E+02 -0.17364839398E+03  0.18467075483E+03  0.00000000000E+00 0.  1.
         11    1    5    5    0    0  0.15125614648E+03  0.24340922389E+03  0.17212243605E+02  0.28709359702E+03  0.00000000000E+00 0.  1.
        -11    1    5    5    0    0  0.71815014172E+02  0.37561437255E+02 -0.20925043578E+02  0.83702540450E+02  0.00000000000E+00 0. -1.
          1    1    6    6  503    0 -0.96525957972E+02 -0.81844719459E+02 -0.25611483179E+03  0.28567573528E+03  0.00000000000E+00 0. -1.
         -1    1    6    6    0  503 -0.16395315184E+03 -0.40713985782E+02 -0.56407367924E+03  0.58882712255E+03  0.00000000000E+00 0.  1.
<mgrwt>
<rscale>  0 0.13071738E+04</rscale>
<asrwt>0</asrwt>
<pdfrwt beam="1">  1        2 0.29918391E+00 0.13071738E+04</pdfrwt>
<pdfrwt beam="2">  1       -3 0.33794166E-01 0.13071738E+04</pdfrwt>
<totfact> 0.39193915E+01</totfact>
</mgrwt>
</event>
<event>
12    6  0.1556619E-007  0.1393091E+04  0.7818608E-02  0.8958835E-01
          2   -1    0    0  501    0  0.00000000000E+00  0.00000000000E+00  0.33681585994E+03  0.33681585994E+03  0.00000000000E+00 0. -1.
         -1   -1    0    0    0  501 -0.00000000000E+00 -0.00000000000E+00 -0.14404773374E+04  0.14404773374E+04  0.00000000000E+00 0.  1.
         24    2    1    2    0    0  0.29503356788E+03 -0.36135260932E+02 -0.80177131145E+03  0.85888931521E+03  0.80641531867E+02 0.  0.
        254    2    1    2    0    0 -0.29503356788E+03  0.36135260932E+02 -0.30189016598E+03  0.91840388210E+03  0.81484811780E+03 0.  0.
         23    2    4    4    0    0  0.23329772883E+03  0.42533602172E+02 -0.28518892433E+03  0.38217349219E+03  0.92124470025E+02 0.  0.
         23    2    4    4    0    0 -0.52833129671E+03 -0.63983412402E+01 -0.16701241647E+02  0.53623038991E+03  0.89939989647E+02 0.  0.
          2    1    3    3  502    0  0.10492197588E+03 -0.20427283058E+02 -0.18925098015E+03  0.21735185392E+03  0.00000000000E+00 0. -1.
         -1    1    3    3    0  502  0.19011159200E+03 -0.15707977874E+02 -0.61252033130E+03  0.64153746129E+03  0.00000000000E+00 0.  1.
         11    1    5    5    0    0  0.13094024106E+03  0.44325759560E+02 -0.22305856421E+03  0.26242187934E+03  0.00000000000E+00 0. -1.
        -11    1    5    5    0    0  0.10235748777E+03 -0.17921573882E+01 -0.62130360129E+02  0.11975161285E+03  0.00000000000E+00 0.  1.
          3    1    6    6  503    0 -0.51310956260E+03  0.98641882190E+01 -0.20596341832E+02  0.51361749847E+03  0.00000000000E+00 0. -1.
         -3    1    6    6    0  503 -0.15221734109E+02 -0.16262529459E+02  0.38951001849E+01  0.22612891437E+02  0.00000000000E+00 0.  1.
<mgrwt>
<rscale>  0 0.13930910E+04</rscale>
<asrwt>0</asrwt>
<pdfrwt beam="1">  1        2 0.51817826E-01 0.13930910E+04</pdfrwt>
<pdfrwt beam="2">  1       -1 0.22161189E+00 0.13930910E+04</pdfrwt>
<totfact> 0.11548657E+01</totfact>
</mgrwt>
</event>
<event>
12    6  0.1556619E-007  0.1976380E+04  0.7818608E-02  0.8617744E-01
          2   -1    0    0  501    0  0.00000000000E+00  0.00000000000E+00  0.97949062394E+03  0.97949062394E+03  0.00000000000E+00 0. -1.
         -1   -1    0    0    0  501 -0.00000000000E+00 -0.00000000000E+00 -0.99696619646E+03  0.99696619646E+03  0.00000000000E+00 0.  1.
         24    2    1    2    0    0  0.13474815380E+03 -0.76849075920E+03  0.79174438545E+01  0.78432929909E+03  0.79841415119E+02 0.  0.
        254    2    1    2    0    0 -0.13474815380E+03  0.76849075920E+03 -0.25393016372E+02  0.11921275213E+04  0.90099284672E+03 0.  0.
         23    2    4    4    0    0  0.33066446119E+03  0.92035102656E+02  0.62143595873E+02  0.36133555718E+03  0.94297997655E+02 0.  0.
         23    2    4    4    0    0 -0.46541261499E+03  0.67645565655E+03 -0.87536612245E+02  0.83079196412E+03  0.91386386791E+02 0.  0.
          2    1    3    3  502    0  0.18843947435E+02 -0.94737920514E+02  0.27391387342E+02  0.10040247028E+03  0.00000000000E+00 0. -1.
         -1    1    3    3    0  502  0.11590420637E+03 -0.67375283869E+03 -0.19473943487E+02  0.68392682881E+03  0.00000000000E+00 0.  1.
         11    1    5    5    0    0  0.10963596010E+03  0.67892264165E+02 -0.50717522530E+01  0.12905474013E+03  0.00000000000E+00 0. -1.
        -11    1    5    5    0    0  0.22102850109E+03  0.24142838491E+02  0.67215348126E+02  0.23228081705E+03  0.00000000000E+00 0.  1.
          1    1    6    6  503    0 -0.19549576481E+03  0.32555901895E+03 -0.11829610113E+01  0.37974816428E+03  0.00000000000E+00 0.  1.
         -1    1    6    6    0  503 -0.26991685018E+03  0.35089663759E+03 -0.86353651234E+02  0.45104379983E+03  0.00000000000E+00 0. -1.
<mgrwt>
<rscale>  0 0.19763796E+04</rscale>
<asrwt>0</asrwt>
<pdfrwt beam="1">  1        2 0.15069086E+00 0.19763796E+04</pdfrwt>
<pdfrwt beam="2">  1       -1 0.15337942E+00 0.19763796E+04</pdfrwt>
<totfact> 0.90574290E+00</totfact>
</mgrwt>
</event>
<event>
12    6  0.1556619E-007  0.1396812E+04  0.7818608E-02  0.8956130E-01
          2   -1    0    0  501    0  0.00000000000E+00  0.00000000000E+00  0.39397859840E+03  0.39397859840E+03  0.00000000000E+00 0. -1.
         -1   -1    0    0    0  501 -0.00000000000E+00 -0.00000000000E+00 -0.12380640320E+04  0.12380640320E+04  0.00000000000E+00 0.  1.
         24    2    1    2    0    0 -0.15619541995E+02  0.43060318697E+03 -0.31068796450E+03  0.53795282965E+03  0.84871437608E+02 0.  0.
        254    2    1    2    0    0  0.15619541995E+02 -0.43060318697E+03 -0.53339746908E+03  0.10940898007E+04  0.85255882924E+03 0.  0.
         23    2    4    4    0    0  0.12847594730E+03 -0.28322755550E+03  0.16656309932E+03  0.36462809558E+03  0.92122010401E+02 0.  0.
         23    2    4    4    0    0 -0.11285640531E+03 -0.14737563147E+03 -0.69996056840E+03  0.72946170515E+03  0.87826174873E+02 0.  0.
          2    1    3    3  502    0 -0.19522139310E+02  0.25920312427E+03 -0.13670883876E+03  0.29369487593E+03  0.00000000000E+00 0. -1.
         -1    1    3    3    0  502  0.39025973144E+01  0.17140006269E+03 -0.17397912574E+03  0.24425795371E+03  0.00000000000E+00 0.  1.
         11    1    5    5    0    0  0.29510095432E+02 -0.43903806194E+02 -0.62757961756E+01  0.53270775744E+02  0.00000000000E+00 0. -1.
        -11    1    5    5    0    0  0.98965851872E+02 -0.23932374930E+03  0.17283889550E+03  0.31135731983E+03  0.00000000000E+00 0.  1.
          1    1    6    6  503    0 -0.34146293702E+01 -0.48576997407E+02 -0.94519988558E+02  0.10632691384E+03  0.00000000000E+00 0. -1.
         -1    1    6    6    0  503 -0.10944177594E+03 -0.98798634063E+02 -0.60544057984E+03  0.62313479130E+03  0.00000000000E+00 0.  1.
<mgrwt>
<rscale>  0 0.13968117E+04</rscale>
<asrwt>0</asrwt>
<pdfrwt beam="1">  1        2 0.60612092E-01 0.13968117E+04</pdfrwt>
<pdfrwt beam="2">  1       -1 0.19047139E+00 0.13968117E+04</pdfrwt>
<totfact> 0.15800770E+01</totfact>
</mgrwt>
</event>
<event>
12    6  0.1556619E-007  0.2537732E+04  0.7818608E-02  0.8389665E-01
         -1   -1    0    0    0  501 -0.00000000000E+00  0.00000000000E+00  0.15089258437E+04  0.15089258437E+04  0.00000000000E+00 0.  1.
          2   -1    0    0  501    0  0.00000000000E+00 -0.00000000000E+00 -0.10669978256E+04  0.10669978256E+04  0.00000000000E+00 0. -1.
         24    2    1    2    0    0  0.94346392470E+02  0.41762874771E+03  0.12313948477E+04  0.13061088521E+04  0.79196274532E+02 0.  0.
        254    2    1    2    0    0 -0.94346392470E+02 -0.41762874771E+03 -0.78946682957E+03  0.12698148172E+04  0.89769526131E+03 0.  0.
         23    2    4    4    0    0  0.37100066965E+03 -0.27489737247E+03 -0.53552636725E+03  0.71296002864E+03  0.91178123213E+02 0.  0.
         23    2    4    4    0    0 -0.46534706212E+03 -0.14273137524E+03 -0.25394046232E+03  0.55685478851E+03  0.93173834205E+02 0.  0.
          4    1    3    3  502    0  0.50145030027E+02  0.24667629393E+03  0.83607393963E+03  0.87314566400E+03  0.00000000000E+00 0. -1.
         -3    1    3    3    0  502  0.44201362443E+02  0.17095245378E+03  0.39532090806E+03  0.43296318809E+03  0.00000000000E+00 0.  1.
         11    1    5    5    0    0 -0.15995583308E+01  0.14820525875E+01  0.19756338264E+01  0.29424812219E+01  0.00000000000E+00 0. -1.
        -11    1    5    5    0    0  0.37260022798E+03 -0.27637942506E+03 -0.53750200108E+03  0.71001754742E+03  0.00000000000E+00 0.  1.
          3    1    6    6  503    0 -0.12945942014E+03 -0.80305358516E+02 -0.57977674895E+02  0.16300338295E+03  0.00000000000E+00 0. -1.
         -3    1    6    6    0  503 -0.33588764198E+03 -0.62426016721E+02 -0.19596278743E+03  0.39385140555E+03  0.00000000000E+00 0.  1.
<mgrwt>
<rscale>  0 0.25377317E+04</rscale>
<asrwt>0</asrwt>
<pdfrwt beam="1">  1        2 0.16415351E+00 0.25377317E+04</pdfrwt>
<pdfrwt beam="2">  1       -1 0.23214244E+00 0.25377317E+04</pdfrwt>
<totfact> 0.21147045E+00</totfact>
</mgrwt>
</event>
<event>
12    6  0.1556619E-007  0.1413581E+04  0.7818608E-02  0.8944046E-01
          2   -1    0    0  501    0  0.00000000000E+00  0.00000000000E+00  0.44773378541E+04  0.44773378541E+04  0.00000000000E+00 0. -1.
         -1   -1    0    0    0  501 -0.00000000000E+00 -0.00000000000E+00 -0.11157367838E+03  0.11157367838E+03  0.00000000000E+00 0.  1.
         24    2    1    2    0    0 -0.20136362665E+02  0.31240623672E+03  0.41995438776E+03  0.53001898469E+03  0.80964847234E+02 0.  0.
        254    2    1    2    0    0  0.20136362665E+02 -0.31240623672E+03  0.39458097880E+04  0.40588925478E+04  0.89843792325E+03 0.  0.
         23    2    4    4    0    0  0.41645114404E+02  0.78950971944E+02  0.32684464863E+04  0.32709782705E+04  0.92675998677E+02 0.  0.
         23    2    4    4    0    0 -0.21508751739E+02 -0.39135720867E+03  0.67736330171E+03  0.78791427734E+03  0.91459142616E+02 0.  0.
          4    1    3    3  502    0 -0.20259147645E+02  0.32716059765E+02  0.24377397442E+02  0.45552509656E+02  0.00000000000E+00 0. -1.
         -1    1    3    3    0  502  0.12278498036E+00  0.27969017696E+03  0.39557699032E+03  0.48446647504E+03  0.00000000000E+00 0.  1.
         11    1    5    5    0    0 -0.22786751986E+02 -0.28822843734E+01  0.81180095854E+03  0.81212581533E+03  0.00000000000E+00 0. -1.
        -11    1    5    5    0    0  0.64431866389E+02  0.81833256317E+02  0.24566455277E+04  0.24588524551E+04  0.00000000000E+00 0.  1.
          2    1    6    6  503    0 -0.59992905271E+01 -0.24886503791E+03  0.34022552794E+03  0.42157230512E+03  0.00000000000E+00 0.  1.
         -2    1    6    6    0  503 -0.15509461211E+02 -0.14249217075E+03  0.33713777377E+03  0.36634197222E+03  0.00000000000E+00 0. -1.
<mgrwt>
<rscale>  0 0.14135813E+04</rscale>
<asrwt>0</asrwt>
<pdfrwt beam="1">  1        2 0.68882107E+00 0.14135813E+04</pdfrwt>
<pdfrwt beam="2">  1       -1 0.17165185E-01 0.14135813E+04</pdfrwt>
<totfact> 0.39375653E+00</totfact>
</mgrwt>
</event>
<event>
12    6  0.1556619E-007  0.1361705E+04  0.7818608E-02  0.8982015E-01
          2   -1    0    0  501    0  0.00000000000E+00  0.00000000000E+00  0.65482918815E+03  0.65482918815E+03  0.00000000000E+00 0. -1.
         -1   -1    0    0    0  501 -0.00000000000E+00 -0.00000000000E+00 -0.70791006568E+03  0.70791006568E+03  0.00000000000E+00 0.  1.
         24    2    1    2    0    0 -0.20291780260E+03 -0.31650754657E+03  0.35910457066E+02  0.38612597433E+03  0.80318400631E+02 0.  0.
        254    2    1    2    0    0  0.20291780260E+03  0.31650754657E+03 -0.88991334602E+02  0.97661327950E+03  0.89694000825E+03 0.  0.
         23    2    4    4    0    0 -0.23940170448E+03 -0.55573838917E+02 -0.25668272759E+03  0.36775740209E+03  0.94645953266E+02 0.  0.
         23    2    4    4    0    0  0.44231950708E+03  0.37208138549E+03  0.16769139299E+03  0.60885587741E+03  0.92162749544E+02 0.  0.
          2    1    3    3  502    0 -0.14514741471E+03 -0.25260205301E+03  0.58314926897E+02  0.29711310957E+03  0.00000000000E+00 0. -1.
         -1    1    3    3    0  502 -0.57770387891E+02 -0.63905493560E+02 -0.22404469831E+02  0.89012864759E+02  0.00000000000E+00 0.  1.
         11    1    5    5    0    0 -0.16177861746E+03 -0.71507851738E+02 -0.21438743004E+03  0.27793463995E+03  0.00000000000E+00 0.  1.
        -11    1    5    5    0    0 -0.77623087018E+02  0.15934012821E+02 -0.42295297552E+02  0.89822762137E+02  0.00000000000E+00 0. -1.
          3    1    6    6  503    0  0.14295282437E+02 -0.47164616860E+01  0.38209696268E+01  0.15530612341E+02  0.00000000000E+00 0. -1.
         -3    1    6    6    0  503  0.42802422464E+03  0.37679784717E+03  0.16387042336E+03  0.59332526507E+03  0.00000000000E+00 0.  1.
<mgrwt>
<rscale>  0 0.13617051E+04</rscale>
<asrwt>0</asrwt>
<pdfrwt beam="1">  1        2 0.10074295E+00 0.13617051E+04</pdfrwt>
<pdfrwt beam="2">  1       -1 0.10890924E+00 0.13617051E+04</pdfrwt>
<totfact> 0.38832689E+01</totfact>
</mgrwt>
</event>
<event>
12    6  0.1556619E-007  0.1596206E+04  0.7818608E-02  0.8822882E-01
          2   -1    0    0  501    0  0.00000000000E+00  0.00000000000E+00  0.11848235806E+04  0.11848235806E+04  0.00000000000E+00 0. -1.
         -1   -1    0    0    0  501 -0.00000000000E+00 -0.00000000000E+00 -0.53760604269E+03  0.53760604269E+03  0.00000000000E+00 0.  1.
         24    2    1    2    0    0 -0.26086349896E+03  0.45010545675E+03  0.38809936493E+03  0.65393752621E+03  0.79802780900E+02 0.  0.
        254    2    1    2    0    0  0.26086349896E+03 -0.45010545675E+03  0.25911817303E+03  0.10684920971E+04  0.89659826385E+03 0.  0.
         23    2    4    4    0    0  0.46577609331E+03 -0.88015943644E+02  0.39306275305E+03  0.62211541174E+03  0.88516000014E+02 0.  0.
         23    2    4    4    0    0 -0.20491259435E+03 -0.36208951311E+03 -0.13394458002E+03  0.44637668539E+03  0.90625647120E+02 0.  0.
          4    1    3    3  502    0 -0.49510627987E+02  0.66047864564E+02  0.98640029253E+02  0.12862145260E+03  0.00000000000E+00 0. -1.
         -3    1    3    3    0  502 -0.21135287098E+03  0.38405759219E+03  0.28945933567E+03  0.52531607361E+03  0.00000000000E+00 0.  1.
         11    1    5    5    0    0  0.41256029986E+03 -0.91182510083E+02  0.31255611175E+03  0.52555834516E+03  0.00000000000E+00 0.  1.
        -11    1    5    5    0    0  0.53215793446E+02  0.31665664390E+01  0.80506641295E+02  0.96557066585E+02  0.00000000000E+00 0. -1.
          3    1    6    6  503    0 -0.12368018511E+02 -0.47979972856E+02  0.10495908313E+02  0.50647899941E+02  0.00000000000E+00 0. -1.
         -3    1    6    6    0  503 -0.19254457584E+03 -0.31410954025E+03 -0.14444048833E+03  0.39572878545E+03  0.00000000000E+00 0.  1.
<mgrwt>
<rscale>  0 0.15962059E+04</rscale>
<asrwt>0</asrwt>
<pdfrwt beam="1">  1        2 0.18228055E+00 0.15962059E+04</pdfrwt>
<pdfrwt beam="2">  1       -1 0.82708622E-01 0.15962059E+04</pdfrwt>
<totfact> 0.30732611E+01</totfact>
</mgrwt>
</event>
<event>
12    6  0.1556619E-007  0.2736339E+04  0.7818608E-02  0.8323310E-01
         -1   -1    0    0    0  501 -0.00000000000E+00  0.00000000000E+00  0.95428112572E+03  0.95428112572E+03  0.00000000000E+00 0.  1.
          2   -1    0    0  501    0  0.00000000000E+00 -0.00000000000E+00 -0.19615689640E+04  0.19615689640E+04  0.00000000000E+00 0. -1.
         24    2    1    2    0    0  0.46748705868E+03 -0.21664847415E+03  0.73047150926E+03  0.89737001456E+03  0.78762972381E+02 0.  0.
        254    2    1    2    0    0 -0.46748705868E+03  0.21664847415E+03 -0.17377593475E+04  0.20184800751E+04  0.88824183219E+03 0.  0.
         23    2    4    4    0    0 -0.48544715466E+03  0.31813621761E+03 -0.49598916537E+03  0.76898913381E+03  0.92029575847E+02 0.  0.
         23    2    4    4    0    0  0.17960095979E+02 -0.10148774346E+03 -0.12417701821E+04  0.12494909413E+04  0.92801401265E+02 0.  0.
          2    1    3    3  502    0  0.36921251439E+02  0.35744557836E+01  0.42299005340E+02  0.56259767106E+02  0.00000000000E+00 0. -1.
         -1    1    3    3    0  502  0.43056580724E+03 -0.22022292994E+03  0.68817250392E+03  0.84111024746E+03  0.00000000000E+00 0.  1.
         11    1    5    5    0    0 -0.32613947718E+03  0.20659180064E+03 -0.27148546712E+03  0.47196555969E+03  0.00000000000E+00 0.  1.
        -11    1    5    5    0    0 -0.15930767748E+03  0.11154441697E+03 -0.22450369824E+03  0.29702357412E+03  0.00000000000E+00 0. -1.
          3    1    6    6  503    0  0.12971243097E+02 -0.10920318229E+03 -0.78894242240E+03  0.79656998062E+03  0.00000000000E+00 0. -1.
         -3    1    6    6    0  503  0.49888528817E+01  0.77154388304E+01 -0.45282775973E+03  0.45292096068E+03  0.00000000000E+00 0.  1.
<mgrwt>
<rscale>  0 0.27363393E+04</rscale>
<asrwt>0</asrwt>
<pdfrwt beam="1">  1        2 0.30177984E+00 0.27363393E+04</pdfrwt>
<pdfrwt beam="2">  1       -1 0.14681248E+00 0.27363393E+04</pdfrwt>
<totfact> 0.25816698E+00</totfact>
</mgrwt>
</event>
<event>
12    6  0.1556619E-007  0.1253715E+04  0.7818608E-02  0.9067097E-01
          2   -1    0    0  501    0  0.00000000000E+00  0.00000000000E+00  0.17840642664E+04  0.17840642664E+04  0.00000000000E+00 0. -1.
         -1   -1    0    0    0  501 -0.00000000000E+00 -0.00000000000E+00 -0.22025566632E+03  0.22025566632E+03  0.00000000000E+00 0.  1.
         24    2    1    2    0    0 -0.16112722100E+03  0.39172552055E+02 -0.63586388513E+01  0.18465691948E+03  0.81001700258E+02 0.  0.
        254    2    1    2    0    0  0.16112722100E+03 -0.39172552055E+02  0.15701672389E+04  0.18196630132E+04  0.90457274630E+03 0.  0.
         23    2    4    4    0    0  0.68762667597E+02 -0.27985478676E+03  0.15103205767E+04  0.15401467947E+04  0.89089273478E+02 0.  0.
         23    2    4    4    0    0  0.92364553398E+02  0.24068223470E+03  0.59846662210E+02  0.27951621853E+03  0.89936336487E+02 0.  0.
          4    1    3    3  502    0  0.81466303984E+01  0.73809695494E+01  0.49428577202E+01  0.12053138213E+02  0.00000000000E+00 0. -1.
         -3    1    3    3    0  502 -0.16927385139E+03  0.31791582505E+02 -0.11301496572E+02  0.17260378127E+03  0.00000000000E+00 0.  1.
         11    1    5    5    0    0  0.31496678471E+02 -0.24856350393E+03  0.13289197465E+04  0.13523326325E+04  0.00000000000E+00 0.  1.
        -11    1    5    5    0    0  0.37265989126E+02 -0.31291282827E+02  0.18140083022E+03  0.18781416222E+03  0.00000000000E+00 0. -1.
          4    1    6    6  503    0  0.18575076908E+02  0.10766877638E+03  0.65341142909E+02  0.12730696700E+03  0.00000000000E+00 0. -1.
         -4    1    6    6    0  503  0.73789476491E+02  0.13301345832E+03 -0.54944806990E+01  0.15220925154E+03  0.00000000000E+00 0.  1.
<mgrwt>
<rscale>  0 0.12537149E+04</rscale>
<asrwt>0</asrwt>
<pdfrwt beam="1">  1        2 0.27447142E+00 0.12537149E+04</pdfrwt>
<pdfrwt beam="2">  1       -1 0.33885488E-01 0.12537149E+04</pdfrwt>
<totfact> 0.81123773E+01</totfact>
</mgrwt>
</event>
<event>
12    6  0.1556619E-007  0.1309768E+04  0.7818608E-02  0.9021855E-01
          2   -1    0    0  501    0  0.00000000000E+00  0.00000000000E+00  0.80838515809E+03  0.80838515809E+03  0.00000000000E+00 0. -1.
         -1   -1    0    0    0  501 -0.00000000000E+00 -0.00000000000E+00 -0.53053078176E+03  0.53053078176E+03  0.00000000000E+00 0.  1.
         24    2    1    2    0    0  0.51325585510E+02 -0.26251509530E+03 -0.13526577645E+03  0.30960413136E+03  0.77520299833E+02 0.  0.
        254    2    1    2    0    0 -0.51325585510E+02  0.26251509530E+03  0.41312015277E+03  0.10293118085E+04  0.90402768071E+03 0.  0.
         23    2    4    4    0    0  0.28793543788E+03  0.28111737787E+02 -0.13935982474E+03  0.33386225890E+03  0.91355136569E+02 0.  0.
         23    2    4    4    0    0 -0.33926102339E+03  0.23440335751E+03  0.55247997751E+03  0.69544954960E+03  0.91503958816E+02 0.  0.
          2    1    3    3  502    0  0.43987706172E+02 -0.90056813254E+02 -0.20446132456E+02  0.10228974651E+03  0.00000000000E+00 0. -1.
         -1    1    3    3    0  502  0.73378793379E+01 -0.17245828205E+03 -0.11481964399E+03  0.20731438485E+03  0.00000000000E+00 0.  1.
         11    1    5    5    0    0  0.16058644538E+03 -0.30028374052E+02 -0.73008549424E+02  0.17894121375E+03  0.00000000000E+00 0. -1.
        -11    1    5    5    0    0  0.12734899250E+03  0.58140111838E+02 -0.66351275314E+02  0.15492104515E+03  0.00000000000E+00 0.  1.
          1    1    6    6  503    0 -0.85021466905E+01  0.16857238595E+02  0.63790238573E+02  0.66525540424E+02  0.00000000000E+00 0. -1.
         -1    1    6    6    0  503 -0.33075887670E+03  0.21754611892E+03  0.48868973894E+03  0.62892400917E+03  0.00000000000E+00 0.  1.
<mgrwt>
<rscale>  0 0.13097682E+04</rscale>
<asrwt>0</asrwt>
<pdfrwt beam="1">  1        2 0.12436695E+00 0.13097682E+04</pdfrwt>
<pdfrwt beam="2">  1       -1 0.81620120E-01 0.13097682E+04</pdfrwt>
<totfact> 0.56791956E+01</totfact>
</mgrwt>
</event>
<event>
12    6  0.1556619E-007  0.1550322E+04  0.7818608E-02  0.8851662E-01
          2   -1    0    0  501    0  0.00000000000E+00  0.00000000000E+00  0.97953755095E+03  0.97953755095E+03  0.00000000000E+00 0. -1.
         -1   -1    0    0    0  501 -0.00000000000E+00 -0.00000000000E+00 -0.61342647295E+03  0.61342647295E+03  0.00000000000E+00 0.  1.
         24    2    1    2    0    0 -0.28721039124E+03 -0.26975231685E+03 -0.21286539086E+03  0.45442134034E+03  0.77012717432E+02 0.  0.
        254    2    1    2    0    0  0.28721039124E+03  0.26975231685E+03  0.57897646887E+03  0.11385426836E+04  0.89766896432E+03 0.  0.
         23    2    4    4    0    0 -0.23656528877E+03 -0.15024298033E+03  0.11181099603E+03  0.31558506711E+03  0.92499441966E+02 0.  0.
         23    2    4    4    0    0  0.52377568000E+03  0.41999529718E+03  0.46716547284E+03  0.82295761645E+03  0.90987069665E+02 0.  0.
          2    1    3    3  502    0 -0.18422853514E+02 -0.43036473305E+02 -0.44376128436E+02  0.64504111041E+02  0.00000000000E+00 0. -1.
         -1    1    3    3    0  502 -0.26878753772E+03 -0.22671584354E+03 -0.16848926243E+03  0.38991722930E+03  0.00000000000E+00 0.  1.
         11    1    5    5    0    0 -0.16398665026E+03 -0.13493902869E+03  0.47965859975E+02  0.21771744683E+03  0.00000000000E+00 0.  1.
        -11    1    5    5    0    0 -0.72578638505E+02 -0.15303951633E+02  0.63845136053E+02  0.97867620286E+02  0.00000000000E+00 0. -1.
          4    1    6    6  503    0  0.18499015795E+03  0.10305862186E+03  0.11887589352E+03  0.24284545732E+03  0.00000000000E+00 0. -1.
         -4    1    6    6    0  503  0.33878552205E+03  0.31693667532E+03  0.34828957932E+03  0.58011215913E+03  0.00000000000E+00 0.  1.
<mgrwt>
<rscale>  0 0.15503216E+04</rscale>
<asrwt>0</asrwt>
<pdfrwt beam="1">  1        2 0.15069808E+00 0.15503216E+04</pdfrwt>
<pdfrwt beam="2">  1       -1 0.94373303E-01 0.15503216E+04</pdfrwt>
<totfact> 0.31002906E+01</totfact>
</mgrwt>
</event>
<event>
12    6  0.1556619E-007  0.1820918E+04  0.7818608E-02  0.8695254E-01
          2   -1    0    0  501    0  0.00000000000E+00  0.00000000000E+00  0.78623860191E+03  0.78623860191E+03  0.00000000000E+00 0. -1.
         -1   -1    0    0    0  501 -0.00000000000E+00 -0.00000000000E+00 -0.10543058795E+04  0.10543058795E+04  0.00000000000E+00 0.  1.
         24    2    1    2    0    0  0.61707242284E+03  0.18354810137E+03  0.13627648381E+03  0.66274017197E+03  0.78644611753E+02 0.  0.
        254    2    1    2    0    0 -0.61707242284E+03 -0.18354810137E+03 -0.40434376141E+03  0.11778043094E+04  0.89958925817E+03 0.  0.
         23    2    4    4    0    0 -0.49872332773E+03 -0.24911204668E+03 -0.66367647552E+03  0.87171298542E+03  0.92926289991E+02 0.  0.
         23    2    4    4    0    0 -0.11834909511E+03  0.65563945309E+02  0.25933271411E+03  0.30609132403E+03  0.90184825750E+02 0.  0.
          2    1    3    3  502    0  0.60845958465E+03  0.18999809606E+03  0.13687209820E+03  0.65196342990E+03  0.00000000000E+00 0. -1.
         -3    1    3    3    0  502  0.86128381908E+01 -0.64499946910E+01 -0.59561438790E+00  0.10776742073E+02  0.00000000000E+00 0.  1.
         11    1    5    5    0    0 -0.10890861773E+03 -0.82082155256E+02 -0.11602646096E+03  0.17905503866E+03  0.00000000000E+00 0. -1.
        -11    1    5    5    0    0 -0.38981471000E+03 -0.16702989142E+03 -0.54765001456E+03  0.69265794676E+03  0.00000000000E+00 0.  1.
          2    1    6    6  503    0 -0.29442872488E+01  0.39285563284E+02  0.10098634079E+03  0.10839864084E+03  0.00000000000E+00 0. -1.
         -2    1    6    6    0  503 -0.11540480786E+03  0.26278382025E+02  0.15834637332E+03  0.19769268318E+03  0.00000000000E+00 0.  1.
<mgrwt>
<rscale>  0 0.18209184E+04</rscale>
<asrwt>0</asrwt>
<pdfrwt beam="1">  1        2 0.12095979E+00 0.18209184E+04</pdfrwt>
<pdfrwt beam="2">  1       -1 0.16220090E+00 0.18209184E+04</pdfrwt>
<totfact> 0.10666439E+01</totfact>
</mgrwt>
</event>
<event>
12    6  0.1556619E-007  0.1883603E+04  0.7818608E-02  0.8663062E-01
          2   -1    0    0  501    0  0.00000000000E+00  0.00000000000E+00  0.19695865453E+04  0.19695865453E+04  0.00000000000E+00 0. -1.
         -1   -1    0    0    0  501 -0.00000000000E+00 -0.00000000000E+00 -0.45034328488E+03  0.45034328488E+03  0.00000000000E+00 0.  1.
         24    2    1    2    0    0 -0.55368972356E+03 -0.35091356352E+03  0.68503776246E+03  0.95217868923E+03  0.87492177855E+02 0.  0.
        254    2    1    2    0    0  0.55368972356E+03  0.35091356352E+03  0.83420549800E+03  0.14677511410E+04  0.10142395969E+04 0.  0.
         23    2    4    4    0    0  0.50857235153E+03  0.61881285927E+03  0.86200012259E+03  0.11797059844E+04  0.84183173679E+02 0.  0.
         23    2    4    4    0    0  0.45117372035E+02 -0.26789929575E+03 -0.27794624591E+02  0.28804515660E+03  0.91607102132E+02 0.  0.
          4    1    3    3  502    0 -0.41494393026E+03 -0.27027944999E+03  0.56798602251E+03  0.75354997719E+03  0.00000000000E+00 0. -1.
         -3    1    3    3    0  502 -0.13874579330E+03 -0.80634113526E+02  0.11705173995E+03  0.19862871205E+03  0.00000000000E+00 0.  1.
         11    1    5    5    0    0  0.10723990306E+03  0.14805191381E+03  0.14973901862E+03  0.23630814563E+03  0.00000000000E+00 0. -1.
        -11    1    5    5    0    0  0.40133244847E+03  0.47076094546E+03  0.71226110397E+03  0.94339783877E+03  0.00000000000E+00 0.  1.
          1    1    6    6  503    0  0.43083253002E+02 -0.40055254222E+02 -0.42929448294E+01  0.58983213335E+02  0.00000000000E+00 0. -1.
         -1    1    6    6    0  503  0.20341190333E+01 -0.22784404153E+03 -0.23501679761E+02  0.22906194327E+03  0.00000000000E+00 0.  1.
<mgrwt>
<rscale>  0 0.18836030E+04</rscale>
<asrwt>0</asrwt>
<pdfrwt beam="1">  1        2 0.30301331E+00 0.18836030E+04</pdfrwt>
<pdfrwt beam="2">  1       -1 0.69283583E-01 0.18836030E+04</pdfrwt>
<totfact> 0.15632195E+01</totfact>
</mgrwt>
</event>
<event>
12    6  0.1556619E-007  0.1056950E+04  0.7818608E-02  0.9248198E-01
          2   -1    0    0  501    0  0.00000000000E+00  0.00000000000E+00  0.27569278307E+03  0.27569278307E+03  0.00000000000E+00 0. -1.
         -1   -1    0    0    0  501 -0.00000000000E+00 -0.00000000000E+00 -0.10130324697E+04  0.10130324697E+04  0.00000000000E+00 0.  1.
         24    2    1    2    0    0 -0.11842177663E+03  0.30479636124E+02 -0.14205425243E+03  0.20367753623E+03  0.79701961900E+02 0.  0.
        254    2    1    2    0    0  0.11842177663E+03 -0.30479636124E+02 -0.59528543421E+03  0.10850477166E+04  0.89889436177E+03 0.  0.
         23    2    4    4    0    0  0.35060949478E+03 -0.85919396775E+02  0.64707383301E+02  0.37757157412E+03  0.89800264778E+02 0.  0.
         23    2    4    4    0    0 -0.23218771815E+03  0.55439760651E+02 -0.65999281751E+03  0.70747614244E+03  0.89147458925E+02 0.  0.
          4    1    3    3  502    0 -0.10146042290E+01  0.27707160444E+02 -0.19225636991E+02  0.33739313558E+02  0.00000000000E+00 0. -1.
         -3    1    3    3    0  502 -0.11740717240E+03  0.27724756796E+01 -0.12282861544E+03  0.16993822267E+03  0.00000000000E+00 0.  1.
         11    1    5    5    0    0  0.29535329150E+03 -0.55677148687E+02  0.21778346073E+02  0.30134333914E+03  0.00000000000E+00 0.  1.
        -11    1    5    5    0    0  0.55256203282E+02 -0.30242248088E+02  0.42929037228E+02  0.76228234978E+02  0.00000000000E+00 0. -1.
          2    1    6    6  503    0 -0.23217955243E+03  0.35795203572E+02 -0.61690141152E+03  0.66011816571E+03  0.00000000000E+00 0.  1.
         -2    1    6    6    0  503 -0.81657208061E-02  0.19644557080E+02 -0.43091405991E+02  0.47357976729E+02  0.00000000000E+00 0. -1.
<mgrwt>
<rscale>  0 0.10569498E+04</rscale>
<asrwt>0</asrwt>
<pdfrwt beam="1">  1        2 0.42414274E-01 0.10569498E+04</pdfrwt>
<pdfrwt beam="2">  1       -1 0.15585115E+00 0.10569498E+04</pdfrwt>
<totfact> 0.43284402E+01</totfact>
</mgrwt>
</event>
<event>
12    6  0.1556619E-007  0.2104690E+04  0.7818608E-02  0.8559180E-01
         -1   -1    0    0    0  501 -0.00000000000E+00  0.00000000000E+00  0.70132698761E+03  0.70132698761E+03  0.00000000000E+00 0.  1.
          2   -1    0    0  501    0  0.00000000000E+00 -0.00000000000E+00 -0.15790494231E+04  0.15790494231E+04  0.00000000000E+00 0. -1.
         24    2    1    2    0    0  0.33424570124E+03  0.26694876654E+03  0.44668690170E+03  0.62419131622E+03  0.84283915070E+02 0.  0.
        254    2    1    2    0    0 -0.33424570124E+03 -0.26694876654E+03 -0.13244093372E+04  0.16561850945E+04  0.89772331040E+03 0.  0.
         23    2    4    4    0    0  0.16772791551E+03 -0.41902714248E+03 -0.63958435707E+03  0.78878239261E+03  0.96918075239E+02 0.  0.
         23    2    4    4    0    0 -0.50197361674E+03  0.15207837594E+03 -0.68482498016E+03  0.86740270192E+03  0.91087043551E+02 0.  0.
          2    1    3    3  502    0  0.12875485017E+03  0.15438743910E+03  0.18924382946E+03  0.27609150618E+03  0.00000000000E+00 0. -1.
         -1    1    3    3    0  502  0.20549085106E+03  0.11256132744E+03  0.25744307224E+03  0.34809981004E+03  0.00000000000E+00 0.  1.
         11    1    5    5    0    0  0.17625853408E+02 -0.30827797952E+02 -0.10772993119E+03  0.11343175001E+03  0.00000000000E+00 0.  1.
        -11    1    5    5    0    0  0.15010206210E+03 -0.38819934453E+03 -0.53185442588E+03  0.67535064260E+03  0.00000000000E+00 0. -1.
          1    1    6    6  503    0 -0.47856002354E+03  0.12834483100E+03 -0.66248219458E+03  0.82726945423E+03  0.00000000000E+00 0. -1.
         -1    1    6    6    0  503 -0.23413593200E+02  0.23733544937E+02 -0.22342785588E+02  0.40133247684E+02  0.00000000000E+00 0.  1.
<mgrwt>
<rscale>  0 0.21046900E+04</rscale>
<asrwt>0</asrwt>
<pdfrwt beam="1">  1        2 0.24293068E+00 0.21046900E+04</pdfrwt>
<pdfrwt beam="2">  1       -1 0.10789646E+00 0.21046900E+04</pdfrwt>
<totfact> 0.96035960E+00</totfact>
</mgrwt>
</event>
<event>
12    6  0.1556619E-007  0.2970869E+04  0.7818608E-02  0.8252099E-01
         -1   -1    0    0    0  501 -0.00000000000E+00  0.00000000000E+00  0.15395002118E+04  0.15395002118E+04  0.00000000000E+00 0.  1.
          2   -1    0    0  501    0  0.00000000000E+00 -0.00000000000E+00 -0.14332679848E+04  0.14332679848E+04  0.00000000000E+00 0. -1.
         24    2    1    2    0    0 -0.50557009480E+03  0.12469518584E+04  0.15159332028E+03  0.13564661525E+04  0.80807365225E+02 0.  0.
        254    2    1    2    0    0  0.50557009480E+03 -0.12469518584E+04 -0.45361093294E+02  0.16163020441E+04  0.89436268433E+03 0.  0.
         23    2    4    4    0    0  0.42672119086E+02 -0.43743610071E+03 -0.41417339869E+03  0.61029350150E+03  0.88018758390E+02 0.  0.
         23    2    4    4    0    0  0.46289797571E+03 -0.80951575768E+03  0.36881230540E+03  0.10060085426E+04  0.80251936796E+02 0.  0.
          2    1    3    3  502    0 -0.43369419758E+03  0.11304311455E+04  0.12762893523E+03  0.12174786966E+04  0.00000000000E+00 0. -1.
         -1    1    3    3    0  502 -0.71875897218E+02  0.11652071291E+03  0.23964385048E+02  0.13898745587E+03  0.00000000000E+00 0.  1.
         11    1    5    5    0    0 -0.10542865296E+02 -0.97768759131E+02 -0.13717417617E+03  0.16877984737E+03  0.00000000000E+00 0. -1.
        -11    1    5    5    0    0  0.53214984382E+02 -0.33966734158E+03 -0.27699922253E+03  0.44151365413E+03  0.00000000000E+00 0.  1.
          3    1    6    6  503    0  0.28808042244E+03 -0.47568671121E+03  0.18003206065E+03  0.58453376282E+03  0.00000000000E+00 0. -1.
         -3    1    6    6    0  503  0.17481755327E+03 -0.33382904647E+03  0.18878024475E+03  0.42147477980E+03  0.00000000000E+00 0.  1.
<mgrwt>
<rscale>  0 0.29708695E+04</rscale>
<asrwt>0</asrwt>
<pdfrwt beam="1">  1        2 0.22050277E+00 0.29708695E+04</pdfrwt>
<pdfrwt beam="2">  1       -1 0.23684619E+00 0.29708695E+04</pdfrwt>
<totfact> 0.11510328E+00</totfact>
</mgrwt>
</event>
<event>
12    6  0.1556619E-007  0.1374738E+04  0.7818608E-02  0.8972310E-01
         -1   -1    0    0    0  501 -0.00000000000E+00  0.00000000000E+00  0.18388255491E+03  0.18388255491E+03  0.00000000000E+00 0.  1.
          2   -1    0    0  501    0  0.00000000000E+00 -0.00000000000E+00 -0.25694464585E+04  0.25694464585E+04  0.00000000000E+00 0. -1.
         24    2    1    2    0    0 -0.71163501292E+02 -0.29788968075E+03 -0.11853637597E+04  0.12269477690E+04  0.80691257890E+02 0.  0.
        254    2    1    2    0    0  0.71163501292E+02  0.29788968075E+03 -0.12002001439E+04  0.15263812445E+04  0.89193991514E+03 0.  0.
         23    2    4    4    0    0 -0.14531734376E+02  0.12244567882E+03  0.11417829422E+03  0.19441622022E+03  0.97759236122E+02 0.  0.
         23    2    4    4    0    0  0.85695235668E+02  0.17544400193E+03 -0.13143784381E+04  0.13319650242E+04  0.91738083552E+02 0.  0.
          2    1    3    3  502    0 -0.60026532976E+02 -0.29843647176E+03 -0.11196459499E+04  0.11602907246E+04  0.00000000000E+00 0. -1.
         -1    1    3    3    0  502 -0.11136968316E+02  0.54679100525E+00 -0.65717809786E+02  0.66657044389E+02  0.00000000000E+00 0.  1.
         11    1    5    5    0    0 -0.48268907815E+02  0.51474015445E+02  0.85278560997E+02  0.11068827713E+03  0.00000000000E+00 0.  1.
        -11    1    5    5    0    0  0.33737173439E+02  0.70971663378E+02  0.28899733227E+02  0.83727943094E+02  0.00000000000E+00 0. -1.
          2    1    6    6  503    0 -0.10516867995E+01 -0.62406973361E+01 -0.81843996695E+01  0.10345856481E+02  0.00000000000E+00 0. -1.
         -2    1    6    6    0  503  0.86746922467E+02  0.18168469926E+03 -0.13061940384E+04  0.13216191678E+04  0.00000000000E+00 0.  1.
<mgrwt>
<rscale>  0 0.13747383E+04</rscale>
<asrwt>0</asrwt>
<pdfrwt beam="1">  1        2 0.39529943E+00 0.13747383E+04</pdfrwt>
<pdfrwt beam="2">  1       -1 0.28289626E-01 0.13747383E+04</pdfrwt>
<totfact> 0.40011061E+01</totfact>
</mgrwt>
</event>
<event>
12    6  0.1556619E-007  0.1830067E+04  0.7818608E-02  0.8690472E-01
         -1   -1    0    0    0  501 -0.00000000000E+00  0.00000000000E+00  0.23078140170E+04  0.23078140170E+04  0.00000000000E+00 0.  1.
          2   -1    0    0  501    0  0.00000000000E+00 -0.00000000000E+00 -0.36280496388E+03  0.36280496388E+03  0.00000000000E+00 0. -1.
         24    2    1    2    0    0  0.16322191858E+03 -0.25280243152E+03 -0.16871432192E+03  0.35404088449E+03  0.79561054445E+02 0.  0.
        254    2    1    2    0    0 -0.16322191858E+03  0.25280243152E+03  0.21137233751E+04  0.23165780964E+04  0.89897558718E+03 0.  0.
         23    2    4    4    0    0 -0.13929570917E+03 -0.19575121324E+03  0.14289695570E+03  0.29315128883E+03  0.88296693686E+02 0.  0.
         23    2    4    4    0    0 -0.23926209414E+02  0.44855364476E+03  0.19708264194E+04  0.20234268076E+04  0.91249299317E+02 0.  0.
          2    1    3    3  502    0  0.14192305175E+03 -0.25255561701E+03 -0.15341059123E+03  0.32781290670E+03  0.00000000000E+00 0. -1.
         -1    1    3    3    0  502  0.21298866836E+02 -0.24681450969E+00 -0.15303730693E+02  0.26227977791E+02  0.00000000000E+00 0.  1.
         11    1    5    5    0    0 -0.14350308959E+03 -0.20033507325E+03  0.14575181896E+03  0.28630555535E+03  0.00000000000E+00 0.  1.
        -11    1    5    5    0    0  0.42073804218E+01  0.45838600113E+01 -0.28548632561E+01  0.68457334762E+01  0.00000000000E+00 0. -1.
          2    1    6    6  503    0 -0.47794694786E+01  0.21017247485E+03  0.11234510496E+04  0.11429512559E+04  0.00000000000E+00 0. -1.
         -2    1    6    6    0  503 -0.19146739935E+02  0.23838116990E+03  0.84737536976E+03  0.88047555168E+03  0.00000000000E+00 0.  1.
<mgrwt>
<rscale>  0 0.18300671E+04</rscale>
<asrwt>0</asrwt>
<pdfrwt beam="1">  1        2 0.55816150E-01 0.18300671E+04</pdfrwt>
<pdfrwt beam="2">  1       -1 0.35504830E+00 0.18300671E+04</pdfrwt>
<totfact> 0.13782895E+00</totfact>
</mgrwt>
</event>
<event>
12    6  0.1556619E-007  0.2139917E+04  0.7818608E-02  0.8543861E-01
          2   -1    0    0  501    0  0.00000000000E+00  0.00000000000E+00  0.19711402575E+04  0.19711402575E+04  0.00000000000E+00 0. -1.
         -1   -1    0    0    0  501 -0.00000000000E+00 -0.00000000000E+00 -0.58078615926E+03  0.58078615926E+03  0.00000000000E+00 0.  1.
         24    2    1    2    0    0 -0.72256761664E+03  0.17669489422E+03  0.11292784187E+04  0.13547244116E+04  0.81752297032E+02 0.  0.
        254    2    1    2    0    0  0.72256761664E+03 -0.17669489422E+03  0.26107567952E+03  0.11972020052E+04  0.90100337654E+03 0.  0.
         23    2    4    4    0    0  0.84765651028E+03  0.27870291597E+02  0.31370798976E+02  0.85353884638E+03  0.90808164118E+02 0.  0.
         23    2    4    4    0    0 -0.12508889365E+03 -0.20456518582E+03  0.22970488055E+03  0.34366315881E+03  0.88577017421E+02 0.  0.
          4    1    3    3  502    0 -0.50366203970E+03  0.15621027221E+03  0.76212741183E+03  0.92677682925E+03  0.00000000000E+00 0. -1.
         -3    1    3    3    0  502 -0.21890557694E+03  0.20484622009E+02  0.36715100689E+03  0.42794758232E+03  0.00000000000E+00 0.  1.
         11    1    5    5    0    0  0.45933289049E+03 -0.61458124132E+00  0.59431075987E+02  0.46316210422E+03  0.00000000000E+00 0. -1.
        -11    1    5    5    0    0  0.38832361979E+03  0.28484872839E+02 -0.28060277011E+02  0.39037674215E+03  0.00000000000E+00 0.  1.
          4    1    6    6  503    0 -0.13820034307E+03 -0.18472643283E+03  0.19791367509E+03  0.30396218942E+03  0.00000000000E+00 0. -1.
         -4    1    6    6    0  503  0.13111449423E+02 -0.19838752989E+02  0.31791205458E+02  0.39700969391E+02  0.00000000000E+00 0.  1.
<mgrwt>
<rscale>  0 0.21399168E+04</rscale>
<asrwt>0</asrwt>
<pdfrwt beam="1">  1        2 0.30325235E+00 0.21399168E+04</pdfrwt>
<pdfrwt beam="2">  1       -1 0.89351717E-01 0.21399168E+04</pdfrwt>
<totfact> 0.88971386E+00</totfact>
</mgrwt>
</event>
<event>
12    6  0.1653880E-007  0.1701588E+04  0.7818608E-02  0.8760459E-01
         -1   -1    0    0    0  501 -0.00000000000E+00  0.00000000000E+00  0.34848973926E+03  0.34848973926E+03  0.00000000000E+00 0.  1.
          2   -1    0    0  501    0  0.00000000000E+00 -0.00000000000E+00 -0.20771066023E+04  0.20771066023E+04  0.00000000000E+00 0. -1.
         24    2    1    2    0    0  0.48160109819E+03 -0.29571066959E+02 -0.11512886983E+04  0.12510041480E+04  0.82046606875E+02 0.  0.
        254    2    1    2    0    0 -0.48160109819E+03  0.29571066959E+02 -0.57732816473E+03  0.11745921935E+04  0.90196726413E+03 0.  0.
         23    2    4    4    0    0  0.22997637896E+03  0.46018307196E+02  0.24123177105E+01  0.25210734130E+03  0.92441726426E+02 0.  0.
         23    2    4    4    0    0 -0.71157747715E+03 -0.16447240237E+02 -0.57974048244E+03  0.92248485225E+03  0.90918963609E+02 0.  0.
          4    1    3    3  502    0  0.43823460319E+03 -0.30951691779E+02 -0.97421080615E+03  0.10686881067E+04  0.00000000000E+00 0. -1.
         -3    1    3    3    0  502  0.43366495005E+02  0.13806248202E+01 -0.17707789220E+03  0.18231604131E+03  0.00000000000E+00 0.  1.
         11    1    5    5    0    0  0.73386719063E+02 -0.17486251636E+02 -0.27896688712E+02  0.80433853396E+02  0.00000000000E+00 0.  1.
        -11    1    5    5    0    0  0.15658965990E+03  0.63504558832E+02  0.30309006422E+02  0.17167348790E+03  0.00000000000E+00 0. -1.
          2    1    6    6  503    0 -0.44518802368E+03  0.32032213178E+02 -0.34496760567E+03  0.56411088278E+03  0.00000000000E+00 0. -1.
         -2    1    6    6    0  503 -0.26638945347E+03 -0.48479453416E+02 -0.23477287677E+03  0.35837396946E+03  0.00000000000E+00 0.  1.
<mgrwt>
<rscale>  0 0.17015879E+04</rscale>
<asrwt>0</asrwt>
<pdfrwt beam="1">  1        2 0.31955486E+00 0.17015879E+04</pdfrwt>
<pdfrwt beam="2">  1       -1 0.53613806E-01 0.17015879E+04</pdfrwt>
<totfact> 0.23025489E+01</totfact>
</mgrwt>
</event>
<event>
12    6  0.1556619E-007  0.1441113E+04  0.7818608E-02  0.8924585E-01
          2   -1    0    0  501    0  0.00000000000E+00  0.00000000000E+00  0.27727527097E+04  0.27727527097E+04  0.00000000000E+00 0. -1.
         -1   -1    0    0    0  501 -0.00000000000E+00 -0.00000000000E+00 -0.18725126771E+03  0.18725126771E+03  0.00000000000E+00 0.  1.
         24    2    1    2    0    0 -0.21555123838E+03  0.31580805805E+03  0.37048722779E+03  0.53825796163E+03  0.79144054754E+02 0.  0.
        254    2    1    2    0    0  0.21555123838E+03 -0.31580805805E+03  0.22150142142E+04  0.24217460157E+04  0.90131500037E+03 0.  0.
         23    2    4    4    0    0  0.36379230350E+03 -0.55412715823E+03  0.13293929452E+04  0.14883022710E+04  0.91412796940E+02 0.  0.
         23    2    4    4    0    0 -0.14824106512E+03  0.23831910018E+03  0.88562126898E+03  0.93344374479E+03  0.90668548645E+02 0.  0.
          4    1    3    3  502    0 -0.69195663838E+02  0.47852155457E+02  0.96537787619E+02  0.12805238426E+03  0.00000000000E+00 0. -1.
         -3    1    3    3    0  502 -0.14635557454E+03  0.26795590260E+03  0.27394944017E+03  0.41020557737E+03  0.00000000000E+00 0.  1.
         11    1    5    5    0    0  0.17210811024E+03 -0.18162330779E+03  0.49856046417E+03  0.55782682257E+03  0.00000000000E+00 0.  1.
        -11    1    5    5    0    0  0.19168419326E+03 -0.37250385044E+03  0.83083248101E+03  0.93047544838E+03  0.00000000000E+00 0. -1.
          1    1    6    6  503    0 -0.17922944289E+02  0.11209255018E+03  0.34006117131E+03  0.35850742248E+03  0.00000000000E+00 0. -1.
         -1    1    6    6    0  503 -0.13031812083E+03  0.12622654999E+03  0.54556009767E+03  0.57493632231E+03  0.00000000000E+00 0.  1.
<mgrwt>
<rscale>  0 0.14411127E+04</rscale>
<asrwt>0</asrwt>
<pdfrwt beam="1">  1        2 0.42657731E+00 0.14411127E+04</pdfrwt>
<pdfrwt beam="2">  1       -1 0.28807889E-01 0.14411127E+04</pdfrwt>
<totfact> 0.29247723E+01</totfact>
</mgrwt>
</event>
<event>
12    6  0.1556619E-007  0.2442365E+04  0.7818608E-02  0.8423811E-01
         -1   -1    0    0    0  501 -0.00000000000E+00  0.00000000000E+00  0.47632422105E+03  0.47632422105E+03  0.00000000000E+00 0.  1.
          2   -1    0    0  501    0  0.00000000000E+00 -0.00000000000E+00 -0.31308233785E+04  0.31308233785E+04  0.00000000000E+00 0. -1.
         24    2    1    2    0    0 -0.25745283642E+03 -0.53510858202E+02  0.36318498639E+03  0.45565630226E+03  0.81079939103E+02 0.  0.
        254    2    1    2    0    0  0.25745283642E+03  0.53510858202E+02 -0.30176841439E+04  0.31514912973E+04  0.86967489901E+03 0.  0.
         23    2    4    4    0    0 -0.25643323169E+03  0.38083175360E+02 -0.18777211557E+04  0.18978022598E+04  0.92781184109E+02 0.  0.
         23    2    4    4    0    0  0.51388606812E+03  0.15427682841E+02 -0.11399629882E+04  0.12536890375E+04  0.88902665975E+02 0.  0.
          2    1    3    3  502    0 -0.35845839084E+02  0.16246763644E+02  0.81641409592E+02  0.90632230849E+02  0.00000000000E+00 0. -1.
         -1    1    3    3    0  502 -0.22160699734E+03 -0.69757621846E+02  0.28154357680E+03  0.36502407141E+03  0.00000000000E+00 0.  1.
         11    1    5    5    0    0 -0.66501890535E+02  0.52704187839E+02 -0.58080554274E+03  0.58697130367E+03  0.00000000000E+00 0. -1.
        -11    1    5    5    0    0 -0.18993134116E+03 -0.14621012479E+02 -0.12969156130E+04  0.13108309561E+04  0.00000000000E+00 0.  1.
          2    1    6    6  503    0  0.37384814450E+03  0.31087331922E+02 -0.74050998760E+03  0.83011077520E+03  0.00000000000E+00 0.  1.
         -2    1    6    6    0  503  0.14003792361E+03 -0.15659649081E+02 -0.39945300056E+03  0.42357826232E+03  0.00000000000E+00 0. -1.
<mgrwt>
<rscale>  0 0.24423653E+04</rscale>
<asrwt>0</asrwt>
<pdfrwt beam="1">  1        2 0.48166513E+00 0.24423653E+04</pdfrwt>
<pdfrwt beam="2">  1       -1 0.73280650E-01 0.24423653E+04</pdfrwt>
<totfact> 0.27517550E+00</totfact>
</mgrwt>
</event>
<event>
12    6  0.1556619E-007  0.1566016E+04  0.7818608E-02  0.8841702E-01
         -1   -1    0    0    0  501 -0.00000000000E+00  0.00000000000E+00  0.42594509345E+03  0.42594509345E+03  0.00000000000E+00 0.  1.
          2   -1    0    0  501    0  0.00000000000E+00 -0.00000000000E+00 -0.14393918132E+04  0.14393918132E+04  0.00000000000E+00 0. -1.
         24    2    1    2    0    0 -0.20235776156E+03  0.38108169120E+03 -0.69167582792E+03  0.81927807390E+03  0.81419852716E+02 0.  0.
        254    2    1    2    0    0  0.20235776156E+03 -0.38108169120E+03 -0.32177089179E+03  0.10460588327E+04  0.89695632873E+03 0.  0.
         23    2    4    4    0    0  0.43367423968E+03  0.83916587526E+02 -0.24473112005E+03  0.51340751557E+03  0.92620818927E+02 0.  0.
         23    2    4    4    0    0 -0.23131647812E+03 -0.46499827872E+03 -0.77039771743E+02  0.53265131714E+03  0.89730635554E+02 0.  0.
          4    1    3    3  502    0 -0.15343613767E+03  0.33841060489E+03 -0.55404559704E+03  0.66710637041E+03  0.00000000000E+00 0. -1.
         -3    1    3    3    0  502 -0.48921623890E+02  0.42671086308E+02 -0.13763023087E+03  0.15217170348E+03  0.00000000000E+00 0.  1.
         11    1    5    5    0    0  0.83050611778E+02  0.46558983809E+02 -0.26890692136E+02  0.98935597302E+02  0.00000000000E+00 0.  1.
        -11    1    5    5    0    0  0.35062362790E+03  0.37357603716E+02 -0.21784042791E+03  0.41447191827E+03  0.00000000000E+00 0. -1.
          1    1    6    6  503    0 -0.13910415736E+03 -0.27377551740E+03 -0.82241482164E+00  0.30708903740E+03  0.00000000000E+00 0. -1.
         -1    1    6    6    0  503 -0.92212320761E+02 -0.19122276132E+03 -0.76217356921E+02  0.22556227974E+03  0.00000000000E+00 0.  1.
<mgrwt>
<rscale>  0 0.15660164E+04</rscale>
<asrwt>0</asrwt>
<pdfrwt beam="1">  1        2 0.22144490E+00 0.15660164E+04</pdfrwt>
<pdfrwt beam="2">  1       -1 0.65530014E-01 0.15660164E+04</pdfrwt>
<totfact> 0.35536216E+01</totfact>
</mgrwt>
</event>
<event>
12    6  0.1556619E-007  0.1959618E+04  0.7818608E-02  0.8625737E-01
          2   -1    0    0  501    0  0.00000000000E+00  0.00000000000E+00  0.44763595782E+04  0.44763595782E+04  0.00000000000E+00 0. -1.
         -1   -1    0    0    0  501 -0.00000000000E+00 -0.00000000000E+00 -0.21446571923E+03  0.21446571923E+03  0.00000000000E+00 0.  1.
         24    2    1    2    0    0  0.32996514524E+03  0.50881074902E+03  0.28205802368E+04  0.28861241440E+04  0.79210651006E+02 0.  0.
        254    2    1    2    0    0 -0.32996514524E+03 -0.50881074902E+03  0.14413136222E+04  0.18047011534E+04  0.90099718103E+03 0.  0.
         23    2    4    4    0    0  0.14799012217E+03 -0.89438605120E+02  0.10138065412E+04  0.10318926637E+04  0.84252157286E+02 0.  0.
         23    2    4    4    0    0 -0.47795526741E+03 -0.41937214390E+03  0.42750708100E+03  0.77280848976E+03  0.10077908913E+03 0.  0.
          4    1    3    3  502    0  0.29891593976E+03  0.45969807368E+03  0.24195264858E+04  0.24808832043E+04  0.00000000000E+00 0. -1.
         -3    1    3    3    0  502  0.31049205483E+02  0.49112675338E+02  0.40105375099E+03  0.40524093972E+03  0.00000000000E+00 0.  1.
         11    1    5    5    0    0  0.48804129460E+02 -0.23555642262E+02  0.56382221726E+03  0.56642051870E+03  0.00000000000E+00 0. -1.
        -11    1    5    5    0    0  0.99185992708E+02 -0.65882962858E+02  0.44998432393E+03  0.46547214496E+03  0.00000000000E+00 0.  1.
          4    1    6    6  503    0 -0.26365092330E+02 -0.42539761350E+02  0.64511397719E+02  0.81648452679E+02  0.00000000000E+00 0.  1.
         -4    1    6    6    0  503 -0.45159017508E+03 -0.37683238255E+03  0.36299568328E+03  0.69116003708E+03  0.00000000000E+00 0. -1.
<mgrwt>
<rscale>  0 0.19596180E+04</rscale>
<asrwt>0</asrwt>
<pdfrwt beam="1">  1        2 0.68867063E+00 0.19596180E+04</pdfrwt>
<pdfrwt beam="2">  1       -1 0.32994729E-01 0.19596180E+04</pdfrwt>
<totfact> 0.12081501E+00</totfact>
</mgrwt>
</event>
<event>
12    6  0.1556619E-007  0.1418047E+04  0.7818608E-02  0.8940858E-01
          2   -1    0    0  501    0  0.00000000000E+00  0.00000000000E+00  0.16818500077E+04  0.16818500077E+04  0.00000000000E+00 0. -1.
         -1   -1    0    0    0  501 -0.00000000000E+00 -0.00000000000E+00 -0.29890572994E+03  0.29890572994E+03  0.00000000000E+00 0.  1.
         24    2    1    2    0    0  0.22578494486E+03 -0.32511232420E+03  0.21313617313E+03  0.45681832292E+03  0.81111572435E+02 0.  0.
        254    2    1    2    0    0 -0.22578494486E+03  0.32511232420E+03  0.11698081046E+04  0.15239374147E+04  0.89289270220E+03 0.  0.
         23    2    4    4    0    0  0.36931000112E+02 -0.28742962216E+03  0.38054402879E+03  0.48707462351E+03  0.91914332687E+02 0.  0.
         23    2    4    4    0    0 -0.26271594497E+03  0.61254194636E+03  0.78926407580E+03  0.10368627912E+04  0.88990800552E+02 0.  0.
          2    1    3    3  502    0  0.53767728293E+02 -0.28508748104E+02  0.38709599821E+02  0.72125934604E+02  0.00000000000E+00 0. -1.
         -1    1    3    3    0  502  0.17201721656E+03 -0.29660357610E+03  0.17442657331E+03  0.38469238831E+03  0.00000000000E+00 0.  1.
         11    1    5    5    0    0 -0.74254433344E+01 -0.62131013571E+02  0.14598151154E+03  0.15882695542E+03  0.00000000000E+00 0.  1.
        -11    1    5    5    0    0  0.44356443446E+02 -0.22529860859E+03  0.23456251725E+03  0.32824766809E+03  0.00000000000E+00 0. -1.
          1    1    6    6  503    0 -0.12614668420E+03  0.25143363063E+03  0.27099910800E+03  0.39060513704E+03  0.00000000000E+00 0. -1.
         -1    1    6    6    0  503 -0.13656926077E+03  0.36110831573E+03  0.51826496780E+03  0.64625765413E+03  0.00000000000E+00 0.  1.
<mgrwt>
<rscale>  0 0.14180474E+04</rscale>
<asrwt>0</asrwt>
<pdfrwt beam="1">  1        2 0.25874615E+00 0.14180474E+04</pdfrwt>
<pdfrwt beam="2">  1       -1 0.45985498E-01 0.14180474E+04</pdfrwt>
<totfact> 0.52271691E+01</totfact>
</mgrwt>
</event>
<event>
12    6  0.1556619E-007  0.1164884E+04  0.7818608E-02  0.9144162E-01
          2   -1    0    0  501    0  0.00000000000E+00  0.00000000000E+00  0.59752092472E+03  0.59752092472E+03  0.00000000000E+00 0. -1.
         -1   -1    0    0    0  501 -0.00000000000E+00 -0.00000000000E+00 -0.56774314161E+03  0.56774314161E+03  0.00000000000E+00 0.  1.
         24    2    1    2    0    0  0.32836821492E+02  0.10174967825E+03  0.21119061267E+03  0.24864792797E+03  0.76112175992E+02 0.  0.
        254    2    1    2    0    0 -0.32836821492E+02 -0.10174967825E+03 -0.18141282957E+03  0.91661613835E+03  0.89210048564E+03 0.  0.
         23    2    4    4    0    0  0.24077263877E+03 -0.40287364216E+03 -0.10117215256E+03  0.48927558899E+03  0.94213387560E+02 0.  0.
         23    2    4    4    0    0 -0.27360946026E+03  0.30112396391E+03 -0.80240677011E+02  0.42734054936E+03  0.10316782685E+03 0.  0.
          2    1    3    3  502    0 -0.10071061759E+02  0.60064093656E+02  0.15515475505E+03  0.16667969176E+03  0.00000000000E+00 0. -1.
         -3    1    3    3    0  502  0.42907883251E+02  0.41685584594E+02  0.56035857630E+02  0.81968236215E+02  0.00000000000E+00 0.  1.
         11    1    5    5    0    0  0.46167063841E+02 -0.22487721593E+02 -0.82309710562E+01  0.52008117546E+02  0.00000000000E+00 0. -1.
        -11    1    5    5    0    0  0.19460557493E+03 -0.38038592057E+03 -0.92941181501E+02  0.43726747144E+03  0.00000000000E+00 0.  1.
          3    1    6    6  503    0 -0.75740999577E+02  0.10312423831E+03  0.21022933813E+02  0.12966599897E+03  0.00000000000E+00 0. -1.
         -3    1    6    6    0  503 -0.19786846068E+03  0.19799972561E+03 -0.10126361082E+03  0.29767455039E+03  0.00000000000E+00 0.  1.
<mgrwt>
<rscale>  0 0.11648835E+04</rscale>
<asrwt>0</asrwt>
<pdfrwt beam="1">  1        2 0.91926296E-01 0.11648835E+04</pdfrwt>
<pdfrwt beam="2">  1       -1 0.87345099E-01 0.11648835E+04</pdfrwt>
<totfact> 0.72726976E+01</totfact>
</mgrwt>
</event>
<event>
12    6  0.1556619E-007  0.2993772E+04  0.7818608E-02  0.8245512E-01
          2   -1    0    0  501    0  0.00000000000E+00  0.00000000000E+00  0.12552590657E+04  0.12552590657E+04  0.00000000000E+00 0. -1.
         -1   -1    0    0    0  501 -0.00000000000E+00 -0.00000000000E+00 -0.17850239340E+04  0.17850239340E+04  0.00000000000E+00 0.  1.
         24    2    1    2    0    0 -0.28733511060E+03 -0.94090827675E+03  0.71357361047E+03  0.12180065218E+04  0.80515455454E+02 0.  0.
        254    2    1    2    0    0  0.28733511060E+03  0.94090827675E+03 -0.12433384787E+04  0.18222764779E+04  0.89829345881E+03 0.  0.
         23    2    4    4    0    0 -0.21685537149E+03  0.59257276191E+03 -0.93097228977E+03  0.11283273076E+04  0.90798560087E+02 0.  0.
         23    2    4    4    0    0  0.50419048209E+03  0.34833551484E+03 -0.31236618896E+03  0.69394917027E+03  0.91908333566E+02 0.  0.
          2    1    3    3  502    0 -0.23814244191E+03 -0.74084246420E+03  0.52503187016E+03  0.93873204062E+03  0.00000000000E+00 0. -1.
         -3    1    3    3    0  502 -0.49192668686E+02 -0.20006581255E+03  0.18854174031E+03  0.27927448119E+03  0.00000000000E+00 0.  1.
         11    1    5    5    0    0 -0.11094954904E+03  0.34562998621E+03 -0.60887264849E+03  0.70886937575E+03  0.00000000000E+00 0.  1.
        -11    1    5    5    0    0 -0.10590582245E+03  0.24694277570E+03 -0.32209964128E+03  0.41945793188E+03  0.00000000000E+00 0. -1.
          1    1    6    6  503    0  0.22069603450E+01  0.16188223401E+02 -0.12699421647E+01  0.16387251262E+02  0.00000000000E+00 0. -1.
         -1    1    6    6    0  503  0.50198352174E+03  0.33214729144E+03 -0.31109624680E+03  0.67756191900E+03  0.00000000000E+00 0.  1.
<mgrwt>
<rscale>  0 0.29937719E+04</rscale>
<asrwt>0</asrwt>
<pdfrwt beam="1">  1        2 0.19311678E+00 0.29937719E+04</pdfrwt>
<pdfrwt beam="2">  1       -1 0.27461906E+00 0.29937719E+04</pdfrwt>
<totfact> 0.82624276E-01</totfact>
</mgrwt>
</event>
<event>
12    6  0.1556619E-007  0.2048770E+04  0.7818608E-02  0.8584153E-01
          2   -1    0    0  501    0  0.00000000000E+00  0.00000000000E+00  0.22980579269E+04  0.22980579269E+04  0.00000000000E+00 0. -1.
         -1   -1    0    0    0  501 -0.00000000000E+00 -0.00000000000E+00 -0.45663090165E+03  0.45663090165E+03  0.00000000000E+00 0.  1.
         24    2    1    2    0    0 -0.27341942307E+03 -0.47615906498E+03  0.16086324785E+04  0.17017422590E+04  0.82113512275E+02 0.  0.
        254    2    1    2    0    0  0.27341942307E+03  0.47615906498E+03  0.23279454668E+03  0.10529465695E+04  0.86776583320E+03 0.  0.
         23    2    4    4    0    0 -0.14980327265E+02  0.56379451031E+03  0.39733921324E+03  0.69624913376E+03  0.93785637606E+02 0.  0.
         23    2    4    4    0    0  0.28839975034E+03 -0.87635445326E+02 -0.16454466656E+03  0.35669743578E+03  0.96455824749E+02 0.  0.
          2    1    3    3  502    0 -0.23899257663E+03 -0.40945995887E+03  0.12892875900E+04  0.13736947985E+04  0.00000000000E+00 0. -1.
         -1    1    3    3    0  502 -0.34426846444E+02 -0.66699106120E+02  0.31934488856E+03  0.32804746053E+03  0.00000000000E+00 0.  1.
         11    1    5    5    0    0 -0.69006115427E+01  0.51112077858E+01 -0.27699725390E+01  0.90230611524E+01  0.00000000000E+00 0.  1.
        -11    1    5    5    0    0 -0.80797157225E+01  0.55868330252E+03  0.40010918577E+03  0.68722607260E+03  0.00000000000E+00 0. -1.
          1    1    6    6  503    0  0.28793836847E+03 -0.67310114484E+02 -0.14909265048E+03  0.33116125071E+03  0.00000000000E+00 0. -1.
         -1    1    6    6    0  503  0.46138187388E+00 -0.20325330842E+02 -0.15452016078E+02  0.25536185070E+02  0.00000000000E+00 0.  1.
<mgrwt>
<rscale>  0 0.20487696E+04</rscale>
<asrwt>0</asrwt>
<pdfrwt beam="1">  1        2 0.35354737E+00 0.20487696E+04</pdfrwt>
<pdfrwt beam="2">  1       -1 0.70250909E-01 0.20487696E+04</pdfrwt>
<totfact> 0.98068261E+00</totfact>
</mgrwt>
</event>
<event>
12    6  0.1556619E-007  0.2185768E+04  0.7818608E-02  0.8524375E-01
          2   -1    0    0  501    0  0.00000000000E+00  0.00000000000E+00  0.27897485522E+04  0.27897485522E+04  0.00000000000E+00 0. -1.
         -1   -1    0    0    0  501 -0.00000000000E+00 -0.00000000000E+00 -0.42813744095E+03  0.42813744095E+03  0.00000000000E+00 0.  1.
         24    2    1    2    0    0 -0.27974072505E+03  0.36345614866E+03  0.20938997643E+04  0.21450068719E+04  0.79265455425E+02 0.  0.
        254    2    1    2    0    0  0.27974072505E+03 -0.36345614866E+03  0.26771134691E+03  0.10728791212E+04  0.93222583003E+03 0.  0.
         23    2    4    4    0    0 -0.23190539779E+03 -0.69128537614E+02  0.38523677429E+03  0.46387079260E+03  0.90608342472E+02 0.  0.
         23    2    4    4    0    0  0.51164612284E+03 -0.29432761105E+03 -0.11752542738E+03  0.60900832859E+03  0.93104353105E+02 0.  0.
          4    1    3    3  502    0 -0.25046062774E+03  0.35591374356E+03  0.19566571194E+04  0.20044730484E+04  0.00000000000E+00 0. -1.
         -3    1    3    3    0  502 -0.29280097305E+02  0.75424051046E+01  0.13724264489E+03  0.14053382351E+03  0.00000000000E+00 0.  1.
         11    1    5    5    0    0 -0.64636544428E+02 -0.31362129406E+02  0.50656318076E+02  0.87906362668E+02  0.00000000000E+00 0. -1.
        -11    1    5    5    0    0 -0.16726885336E+03 -0.37766408207E+02  0.33458045622E+03  0.37596442994E+03  0.00000000000E+00 0.  1.
          4    1    6    6  503    0  0.25462958713E+03 -0.11243614733E+03 -0.18617716085E+02  0.27897084654E+03  0.00000000000E+00 0. -1.
         -4    1    6    6    0  503  0.25701653571E+03 -0.18189146372E+03 -0.98907711295E+02  0.33003748204E+03  0.00000000000E+00 0.  1.
<mgrwt>
<rscale>  0 0.21857683E+04</rscale>
<asrwt>0</asrwt>
<pdfrwt beam="1">  1        2 0.42919207E+00 0.21857683E+04</pdfrwt>
<pdfrwt beam="2">  1       -1 0.65867300E-01 0.21857683E+04</pdfrwt>
<totfact> 0.57103020E+00</totfact>
</mgrwt>
</event>
<event>
12    6  0.1556619E-007  0.2165309E+04  0.7818608E-02  0.8533007E-01
          2   -1    0    0  501    0  0.00000000000E+00  0.00000000000E+00  0.24338682600E+04  0.24338682600E+04  0.00000000000E+00 0. -1.
         -1   -1    0    0    0  501 -0.00000000000E+00 -0.00000000000E+00 -0.48159590947E+03  0.48159590947E+03  0.00000000000E+00 0.  1.
         24    2    1    2    0    0 -0.75918381858E+03  0.39209891819E+03  0.93639229775E+03  0.12702114689E+04  0.80653632823E+02 0.  0.
        254    2    1    2    0    0  0.75918381858E+03 -0.39209891819E+03  0.10158800528E+04  0.16452527005E+04  0.97197866998E+03 0.  0.
         23    2    4    4    0    0  0.37932734445E+03  0.30317904413E+03  0.43921163023E+03  0.66115691796E+03  0.91732475100E+02 0.  0.
         23    2    4    4    0    0  0.37985647413E+03 -0.69527796232E+03  0.57666842253E+03  0.98409578255E+03  0.90529850684E+02 0.  0.
          4    1    3    3  502    0 -0.49823067130E+03  0.26033854568E+03  0.55822008258E+03  0.79222447626E+03  0.00000000000E+00 0. -1.
         -3    1    3    3    0  502 -0.26095314728E+03  0.13176037252E+03  0.37817221516E+03  0.47798699267E+03  0.00000000000E+00 0.  1.
         11    1    5    5    0    0  0.15146302232E+03  0.73672272065E+02  0.12051483828E+03  0.20710499039E+03  0.00000000000E+00 0. -1.
        -11    1    5    5    0    0  0.22786432213E+03  0.22950677207E+03  0.31869679195E+03  0.45405192756E+03  0.00000000000E+00 0.  1.
          2    1    6    6  503    0  0.18389178810E+03 -0.35113289483E+03  0.34365164302E+03  0.52460170731E+03  0.00000000000E+00 0. -1.
         -2    1    6    6    0  503  0.19596468603E+03 -0.34414506750E+03  0.23301677951E+03  0.45949407525E+03  0.00000000000E+00 0.  1.
<mgrwt>
<rscale>  0 0.21653092E+04</rscale>
<asrwt>0</asrwt>
<pdfrwt beam="1">  1        2 0.37444126E+00 0.21653092E+04</pdfrwt>
<pdfrwt beam="2">  1       -1 0.74091680E-01 0.21653092E+04</pdfrwt>
<totfact> 0.72735378E+00</totfact>
</mgrwt>
</event>
<event>
12    6  0.1556619E-007  0.2033996E+04  0.7818608E-02  0.8590889E-01
         -1   -1    0    0    0  501 -0.00000000000E+00  0.00000000000E+00  0.12871033359E+04  0.12871033359E+04  0.00000000000E+00 0.  1.
          2   -1    0    0  501    0  0.00000000000E+00 -0.00000000000E+00 -0.80357564048E+03  0.80357564048E+03  0.00000000000E+00 0. -1.
         24    2    1    2    0    0  0.45275712876E+03 -0.67546763886E+03  0.30738201272E+03  0.87298546924E+03  0.79839708007E+02 0.  0.
        254    2    1    2    0    0 -0.45275712876E+03  0.67546763886E+03  0.17614568272E+03  0.12176935072E+04  0.88910327130E+03 0.  0.
         23    2    4    4    0    0  0.11423935091E+03  0.55913486561E+03  0.24649289285E+03  0.62755526212E+03  0.85932726880E+02 0.  0.
         23    2    4    4    0    0 -0.56699647967E+03  0.11633277325E+03 -0.70347210131E+02  0.59013824504E+03  0.91082908372E+02 0.  0.
          2    1    3    3  502    0  0.21250659880E+03 -0.29665288254E+03  0.17868019078E+03  0.40631096199E+03  0.00000000000E+00 0. -1.
         -1    1    3    3    0  502  0.24025052996E+03 -0.37881475632E+03  0.12870182194E+03  0.46667450726E+03  0.00000000000E+00 0.  1.
         11    1    5    5    0    0  0.11430426210E+03  0.36290320507E+03  0.15137418981E+03  0.40948546485E+03  0.00000000000E+00 0.  1.
        -11    1    5    5    0    0 -0.64911190339E-01  0.19623166054E+03  0.95118703039E+02  0.21806979727E+03  0.00000000000E+00 0. -1.
          3    1    6    6  503    0 -0.33485660304E+03  0.33973469743E+02 -0.70213989856E+02  0.34382138621E+03  0.00000000000E+00 0. -1.
         -3    1    6    6    0  503 -0.23213987663E+03  0.82359303504E+02 -0.13322027508E+00  0.24631685883E+03  0.00000000000E+00 0.  1.
<mgrwt>
<rscale>  0 0.20339960E+04</rscale>
<asrwt>0</asrwt>
<pdfrwt beam="1">  1        2 0.12362702E+00 0.20339960E+04</pdfrwt>
<pdfrwt beam="2">  1       -1 0.19801590E+00 0.20339960E+04</pdfrwt>
<totfact> 0.56234041E+00</totfact>
</mgrwt>
</event>
<event>
12    6  0.1556619E-007  0.1822895E+04  0.7818608E-02  0.8694218E-01
          2   -1    0    0  501    0  0.00000000000E+00  0.00000000000E+00  0.82279048119E+03  0.82279048119E+03  0.00000000000E+00 0. -1.
         -1   -1    0    0    0  501 -0.00000000000E+00 -0.00000000000E+00 -0.10096577964E+04  0.10096577964E+04  0.00000000000E+00 0.  1.
         24    2    1    2    0    0 -0.40260684303E+03  0.28142896257E+03 -0.55307569166E+03  0.74398422622E+03  0.79531610923E+02 0.  0.
        254    2    1    2    0    0  0.40260684303E+03 -0.28142896257E+03  0.36620837650E+03  0.10884640513E+04  0.89963930826E+03 0.  0.
         23    2    4    4    0    0 -0.10683089808E+02 -0.36419863926E+03 -0.15942833906E+03  0.40830690301E+03  0.92424858696E+02 0.  0.
         23    2    4    4    0    0  0.41328993284E+03  0.82769676694E+02  0.52563671556E+03  0.68015714830E+03  0.93061279157E+02 0.  0.
          2    1    3    3  502    0 -0.56793927936E+02  0.28308392266E+02 -0.38101634024E+02  0.74017902148E+02  0.00000000000E+00 0. -1.
         -1    1    3    3    0  502 -0.34581291509E+03  0.25312057030E+03 -0.51497405764E+03  0.66996632408E+03  0.00000000000E+00 0.  1.
         11    1    5    5    0    0 -0.28023039459E+02 -0.34076507988E+03 -0.12709619601E+03  0.36477331790E+03  0.00000000000E+00 0. -1.
        -11    1    5    5    0    0  0.17339949651E+02 -0.23433559379E+02 -0.32332143049E+02  0.43533585118E+02  0.00000000000E+00 0.  1.
          3    1    6    6  503    0  0.39215895453E+03  0.91571905078E+02  0.46388441459E+03  0.61429863220E+03  0.00000000000E+00 0. -1.
         -3    1    6    6    0  503  0.21130978303E+02 -0.88022283832E+01  0.61752300966E+02  0.65858516101E+02  0.00000000000E+00 0.  1.
<mgrwt>
<rscale>  0 0.18228953E+04</rscale>
<asrwt>0</asrwt>
<pdfrwt beam="1">  1        2 0.12658315E+00 0.18228953E+04</pdfrwt>
<pdfrwt beam="2">  1       -1 0.15533197E+00 0.18228953E+04</pdfrwt>
<totfact> 0.11320126E+01</totfact>
</mgrwt>
</event>
<event>
12    6  0.1556619E-007  0.1400413E+04  0.7818608E-02  0.8953519E-01
          2   -1    0    0  501    0  0.00000000000E+00  0.00000000000E+00  0.84213758751E+03  0.84213758751E+03  0.00000000000E+00 0. -1.
         -1   -1    0    0    0  501 -0.00000000000E+00 -0.00000000000E+00 -0.58219619041E+03  0.58219619041E+03  0.00000000000E+00 0.  1.
         24    2    1    2    0    0 -0.31313076065E+03  0.76560279979E+01  0.33874363128E+03  0.46532449697E+03  0.60581777093E+02 0.  0.
        254    2    1    2    0    0  0.31313076065E+03 -0.76560279979E+01 -0.78802234187E+02  0.95900928096E+03  0.90298367694E+03 0.  0.
         23    2    4    4    0    0 -0.13356606741E+03  0.14318699681E+03 -0.34744308428E+03  0.40883193711E+03  0.89913544935E+02 0.  0.
         23    2    4    4    0    0  0.44669682806E+03 -0.15084302481E+03  0.26864085010E+03  0.55017734385E+03  0.90749815493E+02 0.  0.
          4    1    3    3  502    0 -0.31438782968E+03  0.11889841248E+02  0.33410548250E+03  0.45891998127E+03  0.00000000000E+00 0. -1.
         -3    1    3    3    0  502  0.12570690293E+01 -0.42338132496E+01  0.46381487797E+01  0.64045156944E+01  0.00000000000E+00 0.  1.
         11    1    5    5    0    0 -0.12226019080E+03  0.68923182190E+02 -0.22639202987E+03  0.26636687198E+03  0.00000000000E+00 0.  1.
        -11    1    5    5    0    0 -0.11305876610E+02  0.74263814623E+02 -0.12105105441E+03  0.14246506513E+03  0.00000000000E+00 0. -1.
          2    1    6    6  503    0  0.27205032042E+03 -0.46003401374E+02  0.14181892932E+03  0.31022620536E+03  0.00000000000E+00 0.  1.
         -2    1    6    6    0  503  0.17464650764E+03 -0.10483962344E+03  0.12682192078E+03  0.23995113849E+03  0.00000000000E+00 0. -1.
<mgrwt>
<rscale>  0 0.14004132E+04</rscale>
<asrwt>0</asrwt>
<pdfrwt beam="1">  1        2 0.12955963E+00 0.14004132E+04</pdfrwt>
<pdfrwt beam="2">  1       -1 0.89568645E-01 0.14004132E+04</pdfrwt>
<totfact> 0.43616107E+01</totfact>
</mgrwt>
</event>
<event>
12    6  0.1556619E-007  0.2741958E+04  0.7818608E-02  0.8321518E-01
         -1   -1    0    0    0  501 -0.00000000000E+00  0.00000000000E+00  0.85287288544E+03  0.85287288544E+03  0.00000000000E+00 0.  1.
          2   -1    0    0  501    0  0.00000000000E+00 -0.00000000000E+00 -0.22038265656E+04  0.22038265656E+04  0.00000000000E+00 0. -1.
         24    2    1    2    0    0 -0.73490728358E+03 -0.50351797159E+03  0.33037350080E+03  0.95340304833E+03  0.78814080968E+02 0.  0.
        254    2    1    2    0    0  0.73490728358E+03  0.50351797159E+03 -0.16813271810E+04  0.21032964027E+04  0.89631222522E+03 0.  0.
         23    2    4    4    0    0  0.80077697819E+03  0.53679422921E+03 -0.17264645572E+04  0.19797579052E+04  0.96797121284E+02 0.  0.
         23    2    4    4    0    0 -0.65869694606E+02 -0.33276257615E+02  0.45137376192E+02  0.12353849755E+03  0.88194396978E+02 0.  0.
          2    1    3    3  502    0 -0.30110825026E+03 -0.23125178473E+03  0.17606092468E+03  0.41849852510E+03  0.00000000000E+00 0. -1.
         -1    1    3    3    0  502 -0.43379903333E+03 -0.27226618686E+03  0.15431257612E+03  0.53490452323E+03  0.00000000000E+00 0.  1.
         11    1    5    5    0    0  0.41226282534E+03  0.21814255578E+03 -0.83307108270E+03  0.95475349731E+03  0.00000000000E+00 0. -1.
        -11    1    5    5    0    0  0.38851415285E+03  0.31865167343E+03 -0.89339347446E+03  0.10250044079E+04  0.00000000000E+00 0.  1.
          1    1    6    6  503    0  0.47935683274E+01  0.16536200318E+02 -0.11023192178E+02  0.20443458222E+02  0.00000000000E+00 0. -1.
         -1    1    6    6    0  503 -0.70663262933E+02 -0.49812457933E+02  0.56160568371E+02  0.10309503933E+03  0.00000000000E+00 0.  1.
<mgrwt>
<rscale>  0 0.27419584E+04</rscale>
<asrwt>0</asrwt>
<pdfrwt beam="1">  1        2 0.33905024E+00 0.27419584E+04</pdfrwt>
<pdfrwt beam="2">  1       -1 0.13121121E+00 0.27419584E+04</pdfrwt>
<totfact> 0.25306090E+00</totfact>
</mgrwt>
</event>
<event>
12    6  0.1556619E-007  0.2473350E+04  0.7818608E-02  0.8412542E-01
          2   -1    0    0  501    0  0.00000000000E+00  0.00000000000E+00  0.17401082541E+04  0.17401082541E+04  0.00000000000E+00 0. -1.
         -1   -1    0    0    0  501 -0.00000000000E+00 -0.00000000000E+00 -0.87889050866E+03  0.87889050866E+03  0.00000000000E+00 0.  1.
         24    2    1    2    0    0  0.23794872510E+03  0.96079281677E+03  0.81612400016E+03  0.12852392963E+04  0.77712499339E+02 0.  0.
        254    2    1    2    0    0 -0.23794872510E+03 -0.96079281677E+03  0.45093745292E+02  0.13337594665E+04  0.89282609508E+03 0.  0.
         23    2    4    4    0    0 -0.26666610164E+03 -0.11145806558E+04  0.64097763742E+02  0.11514816172E+04  0.91654478315E+02 0.  0.
         23    2    4    4    0    0  0.28717376540E+02  0.15378783908E+03 -0.19004018450E+02  0.18227784925E+03  0.91589707094E+02 0.  0.
          4    1    3    3  502    0  0.91134042798E+02  0.28775211167E+03  0.28834759911E+03  0.41743386235E+03  0.00000000000E+00 0. -1.
         -3    1    3    3    0  502  0.14681468230E+03  0.67304070510E+03  0.52777640105E+03  0.86780543394E+03  0.00000000000E+00 0.  1.
         11    1    5    5    0    0 -0.22706798997E+03 -0.87408067016E+03  0.17106014671E+02  0.90325495059E+03  0.00000000000E+00 0. -1.
        -11    1    5    5    0    0 -0.39598111670E+02 -0.24049998568E+03  0.46991749071E+02  0.24822666666E+03  0.00000000000E+00 0.  1.
          2    1    6    6  503    0  0.17811367084E+01  0.15415174976E+03 -0.13241214383E+02  0.15472964862E+03  0.00000000000E+00 0. -1.
         -2    1    6    6    0  503  0.26936239831E+02 -0.36391068600E+00 -0.57628040669E+01  0.27548200630E+02  0.00000000000E+00 0.  1.
<mgrwt>
<rscale>  0 0.24733497E+04</rscale>
<asrwt>0</asrwt>
<pdfrwt beam="1">  1        2 0.26770896E+00 0.24733497E+04</pdfrwt>
<pdfrwt beam="2">  1       -1 0.13521392E+00 0.24733497E+04</pdfrwt>
<totfact> 0.43490129E+00</totfact>
</mgrwt>
</event>
<event>
12    6  0.1556619E-007  0.2054809E+04  0.7818608E-02  0.8581416E-01
          2   -1    0    0  501    0  0.00000000000E+00  0.00000000000E+00  0.34423566526E+04  0.34423566526E+04  0.00000000000E+00 0. -1.
         -1   -1    0    0    0  501 -0.00000000000E+00 -0.00000000000E+00 -0.30663868267E+03  0.30663868267E+03  0.00000000000E+00 0.  1.
         24    2    1    2    0    0  0.41568849474E+03  0.11737147918E+03  0.25563371873E+04  0.25938354404E+04  0.80928906574E+02 0.  0.
        254    2    1    2    0    0 -0.41568849474E+03 -0.11737147918E+03  0.57938078267E+03  0.11551598949E+04  0.90118771779E+03 0.  0.
         23    2    4    4    0    0 -0.35042390636E+03  0.17083871074E+03 -0.94028915668E+02  0.41412776458E+03  0.10333242075E+03 0.  0.
         23    2    4    4    0    0 -0.65264588375E+02 -0.28821018992E+03  0.67340969834E+03  0.74103213032E+03  0.91232758857E+02 0.  0.
          2    1    3    3  502    0  0.32048200864E+03  0.53984313273E+02  0.19127103275E+04  0.19401246921E+04  0.00000000000E+00 0. -1.
         -1    1    3    3    0  502  0.95206486094E+02  0.63387165904E+02  0.64362685978E+03  0.65371074829E+03  0.00000000000E+00 0.  1.
         11    1    5    5    0    0 -0.32236593617E+03  0.15952113472E+03 -0.53624432802E+02  0.36365143890E+03  0.00000000000E+00 0. -1.
        -11    1    5    5    0    0 -0.28057970196E+02  0.11317576026E+02 -0.40404482866E+02  0.50476325681E+02  0.00000000000E+00 0.  1.
          3    1    6    6  503    0 -0.24616537348E+02 -0.20894112560E+03  0.54970399535E+03  0.58858886363E+03  0.00000000000E+00 0. -1.
         -3    1    6    6    0  503 -0.40648051027E+02 -0.79269064322E+02  0.12370570298E+03  0.15244326670E+03  0.00000000000E+00 0.  1.
<mgrwt>
<rscale>  0 0.20548087E+04</rscale>
<asrwt>0</asrwt>
<pdfrwt beam="1">  1        2 0.52959330E+00 0.20548087E+04</pdfrwt>
<pdfrwt beam="2">  1       -1 0.47175184E-01 0.20548087E+04</pdfrwt>
<totfact> 0.42260592E+00</totfact>
</mgrwt>
</event>
<event>
12    6  0.1556619E-007  0.2207861E+04  0.7818608E-02  0.8515163E-01
         -1   -1    0    0    0  501 -0.00000000000E+00  0.00000000000E+00  0.84175884818E+03  0.84175884818E+03  0.00000000000E+00 0.  1.
          2   -1    0    0  501    0  0.00000000000E+00 -0.00000000000E+00 -0.14477569287E+04  0.14477569287E+04  0.00000000000E+00 0. -1.
         24    2    1    2    0    0  0.25724476113E+02  0.56836729033E+03 -0.10001869384E+04  0.11524463882E+04  0.63683909991E+02 0.  0.
        254    2    1    2    0    0 -0.25724476113E+02 -0.56836729033E+03  0.39418885793E+03  0.11370693887E+04  0.90213015338E+03 0.  0.
         23    2    4    4    0    0 -0.19714984458E+03 -0.75626059554E+03  0.22731284352E+03  0.81894523116E+03  0.90564966937E+02 0.  0.
         23    2    4    4    0    0  0.17142536846E+03  0.18789330521E+03  0.16687601441E+03  0.31812415754E+03  0.93085038177E+02 0.  0.
          4    1    3    3  502    0  0.39419437933E+02  0.53100504626E+03 -0.92172282970E+03  0.10644685181E+04  0.00000000000E+00 0. -1.
         -3    1    3    3    0  502 -0.13694961819E+02  0.37362244064E+02 -0.78464108751E+02  0.87977870074E+02  0.00000000000E+00 0.  1.
         11    1    5    5    0    0 -0.39009912374E+02 -0.25123565504E+03  0.38926972026E+02  0.25720893604E+03  0.00000000000E+00 0. -1.
        -11    1    5    5    0    0 -0.15813993220E+03 -0.50502494049E+03  0.18838587150E+03  0.56173629512E+03  0.00000000000E+00 0.  1.
          2    1    6    6  503    0  0.11432163457E+03  0.77197056047E+02  0.48315220198E+02  0.14616149320E+03  0.00000000000E+00 0. -1.
         -2    1    6    6    0  503  0.57103733898E+02  0.11069624916E+03  0.11856079421E+03  0.17196266434E+03  0.00000000000E+00 0.  1.
<mgrwt>
<rscale>  0 0.22078607E+04</rscale>
<asrwt>0</asrwt>
<pdfrwt beam="1">  1        2 0.22273183E+00 0.22078607E+04</pdfrwt>
<pdfrwt beam="2">  1       -1 0.12950136E+00 0.22078607E+04</pdfrwt>
<totfact> 0.72431866E+00</totfact>
</mgrwt>
</event>
<event>
12    6  0.1556619E-007  0.2547813E+04  0.7818608E-02  0.8386147E-01
          2   -1    0    0  501    0  0.00000000000E+00  0.00000000000E+00  0.27151537131E+04  0.27151537131E+04  0.00000000000E+00 0. -1.
         -1   -1    0    0    0  501 -0.00000000000E+00 -0.00000000000E+00 -0.59769630317E+03  0.59769630317E+03  0.00000000000E+00 0.  1.
         24    2    1    2    0    0 -0.55275081168E+03 -0.91461076686E+03  0.51867710679E+03  0.11905296519E+04  0.79300669865E+02 0.  0.
        254    2    1    2    0    0  0.55275081168E+03  0.91461076686E+03  0.15987803031E+04  0.21223203644E+04  0.89783013799E+03 0.  0.
         23    2    4    4    0    0  0.45893839186E+02  0.31879108052E+03 -0.55573444898E+01  0.33512451988E+03  0.92431392145E+02 0.  0.
         23    2    4    4    0    0  0.50685697249E+03  0.59581968634E+03  0.16043376476E+04  0.17871958445E+04  0.90909899349E+02 0.  0.
          4    1    3    3  502    0 -0.50708613862E+03 -0.83720631157E+03  0.49845687854E+03  0.10984124999E+04  0.00000000000E+00 0. -1.
         -3    1    3    3    0  502 -0.45664673058E+02 -0.77404455289E+02  0.20220228250E+02  0.92117152011E+02  0.00000000000E+00 0.  1.
         11    1    5    5    0    0  0.25693045032E+02  0.13459057897E+02 -0.24649426920E+01  0.29109358374E+02  0.00000000000E+00 0. -1.
        -11    1    5    5    0    0  0.20200794154E+02  0.30533202263E+03 -0.30924017978E+01  0.30601516151E+03  0.00000000000E+00 0.  1.
          2    1    6    6  503    0  0.41789864913E+02  0.82059556703E+02  0.23730042113E+03  0.25454204668E+03  0.00000000000E+00 0. -1.
         -2    1    6    6    0  503  0.46506710758E+03  0.51376012964E+03  0.13670372265E+04  0.15326537978E+04  0.00000000000E+00 0.  1.
<mgrwt>
<rscale>  0 0.25478127E+04</rscale>
<asrwt>0</asrwt>
<pdfrwt beam="1">  1        2 0.41771595E+00 0.25478127E+04</pdfrwt>
<pdfrwt beam="2">  1       -1 0.91953279E-01 0.25478127E+04</pdfrwt>
<totfact> 0.30256784E+00</totfact>
</mgrwt>
</event>
<event>
12    6  0.1556619E-007  0.1578669E+04  0.7818608E-02  0.8833761E-01
         -1   -1    0    0    0  501 -0.00000000000E+00  0.00000000000E+00  0.28410885433E+03  0.28410885433E+03  0.00000000000E+00 0.  1.
          2   -1    0    0  501    0  0.00000000000E+00 -0.00000000000E+00 -0.21929939565E+04  0.21929939565E+04  0.00000000000E+00 0. -1.
         24    2    1    2    0    0 -0.37785173763E+03  0.19713517033E+03 -0.11722989524E+04  0.12492191715E+04  0.68040382034E+02 0.  0.
        254    2    1    2    0    0  0.37785173763E+03 -0.19713517033E+03 -0.73658614983E+03  0.12278836394E+04  0.88515810157E+03 0.  0.
         23    2    4    4    0    0 -0.69894894388E+02  0.28605323256E+03 -0.15981991607E+03  0.34763165546E+03  0.92701748557E+02 0.  0.
         23    2    4    4    0    0  0.44774663202E+03 -0.48318840289E+03 -0.57676623376E+03  0.88025198394E+03  0.90753444355E+02 0.  0.
          4    1    3    3  502    0 -0.33378888362E+03  0.19641313825E+03 -0.10398346746E+04  0.11096167312E+04  0.00000000000E+00 0. -1.
         -3    1    3    3    0  502 -0.44062854016E+02  0.72203208565E+00 -0.13246427777E+03  0.13960244024E+03  0.00000000000E+00 0.  1.
         11    1    5    5    0    0 -0.80962939181E+02  0.16470204886E+03 -0.70735067054E+02  0.19668556666E+03  0.00000000000E+00 0. -1.
        -11    1    5    5    0    0  0.11068044793E+02  0.12135118369E+03 -0.89084849020E+02  0.15094608880E+03  0.00000000000E+00 0.  1.
          4    1    6    6  503    0  0.27890082986E+03 -0.31404747199E+03 -0.30959602961E+03  0.52178653596E+03  0.00000000000E+00 0. -1.
         -4    1    6    6    0  503  0.16884580216E+03 -0.16914093089E+03 -0.26717020415E+03  0.35846544798E+03  0.00000000000E+00 0.  1.
<mgrwt>
<rscale>  0 0.15786691E+04</rscale>
<asrwt>0</asrwt>
<pdfrwt beam="1">  1        2 0.33738368E+00 0.15786691E+04</pdfrwt>
<pdfrwt beam="2">  1       -1 0.43709055E-01 0.15786691E+04</pdfrwt>
<totfact> 0.29498875E+01</totfact>
</mgrwt>
</event>
<event>
12    6  0.1556619E-007  0.1273086E+04  0.7818608E-02  0.9051185E-01
         -1   -1    0    0    0  501 -0.00000000000E+00  0.00000000000E+00  0.30749102646E+03  0.30749102646E+03  0.00000000000E+00 0.  1.
          2   -1    0    0  501    0  0.00000000000E+00 -0.00000000000E+00 -0.13177200117E+04  0.13177200117E+04  0.00000000000E+00 0. -1.
         24    2    1    2    0    0 -0.21125647968E+03  0.17730817645E+03 -0.39866443692E+03  0.49707966613E+03  0.10994258303E+03 0.  0.
        254    2    1    2    0    0  0.21125647968E+03 -0.17730817645E+03 -0.61156454832E+03  0.11281313721E+04  0.90697392807E+03 0.  0.
         23    2    4    4    0    0 -0.14902519444E+03  0.29304454032E+03 -0.28521367075E+03  0.44578637435E+03  0.96410800136E+02 0.  0.
         23    2    4    4    0    0  0.36028167412E+03 -0.47035271678E+03 -0.32635087758E+03  0.68234499770E+03  0.89750976065E+02 0.  0.
          4    1    3    3  502    0 -0.54465369642E+02  0.58298265643E+02 -0.20908795298E+03  0.22379217223E+03  0.00000000000E+00 0. -1.
         -3    1    3    3    0  502 -0.15679111004E+03  0.11900991081E+03 -0.18957648394E+03  0.27328749390E+03  0.00000000000E+00 0.  1.
         11    1    5    5    0    0  0.13127310821E+02  0.23180275771E+02 -0.32838512391E+02  0.42284978069E+02  0.00000000000E+00 0.  1.
        -11    1    5    5    0    0 -0.16215250526E+03  0.26986426455E+03 -0.25237515836E+03  0.40350139628E+03  0.00000000000E+00 0. -1.
          3    1    6    6  503    0  0.15067057263E+03 -0.26792959393E+03 -0.18082461171E+03  0.35663066183E+03  0.00000000000E+00 0. -1.
         -3    1    6    6    0  503  0.20961110150E+03 -0.20242312285E+03 -0.14552626587E+03  0.32571433587E+03  0.00000000000E+00 0.  1.
<mgrwt>
<rscale>  0 0.12730861E+04</rscale>
<asrwt>0</asrwt>
<pdfrwt beam="1">  1        2 0.20272615E+00 0.12730861E+04</pdfrwt>
<pdfrwt beam="2">  1       -1 0.47306313E-01 0.12730861E+04</pdfrwt>
<totfact> 0.80529346E+01</totfact>
</mgrwt>
</event>
<event>
12    6  0.1556619E-007  0.2073404E+04  0.7818608E-02  0.8573050E-01
          2   -1    0    0  501    0  0.00000000000E+00  0.00000000000E+00  0.24868847019E+04  0.24868847019E+04  0.00000000000E+00 0. -1.
         -1   -1    0    0    0  501 -0.00000000000E+00 -0.00000000000E+00 -0.43216759861E+03  0.43216759861E+03  0.00000000000E+00 0.  1.
         24    2    1    2    0    0  0.69955895518E+02 -0.65008835109E+03  0.15892895176E+04  0.17204267903E+04  0.80737094300E+02 0.  0.
        254    2    1    2    0    0 -0.69955895518E+02  0.65008835109E+03  0.46542758566E+03  0.11986255102E+04  0.89026489580E+03 0.  0.
         23    2    4    4    0    0 -0.29713124771E+03 -0.58769675076E+02  0.22185489263E+01  0.31730358725E+03  0.94529315280E+02 0.  0.
         23    2    4    4    0    0  0.22717535219E+03  0.70885802616E+03  0.46320903673E+03  0.88132192296E+03  0.89874235950E+02 0.  0.
          2    1    3    3  502    0  0.48749783191E+02 -0.55564799350E+03  0.12775604164E+04  0.13940164459E+04  0.00000000000E+00 0. -1.
         -1    1    3    3    0  502  0.21206112327E+02 -0.94440357588E+02  0.31172910124E+03  0.32641034436E+03  0.00000000000E+00 0.  1.
         11    1    5    5    0    0 -0.11350828062E+02 -0.15866937835E+02  0.19787037511E+02  0.27787188908E+02  0.00000000000E+00 0. -1.
        -11    1    5    5    0    0 -0.28578041965E+03 -0.42902737241E+02 -0.17568488585E+02  0.28951639834E+03  0.00000000000E+00 0.  1.
          4    1    6    6  503    0  0.24267402887E+02  0.12647434354E+03  0.11742572406E+03  0.17427985279E+03  0.00000000000E+00 0. -1.
         -4    1    6    6    0  503  0.20290794930E+03  0.58238368262E+03  0.34578331267E+03  0.70704207018E+03  0.00000000000E+00 0.  1.
<mgrwt>
<rscale>  0 0.20734040E+04</rscale>
<asrwt>0</asrwt>
<pdfrwt beam="1">  1        2 0.38259764E+00 0.20734040E+04</pdfrwt>
<pdfrwt beam="2">  1       -1 0.66487324E-01 0.20734040E+04</pdfrwt>
<totfact> 0.85389447E+00</totfact>
</mgrwt>
</event>
<event>
12    6  0.1556619E-007  0.1830933E+04  0.7818608E-02  0.8690020E-01
          2   -1    0    0  501    0  0.00000000000E+00  0.00000000000E+00  0.14035805874E+04  0.14035805874E+04  0.00000000000E+00 0. -1.
         -1   -1    0    0    0  501 -0.00000000000E+00 -0.00000000000E+00 -0.59710095380E+03  0.59710095380E+03  0.00000000000E+00 0.  1.
         24    2    1    2    0    0 -0.63057892212E+03  0.12928988843E+03  0.35328671510E+02  0.65009845906E+03  0.83870371250E+02 0.  0.
        254    2    1    2    0    0  0.63057892212E+03 -0.12928988843E+03  0.77115096207E+03  0.13505830821E+04  0.90280407795E+03 0.  0.
         23    2    4    4    0    0  0.40006354701E+02 -0.23904280391E+03  0.69071811759E+03  0.73762718705E+03  0.90886624879E+02 0.  0.
         23    2    4    4    0    0  0.59057256742E+03  0.10975291547E+03  0.80432844482E+02  0.61295589509E+03  0.91781408838E+02 0.  0.
          2    1    3    3  502    0 -0.48321418410E+03  0.75908665238E+02  0.54621063018E+02  0.49218038736E+03  0.00000000000E+00 0. -1.
         -1    1    3    3    0  502 -0.14736473802E+03  0.53381223196E+02 -0.19292391507E+02  0.15791807170E+03  0.00000000000E+00 0.  1.
         11    1    5    5    0    0 -0.48402026404E+01 -0.48499908466E+02  0.25979357483E+03  0.26432625712E+03  0.00000000000E+00 0. -1.
        -11    1    5    5    0    0  0.44846557341E+02 -0.19054289544E+03  0.43092454276E+03  0.47330092992E+03  0.00000000000E+00 0.  1.
          4    1    6    6  503    0  0.14479584720E+03 -0.84698896288E+01  0.37258264197E+02  0.14975231099E+03  0.00000000000E+00 0. -1.
         -4    1    6    6    0  503  0.44577672022E+03  0.11822280510E+03  0.43174580285E+02  0.46320358409E+03  0.00000000000E+00 0.  1.
<mgrwt>
<rscale>  0 0.18309334E+04</rscale>
<asrwt>0</asrwt>
<pdfrwt beam="1">  1        2 0.21593547E+00 0.18309334E+04</pdfrwt>
<pdfrwt beam="2">  1       -1 0.91861686E-01 0.18309334E+04</pdfrwt>
<totfact> 0.17844084E+01</totfact>
</mgrwt>
</event>
<event>
12    6  0.1556619E-007  0.2074328E+04  0.7818608E-02  0.8572637E-01
          2   -1    0    0  501    0  0.00000000000E+00  0.00000000000E+00  0.21754468177E+04  0.21754468177E+04  0.00000000000E+00 0. -1.
         -1   -1    0    0    0  501 -0.00000000000E+00 -0.00000000000E+00 -0.49447733553E+03  0.49447733553E+03  0.00000000000E+00 0.  1.
         24    2    1    2    0    0  0.60409706711E+03 -0.28098110997E+03  0.13366512156E+04  0.14955304902E+04  0.78046935975E+02 0.  0.
        254    2    1    2    0    0 -0.60409706711E+03  0.28098110997E+03  0.34431826654E+03  0.11743936630E+04  0.90374872419E+03 0.  0.
         23    2    4    4    0    0 -0.16176586305E+03  0.15779802100E+03 -0.29483235452E+03  0.38266005346E+03  0.91837842727E+02 0.  0.
         23    2    4    4    0    0 -0.44233120406E+03  0.12318308896E+03  0.63915062107E+03  0.79173360959E+03  0.86588825236E+02 0.  0.
          4    1    3    3  502    0  0.44553381290E+03 -0.24403304817E+03  0.10137620695E+04  0.11339162405E+04  0.00000000000E+00 0. -1.
         -3    1    3    3    0  502  0.15856325420E+03 -0.36948061797E+02  0.32288914614E+03  0.36161424965E+03  0.00000000000E+00 0.  1.
         11    1    5    5    0    0 -0.71982874436E+01  0.59328154409E+02 -0.87209102312E+02  0.10572167599E+03  0.00000000000E+00 0.  1.
        -11    1    5    5    0    0 -0.15456757561E+03  0.98469866592E+02 -0.20762325221E+03  0.27693837747E+03  0.00000000000E+00 0. -1.
          4    1    6    6  503    0 -0.34804135796E+03  0.58621326198E+02  0.48711876296E+03  0.60154296269E+03  0.00000000000E+00 0. -1.
         -4    1    6    6    0  503 -0.94289846097E+02  0.64561762766E+02  0.15203185811E+03  0.19019064690E+03  0.00000000000E+00 0.  1.
<mgrwt>
<rscale>  0 0.20743280E+04</rscale>
<asrwt>0</asrwt>
<pdfrwt beam="1">  1        2 0.33468412E+00 0.20743280E+04</pdfrwt>
<pdfrwt beam="2">  1       -1 0.76073438E-01 0.20743280E+04</pdfrwt>
<totfact> 0.97241393E+00</totfact>
</mgrwt>
</event>
<event>
12    6  0.1556619E-007  0.1410260E+04  0.7818608E-02  0.8946425E-01
          2   -1    0    0  501    0  0.00000000000E+00  0.00000000000E+00  0.12253342358E+04  0.12253342358E+04  0.00000000000E+00 0. -1.
         -1   -1    0    0    0  501 -0.00000000000E+00 -0.00000000000E+00 -0.40577367744E+03  0.40577367744E+03  0.00000000000E+00 0.  1.
         24    2    1    2    0    0  0.21382418794E+03 -0.33879320458E+03  0.13563184223E+03  0.43033623507E+03  0.79319983462E+02 0.  0.
        254    2    1    2    0    0 -0.21382418794E+03  0.33879320458E+03  0.68392871618E+03  0.12007716782E+04  0.90199363389E+03 0.  0.
         23    2    4    4    0    0  0.39363330837E+02  0.45263129021E+03  0.76819195950E+03  0.89720034176E+03  0.91787852775E+02 0.  0.
         23    2    4    4    0    0 -0.25318751877E+03 -0.11383808563E+03 -0.84263243327E+02  0.30357133645E+03  0.89399288241E+02 0.  0.
          4    1    3    3  502    0  0.88974019685E+01 -0.57464925329E+02  0.42229362219E+01  0.58302783769E+02  0.00000000000E+00 0. -1.
         -3    1    3    3    0  502  0.20492678597E+03 -0.28132827925E+03  0.13140890601E+03  0.37203345131E+03  0.00000000000E+00 0.  1.
         11    1    5    5    0    0  0.67672341526E+02  0.36536515375E+03  0.60547838100E+03  0.71040503323E+03  0.00000000000E+00 0. -1.
        -11    1    5    5    0    0 -0.28309010689E+02  0.87266136459E+02  0.16271357850E+03  0.18679530853E+03  0.00000000000E+00 0.  1.
          4    1    6    6  503    0 -0.17795212783E+03 -0.10069101152E+03 -0.96720112029E+02  0.22618669207E+03  0.00000000000E+00 0. -1.
         -4    1    6    6    0  503 -0.75235390943E+02 -0.13147074109E+02  0.12456868702E+02  0.77384644380E+02  0.00000000000E+00 0.  1.
<mgrwt>
<rscale>  0 0.14102601E+04</rscale>
<asrwt>0</asrwt>
<pdfrwt beam="1">  1        2 0.18851296E+00 0.14102601E+04</pdfrwt>
<pdfrwt beam="2">  1       -1 0.62426720E-01 0.14102601E+04</pdfrwt>
<totfact> 0.52794990E+01</totfact>
</mgrwt>
</event>
<event>
12    6  0.1556619E-007  0.2357969E+04  0.7818608E-02  0.8455409E-01
         -1   -1    0    0    0  501 -0.00000000000E+00  0.00000000000E+00  0.10743414898E+04  0.10743414898E+04  0.00000000000E+00 0.  1.
          2   -1    0    0  501    0  0.00000000000E+00 -0.00000000000E+00 -0.12938198837E+04  0.12938198837E+04  0.00000000000E+00 0. -1.
         24    2    1    2    0    0 -0.62924319934E+03 -0.65418539635E+03 -0.52844440722E+03  0.10536146862E+04  0.83335938986E+02 0.  0.
        254    2    1    2    0    0  0.62924319934E+03  0.65418539635E+03  0.30896601331E+03  0.13145466874E+04  0.89925939485E+03 0.  0.
         23    2    4    4    0    0  0.63982088388E+02  0.66434957266E+03  0.20998332269E+02  0.67376201486E+03  0.89778952924E+02 0.  0.
         23    2    4    4    0    0  0.56526111096E+03 -0.10164176309E+02  0.28796768105E+03  0.64078467253E+03  0.89756209722E+02 0.  0.
          2    1    3    3  502    0 -0.53174067752E+03 -0.58408566440E+03 -0.43723357616E+03  0.90281637757E+03  0.00000000000E+00 0. -1.
         -1    1    3    3    0  502 -0.97502521818E+02 -0.70099731948E+02 -0.91210831065E+02  0.15079830862E+03  0.00000000000E+00 0.  1.
         11    1    5    5    0    0  0.36565944680E+02  0.39791588130E+03  0.56543561312E+02  0.40357315474E+03  0.00000000000E+00 0. -1.
        -11    1    5    5    0    0  0.27416143708E+02  0.26643369135E+03 -0.35545229043E+02  0.27018886012E+03  0.00000000000E+00 0.  1.
          1    1    6    6  503    0  0.38642294205E+02  0.18327615125E+02  0.73817075619E+01  0.43400668015E+02  0.00000000000E+00 0. -1.
         -1    1    6    6    0  503  0.52661881675E+03 -0.28491791433E+02  0.28058597348E+03  0.59738400451E+03  0.00000000000E+00 0.  1.
<mgrwt>
<rscale>  0 0.23579689E+04</rscale>
<asrwt>0</asrwt>
<pdfrwt beam="1">  1        2 0.19904921E+00 0.23579689E+04</pdfrwt>
<pdfrwt beam="2">  1       -1 0.16528331E+00 0.23579689E+04</pdfrwt>
<totfact> 0.45715292E+00</totfact>
</mgrwt>
</event>
<event>
12    6  0.1556619E-007  0.1896195E+04  0.7818608E-02  0.8656753E-01
         -1   -1    0    0    0  501 -0.00000000000E+00  0.00000000000E+00  0.37158156758E+03  0.37158156758E+03  0.00000000000E+00 0.  1.
          2   -1    0    0  501    0  0.00000000000E+00 -0.00000000000E+00 -0.24190896836E+04  0.24190896836E+04  0.00000000000E+00 0. -1.
         24    2    1    2    0    0 -0.22668399375E+03  0.59402203824E+03 -0.13590587087E+04  0.15025651820E+04  0.80085813824E+02 0.  0.
        254    2    1    2    0    0  0.22668399375E+03 -0.59402203824E+03 -0.68844940730E+03  0.12881060692E+04  0.88374591599E+03 0.  0.
         23    2    4    4    0    0  0.33838772757E+03 -0.28617075933E+03  0.68777048017E+02  0.45801559969E+03  0.92994890002E+02 0.  0.
         23    2    4    4    0    0 -0.11170373382E+03 -0.30785127891E+03 -0.75722645531E+03  0.83009046946E+03  0.91695958361E+02 0.  0.
          4    1    3    3  502    0 -0.21216770181E+03  0.54412777430E+03 -0.12908170320E+04  0.14167917202E+04  0.00000000000E+00 0. -1.
         -3    1    3    3    0  502 -0.14516291942E+02  0.49894263945E+02 -0.68241676743E+02  0.85773461811E+02  0.00000000000E+00 0.  1.
         11    1    5    5    0    0  0.11690257588E+01 -0.85391679012E+01 -0.11014498654E+02  0.13985821044E+02  0.00000000000E+00 0. -1.
        -11    1    5    5    0    0  0.33721870181E+03 -0.27763159143E+03  0.79791546671E+02  0.44402977865E+03  0.00000000000E+00 0.  1.
          2    1    6    6  503    0  0.14800959956E+02 -0.37987417894E+02 -0.69799641348E+02  0.80833794085E+02  0.00000000000E+00 0. -1.
         -2    1    6    6    0  503 -0.12650469377E+03 -0.26986386102E+03 -0.68742681397E+03  0.74925667537E+03  0.00000000000E+00 0.  1.
<mgrwt>
<rscale>  0 0.18961953E+04</rscale>
<asrwt>0</asrwt>
<pdfrwt beam="1">  1        2 0.37216763E+00 0.18961953E+04</pdfrwt>
<pdfrwt beam="2">  1       -1 0.57166398E-01 0.18961953E+04</pdfrwt>
<totfact> 0.12818706E+01</totfact>
</mgrwt>
</event>
<event>
12    6  0.1556619E-007  0.1605215E+04  0.7818608E-02  0.8817351E-01
          2   -1    0    0  501    0  0.00000000000E+00  0.00000000000E+00  0.49157697601E+03  0.49157697601E+03  0.00000000000E+00 0. -1.
         -1   -1    0    0    0  501 -0.00000000000E+00 -0.00000000000E+00 -0.13104327077E+04  0.13104327077E+04  0.00000000000E+00 0.  1.
         24    2    1    2    0    0 -0.27692206672E+03 -0.43391903816E+03 -0.54451558999E+03  0.75128252103E+03  0.54374956968E+02 0.  0.
        254    2    1    2    0    0  0.27692206672E+03  0.43391903816E+03 -0.27434014167E+03  0.10507271627E+04  0.87395279867E+03 0.  0.
         23    2    4    4    0    0 -0.14202546212E+03  0.46631206747E+03  0.69211512633E+02  0.50057778447E+03  0.90386440685E+02 0.  0.
         23    2    4    4    0    0  0.41894752883E+03 -0.32393029311E+02 -0.34355165430E+03  0.55014937819E+03  0.89834619633E+02 0.  0.
          4    1    3    3  502    0 -0.31304280423E+02 -0.81801133799E+02 -0.77966153100E+02  0.11726083955E+03  0.00000000000E+00 0. -1.
         -3    1    3    3    0  502 -0.24561778629E+03 -0.35211790437E+03 -0.46654943689E+03  0.63402168148E+03  0.00000000000E+00 0.  1.
         11    1    5    5    0    0 -0.12634682462E+02  0.14155956871E+03  0.49303810140E+02  0.15043142088E+03  0.00000000000E+00 0. -1.
        -11    1    5    5    0    0 -0.12939077966E+03  0.32475249876E+03  0.19907702493E+02  0.35014636358E+03  0.00000000000E+00 0.  1.
          4    1    6    6  503    0  0.58814457824E+02 -0.28689916314E+02 -0.27489273070E+02  0.70978249353E+02  0.00000000000E+00 0. -1.
         -4    1    6    6    0  503  0.36013307101E+03 -0.37031129974E+01 -0.31606238123E+03  0.47917112884E+03  0.00000000000E+00 0.  1.
<mgrwt>
<rscale>  0 0.16052147E+04</rscale>
<asrwt>0</asrwt>
<pdfrwt beam="1">  1        2 0.75627228E-01 0.16052147E+04</pdfrwt>
<pdfrwt beam="2">  1       -1 0.20160503E+00 0.16052147E+04</pdfrwt>
<totfact> 0.10096076E+01</totfact>
</mgrwt>
</event>
<event>
12    6  0.1556619E-007  0.2592211E+04  0.7818608E-02  0.8370852E-01
         -1   -1    0    0    0  501 -0.00000000000E+00  0.00000000000E+00  0.72526301822E+03  0.72526301822E+03  0.00000000000E+00 0.  1.
          2   -1    0    0  501    0  0.00000000000E+00 -0.00000000000E+00 -0.23162493322E+04  0.23162493322E+04  0.00000000000E+00 0. -1.
         24    2    1    2    0    0 -0.29083892834E+03 -0.61722986690E+03 -0.17524867930E+04  0.18823092003E+04  0.79485692837E+02 0.  0.
        254    2    1    2    0    0  0.29083892834E+03  0.61722986690E+03  0.16150047901E+03  0.11592031501E+04  0.92309779956E+03 0.  0.
         23    2    4    4    0    0  0.55230179772E+03  0.59728513997E+03 -0.36501269165E+02  0.81849098879E+03  0.82512677100E+02 0.  0.
         23    2    4    4    0    0 -0.26146286938E+03  0.19944726935E+02  0.19800174817E+03  0.34071216127E+03  0.90108048258E+02 0.  0.
          4    1    3    3  502    0 -0.16429810211E+03 -0.27139409333E+03 -0.75093933382E+03  0.81520457759E+03  0.00000000000E+00 0. -1.
         -3    1    3    3    0  502 -0.12654082623E+03 -0.34583577357E+03 -0.10015474591E+04  0.10671046228E+04  0.00000000000E+00 0.  1.
         11    1    5    5    0    0  0.45907390599E+03  0.47782483181E+03 -0.59234166863E+02  0.66526243511E+03  0.00000000000E+00 0. -1.
        -11    1    5    5    0    0  0.93227891735E+02  0.11946030816E+03  0.22732897698E+02  0.15322855367E+03  0.00000000000E+00 0.  1.
          2    1    6    6  503    0 -0.11233730116E+03  0.50795248778E+02  0.69969609328E+02  0.14175885425E+03  0.00000000000E+00 0.  1.
         -2    1    6    6    0  503 -0.14912556822E+03 -0.30850521843E+02  0.12803213884E+03  0.19895330702E+03  0.00000000000E+00 0. -1.
<mgrwt>
<rscale>  0 0.25922114E+04</rscale>
<asrwt>0</asrwt>
<pdfrwt beam="1">  1        2 0.35634605E+00 0.25922114E+04</pdfrwt>
<pdfrwt beam="2">  1       -1 0.11157893E+00 0.25922114E+04</pdfrwt>
<totfact> 0.32958538E+00</totfact>
</mgrwt>
</event>
<event>
12    6  0.1556619E-007  0.2305420E+04  0.7818608E-02  0.8475787E-01
          2   -1    0    0  501    0  0.00000000000E+00  0.00000000000E+00  0.25676638440E+04  0.25676638440E+04  0.00000000000E+00 0. -1.
         -1   -1    0    0    0  501 -0.00000000000E+00 -0.00000000000E+00 -0.51749005912E+03  0.51749005912E+03  0.00000000000E+00 0.  1.
         24    2    1    2    0    0 -0.83063554778E+03  0.32387785880E+03  0.37502366962E+03  0.97040347533E+03  0.78663025020E+02 0.  0.
        254    2    1    2    0    0  0.83063554778E+03 -0.32387785880E+03  0.16751501152E+04  0.21147504278E+04  0.93337515637E+03 0.  0.
         23    2    4    4    0    0  0.81638181260E+03 -0.56034240033E+03  0.10843998472E+04  0.14714938841E+04  0.94384070884E+02 0.  0.
         23    2    4    4    0    0  0.14253735185E+02  0.23646454153E+03  0.59075026802E+03  0.64325654365E+03  0.93136745733E+02 0.  0.
          4    1    3    3  502    0 -0.13273543594E+02  0.94141637461E+01  0.19049757845E+02  0.25054075767E+02  0.00000000000E+00 0. -1.
         -1    1    3    3    0  502 -0.81736200419E+03  0.31446369506E+03  0.35597391177E+03  0.94534939956E+03  0.00000000000E+00 0.  1.
         11    1    5    5    0    0  0.68460333529E+03 -0.47186469041E+03  0.95863121936E+03  0.12689806253E+04  0.00000000000E+00 0. -1.
        -11    1    5    5    0    0  0.13177847731E+03 -0.88477709923E+02  0.12576862787E+03  0.20251325880E+03  0.00000000000E+00 0.  1.
          2    1    6    6  503    0  0.45490991461E+02  0.20494764058E+03  0.49780976525E+03  0.54026616409E+03  0.00000000000E+00 0. -1.
         -2    1    6    6    0  503 -0.31237256275E+02  0.31516900951E+02  0.92940502774E+02  0.10299037956E+03  0.00000000000E+00 0.  1.
<mgrwt>
<rscale>  0 0.23054201E+04</rscale>
<asrwt>0</asrwt>
<pdfrwt beam="1">  1        2 0.39502520E+00 0.23054201E+04</pdfrwt>
<pdfrwt beam="2">  1       -1 0.79613857E-01 0.23054201E+04</pdfrwt>
<totfact> 0.51660423E+00</totfact>
</mgrwt>
</event>
<event>
12    6  0.1556619E-007  0.2808673E+04  0.7818608E-02  0.8300581E-01
          4   -1    0    0  501    0  0.00000000000E+00  0.00000000000E+00  0.12400002833E+04  0.12400002833E+04  0.00000000000E+00 0. -1.
         -3   -1    0    0    0  501 -0.00000000000E+00 -0.00000000000E+00 -0.15904518266E+04  0.15904518266E+04  0.00000000000E+00 0.  1.
         24    2    1    2    0    0 -0.69712390623E+03  0.33975795946E+02 -0.12207316036E+04  0.14084001709E+04  0.79178899084E+02 0.  0.
        254    2    1    2    0    0  0.69712390623E+03 -0.33975795946E+02  0.87028006029E+03  0.14220519391E+04  0.88187767789E+03 0.  0.
         23    2    4    4    0    0  0.77654337468E+02  0.69965371367E+02  0.76660170776E+03  0.77900538136E+03  0.90806698742E+02 0.  0.
         23    2    4    4    0    0  0.61946956876E+03 -0.10394116731E+03  0.10367835253E+03  0.64304655772E+03  0.90627599136E+02 0.  0.
          2    1    3    3  502    0 -0.13251888130E+03  0.27656099801E+02 -0.28481259107E+03  0.31534794400E+03  0.00000000000E+00 0. -1.
         -1    1    3    3    0  502 -0.56460502493E+03  0.63196961449E+01 -0.93591901253E+03  0.10930522269E+04  0.00000000000E+00 0.  1.
         11    1    5    5    0    0 -0.16268337573E+02  0.17198440945E+02  0.26001073335E+03  0.26108624367E+03  0.00000000000E+00 0.  1.
        -11    1    5    5    0    0  0.93922675041E+02  0.52766930422E+02  0.50659097441E+03  0.51791913769E+03  0.00000000000E+00 0. -1.
          1    1    6    6  503    0  0.54962242369E+03 -0.85405304631E+02  0.11987398514E+03  0.56898914489E+03  0.00000000000E+00 0. -1.
         -1    1    6    6    0  503  0.69847145067E+02 -0.18535862683E+02 -0.16195632610E+02  0.74057412829E+02  0.00000000000E+00 0.  1.
<mgrwt>
<rscale>  0 0.28086728E+04</rscale>
<asrwt>0</asrwt>
<pdfrwt beam="1">  1        4 0.19076927E+00 0.28086728E+04</pdfrwt>
<pdfrwt beam="2">  1       -3 0.24468490E+00 0.28086728E+04</pdfrwt>
<totfact> 0.23545563E-02</totfact>
</mgrwt>
</event>
<event>
12    6  0.1556619E-007  0.2736427E+04  0.7818608E-02  0.8323282E-01
          2   -1    0    0  501    0  0.00000000000E+00  0.00000000000E+00  0.27385279543E+04  0.27385279543E+04  0.00000000000E+00 0. -1.
         -1   -1    0    0    0  501 -0.00000000000E+00 -0.00000000000E+00 -0.68358185098E+03  0.68358185098E+03  0.00000000000E+00 0.  1.
         24    2    1    2    0    0  0.42706140382E+03 -0.47893953625E+03  0.22174907789E+04  0.23098712699E+04  0.80469915606E+02 0.  0.
        254    2    1    2    0    0 -0.42706140382E+03  0.47893953625E+03 -0.16254467550E+03  0.11122385354E+04  0.89380605618E+03 0.  0.
         23    2    4    4    0    0 -0.53813684795E+03  0.24202682303E+02 -0.29044055451E+03  0.61836277648E+03  0.88542479563E+02 0.  0.
         23    2    4    4    0    0  0.11107544412E+03  0.45473685395E+03  0.12789587901E+03  0.49387575891E+03  0.91828910187E+02 0.  0.
          2    1    3    3  502    0  0.42420233244E+03 -0.47930549398E+03  0.22160792881E+04  0.23066618276E+04  0.00000000000E+00 0. -1.
         -1    1    3    3    0  502  0.28590713873E+01  0.36595772975E+00  0.14114907096E+01  0.32094423629E+01  0.00000000000E+00 0.  1.
         11    1    5    5    0    0 -0.44808855750E+03 -0.81885326449E+00 -0.20915539985E+03  0.49449975447E+03  0.00000000000E+00 0. -1.
        -11    1    5    5    0    0 -0.90048290443E+02  0.25021535567E+02 -0.81285154655E+02  0.12386302201E+03  0.00000000000E+00 0.  1.
          3    1    6    6  503    0  0.66676315193E+02  0.31669507441E+03  0.44733701408E+02  0.32671486835E+03  0.00000000000E+00 0. -1.
         -3    1    6    6    0  503  0.44399128930E+02  0.13804177955E+03  0.83162177603E+02  0.16716089056E+03  0.00000000000E+00 0.  1.
<mgrwt>
<rscale>  0 0.27364269E+04</rscale>
<asrwt>0</asrwt>
<pdfrwt beam="1">  1        2 0.42131199E+00 0.27364269E+04</pdfrwt>
<pdfrwt beam="2">  1       -1 0.10516644E+00 0.27364269E+04</pdfrwt>
<totfact> 0.21232784E+00</totfact>
</mgrwt>
</event>
<event>
12    6  0.1556619E-007  0.1675046E+04  0.7818608E-02  0.8775726E-01
         -1   -1    0    0    0  501 -0.00000000000E+00  0.00000000000E+00  0.50618678304E+03  0.50618678304E+03  0.00000000000E+00 0.  1.
          2   -1    0    0  501    0  0.00000000000E+00 -0.00000000000E+00 -0.13857431982E+04  0.13857431982E+04  0.00000000000E+00 0. -1.
         24    2    1    2    0    0 -0.25210391783E+03 -0.51939425032E+03 -0.16817611003E+03  0.60626985658E+03  0.77156738993E+02 0.  0.
        254    2    1    2    0    0  0.25210391783E+03  0.51939425032E+03 -0.71138030516E+03  0.12856601247E+04  0.90196077796E+03 0.  0.
         23    2    4    4    0    0  0.28143720564E+03  0.46696992109E+03  0.14207087391E+02  0.55193719085E+03  0.84646402105E+02 0.  0.
         23    2    4    4    0    0 -0.29333287811E+02  0.52424329224E+02 -0.72558739255E+03  0.73372293382E+03  0.90903945607E+02 0.  0.
          2    1    3    3  502    0 -0.42986125473E+02 -0.77632318166E+02  0.19208333724E+01  0.88759638394E+02  0.00000000000E+00 0. -1.
         -1    1    3    3    0  502 -0.20911779236E+03 -0.44176193215E+03 -0.17009694340E+03  0.51751021819E+03  0.00000000000E+00 0.  1.
         11    1    5    5    0    0  0.23204583902E+03  0.31994541755E+03  0.28005936198E+02  0.39622553436E+03  0.00000000000E+00 0. -1.
        -11    1    5    5    0    0  0.49391366621E+02  0.14702450354E+03 -0.13798848807E+02  0.15571165649E+03  0.00000000000E+00 0.  1.
          4    1    6    6  503    0 -0.31109901601E+02  0.66313500123E+02 -0.70517791173E+03  0.70897192713E+03  0.00000000000E+00 0. -1.
         -4    1    6    6    0  503  0.17766137899E+01 -0.13889170899E+02 -0.20409480821E+02  0.24751006691E+02  0.00000000000E+00 0.  1.
<mgrwt>
<rscale>  0 0.16750461E+04</rscale>
<asrwt>0</asrwt>
<pdfrwt beam="1">  1        2 0.21319126E+00 0.16750461E+04</pdfrwt>
<pdfrwt beam="2">  1       -1 0.77874890E-01 0.16750461E+04</pdfrwt>
<totfact> 0.26467588E+01</totfact>
</mgrwt>
</event>
<event>
12    6  0.2087021E-007  0.2336960E+04  0.7818608E-02  0.8463489E-01
          2   -1    0    0  501    0  0.00000000000E+00  0.00000000000E+00  0.18118590593E+04  0.18118590593E+04  0.00000000000E+00 0. -1.
         -1   -1    0    0    0  501 -0.00000000000E+00 -0.00000000000E+00 -0.75356085005E+03  0.75356085005E+03  0.00000000000E+00 0.  1.
         24    2    1    2    0    0 -0.42748362592E+03  0.84636922442E+03  0.13253121225E+03  0.96076296337E+03  0.80111391766E+02 0.  0.
        254    2    1    2    0    0  0.42748362592E+03 -0.84636922442E+03  0.92576699696E+03  0.16046569459E+04  0.90487361936E+03 0.  0.
         23    2    4    4    0    0  0.25436331033E+03 -0.49068689022E+03  0.10410350706E+04  0.11822241909E+04  0.91791619802E+02 0.  0.
         23    2    4    4    0    0  0.17312031559E+03 -0.35568233420E+03 -0.11526807361E+03  0.42243275506E+03  0.93177986752E+02 0.  0.
          4    1    3    3  502    0 -0.69463436116E+02  0.11677088308E+03 -0.75176730481E+01  0.13607763777E+03  0.00000000000E+00 0. -1.
         -3    1    3    3    0  502 -0.35802018981E+03  0.72959834134E+03  0.14004888529E+03  0.82468532560E+03  0.00000000000E+00 0.  1.
         11    1    5    5    0    0  0.10256252228E+02 -0.66113603022E+01  0.55583562462E+01  0.13408807515E+02  0.00000000000E+00 0. -1.
        -11    1    5    5    0    0  0.24410705810E+03 -0.48407552991E+03  0.10354767143E+04  0.11688153834E+04  0.00000000000E+00 0.  1.
          1    1    6    6  503    0 -0.48051375532E+01 -0.36130329419E+02  0.63458853346E+01  0.36996760825E+02  0.00000000000E+00 0. -1.
         -1    1    6    6    0  503  0.17792545314E+03 -0.31955200478E+03 -0.12161395895E+03  0.38543599423E+03  0.00000000000E+00 0.  1.
<mgrwt>
<rscale>  0 0.23369605E+04</rscale>
<asrwt>0</asrwt>
<pdfrwt beam="1">  1        2 0.27874755E+00 0.23369605E+04</pdfrwt>
<pdfrwt beam="2">  1       -1 0.11593244E+00 0.23369605E+04</pdfrwt>
<totfact> 0.58871390E+00</totfact>
</mgrwt>
</event>
<event>
12    6  0.1556619E-007  0.1220615E+04  0.7818608E-02  0.9095001E-01
         -1   -1    0    0    0  501 -0.00000000000E+00  0.00000000000E+00  0.54986512245E+03  0.54986512245E+03  0.00000000000E+00 0.  1.
          2   -1    0    0  501    0  0.00000000000E+00 -0.00000000000E+00 -0.67739347156E+03  0.67739347156E+03  0.00000000000E+00 0. -1.
         24    2    1    2    0    0 -0.21418784689E+02  0.24433419532E+03  0.11672697301E+03  0.28357091813E+03  0.81420611902E+02 0.  0.
        254    2    1    2    0    0  0.21418784689E+02 -0.24433419532E+03 -0.24425532212E+03  0.94368767588E+03  0.87791104554E+03 0.  0.
         23    2    4    4    0    0  0.40060269727E+03  0.31681590202E+02 -0.21601213106E+03  0.46483447204E+03  0.89014613494E+02 0.  0.
         23    2    4    4    0    0 -0.37918391258E+03 -0.27601578552E+03 -0.28243191059E+02  0.47885320384E+03  0.92398915419E+02 0.  0.
          2    1    3    3  502    0  0.23187685409E+01  0.18385705104E+03  0.11819803523E+03  0.21858537791E+03  0.00000000000E+00 0. -1.
         -1    1    3    3    0  502 -0.23737553230E+02  0.60477144284E+02 -0.14710622225E+01  0.64985540224E+02  0.00000000000E+00 0.  1.
         11    1    5    5    0    0  0.13473478431E+03 -0.27599876989E+02 -0.92489831695E+02  0.16573950730E+03  0.00000000000E+00 0.  1.
        -11    1    5    5    0    0  0.26586791295E+03  0.59281467191E+02 -0.12352229936E+03  0.29909496474E+03  0.00000000000E+00 0. -1.
          4    1    6    6  503    0 -0.32045477559E+03 -0.26338959569E+03 -0.61651127232E+01  0.41485340897E+03  0.00000000000E+00 0. -1.
         -4    1    6    6    0  503 -0.58729136982E+02 -0.12626189835E+02 -0.22078078336E+02  0.63999794870E+02  0.00000000000E+00 0.  1.
<mgrwt>
<rscale>  0 0.12206147E+04</rscale>
<asrwt>0</asrwt>
<pdfrwt beam="1">  1        2 0.10421438E+00 0.12206147E+04</pdfrwt>
<pdfrwt beam="2">  1       -1 0.84594635E-01 0.12206147E+04</pdfrwt>
<totfact> 0.66537605E+01</totfact>
</mgrwt>
</event>
<event>
12    6  0.1556619E-007  0.2173842E+04  0.7818608E-02  0.8529395E-01
          2   -1    0    0  501    0  0.00000000000E+00  0.00000000000E+00  0.18802665583E+04  0.18802665583E+04  0.00000000000E+00 0. -1.
         -1   -1    0    0    0  501 -0.00000000000E+00 -0.00000000000E+00 -0.62831372533E+03  0.62831372533E+03  0.00000000000E+00 0.  1.
         24    2    1    2    0    0  0.26025588727E+03  0.83685376302E+03  0.78551416394E+03  0.11793295324E+04  0.75685511962E+02 0.  0.
        254    2    1    2    0    0 -0.26025588727E+03 -0.83685376302E+03  0.46643866902E+03  0.13292507512E+04  0.88390337712E+03 0.  0.
         23    2    4    4    0    0  0.15600961973E+03 -0.15877920935E+03 -0.17928873567E+03  0.30056419236E+03  0.92976041090E+02 0.  0.
         23    2    4    4    0    0 -0.41626550700E+03 -0.67807455367E+03  0.64572740470E+03  0.10286865589E+04  0.90388508846E+02 0.  0.
          4    1    3    3  502    0  0.20516347003E+03  0.59780204822E+03  0.60328335499E+03  0.87373345174E+03  0.00000000000E+00 0. -1.
         -3    1    3    3    0  502  0.55092417242E+02  0.23905171480E+03  0.18223080895E+03  0.30559608067E+03  0.00000000000E+00 0.  1.
         11    1    5    5    0    0  0.36581623896E+02 -0.17645321211E+02  0.32596640811E+01  0.40745527085E+02  0.00000000000E+00 0. -1.
        -11    1    5    5    0    0  0.11942799584E+03 -0.14113388814E+03 -0.18254839975E+03  0.25981866527E+03  0.00000000000E+00 0.  1.
          3    1    6    6  503    0 -0.36840374012E+03 -0.56132266066E+03  0.50835177566E+03  0.84215555150E+03  0.00000000000E+00 0. -1.
         -3    1    6    6    0  503 -0.47861766879E+02 -0.11675189301E+03  0.13737562903E+03  0.18653100735E+03  0.00000000000E+00 0.  1.
<mgrwt>
<rscale>  0 0.21738420E+04</rscale>
<asrwt>0</asrwt>
<pdfrwt beam="1">  1        2 0.28927178E+00 0.21738420E+04</pdfrwt>
<pdfrwt beam="2">  1       -1 0.96663650E-01 0.21738420E+04</pdfrwt>
<totfact> 0.83611924E+00</totfact>
</mgrwt>
</event>
<event>
12    6  0.1556619E-007  0.1483488E+04  0.7818608E-02  0.8895508E-01
          2   -1    0    0  501    0  0.00000000000E+00  0.00000000000E+00  0.82548695968E+03  0.82548695968E+03  0.00000000000E+00 0. -1.
         -1   -1    0    0    0  501 -0.00000000000E+00 -0.00000000000E+00 -0.66649624555E+03  0.66649624555E+03  0.00000000000E+00 0.  1.
         24    2    1    2    0    0 -0.83799696810E+02  0.32258870998E+03  0.37039541583E+03  0.50510162634E+03  0.82758829624E+02 0.  0.
        254    2    1    2    0    0  0.83799696810E+02 -0.32258870998E+03 -0.21140470169E+03  0.98688157889E+03  0.90452055690E+03 0.  0.
         23    2    4    4    0    0 -0.18144994487E+03 -0.37126820825E+03  0.21511348237E+03  0.47382994876E+03  0.86468752131E+02 0.  0.
         23    2    4    4    0    0  0.26524964168E+03  0.48679498270E+02 -0.42651818407E+03  0.51305163013E+03  0.92612892592E+02 0.  0.
          2    1    3    3  502    0 -0.35564598986E+02  0.26622191089E+03  0.30255841686E+03  0.40457451990E+03  0.00000000000E+00 0. -1.
         -1    1    3    3    0  502 -0.48235097824E+02  0.56366799084E+02  0.67836998963E+02  0.10052710644E+03  0.00000000000E+00 0.  1.
         11    1    5    5    0    0 -0.17663969062E+03 -0.28500770787E+03  0.16173532058E+03  0.37227582217E+03  0.00000000000E+00 0. -1.
        -11    1    5    5    0    0 -0.48102542466E+01 -0.86260500377E+02  0.53378161792E+02  0.10155412659E+03  0.00000000000E+00 0.  1.
          4    1    6    6  503    0  0.24465672898E+03  0.50074075497E+02 -0.32720132136E+03  0.41161272183E+03  0.00000000000E+00 0. -1.
         -4    1    6    6    0  503  0.20592912701E+02 -0.13945772276E+01 -0.99316862704E+02  0.10143890830E+03  0.00000000000E+00 0.  1.
<mgrwt>
<rscale>  0 0.14834877E+04</rscale>
<asrwt>0</asrwt>
<pdfrwt beam="1">  1        2 0.12699799E+00 0.14834877E+04</pdfrwt>
<pdfrwt beam="2">  1       -1 0.10253788E+00 0.14834877E+04</pdfrwt>
<totfact> 0.32824058E+01</totfact>
</mgrwt>
</event>
<event>
12    6  0.1556619E-007  0.1559052E+04  0.7818608E-02  0.8846106E-01
         -1   -1    0    0    0  501 -0.00000000000E+00  0.00000000000E+00  0.32121193541E+03  0.32121193541E+03  0.00000000000E+00 0.  1.
          2   -1    0    0  501    0  0.00000000000E+00 -0.00000000000E+00 -0.18917755396E+04  0.18917755396E+04  0.00000000000E+00 0. -1.
         24    2    1    2    0    0 -0.20019562464E+03 -0.85412873206E+02 -0.12046025593E+04  0.12268120436E+04  0.81405266411E+02 0.  0.
        254    2    1    2    0    0  0.20019562464E+03  0.85412873206E+02 -0.36596104492E+03  0.98617543144E+03  0.88951719947E+03 0.  0.
         23    2    4    4    0    0 -0.30947974952E+03 -0.13858621154E+03 -0.15435401999E+03  0.38370680489E+03  0.91770884498E+02 0.  0.
         23    2    4    4    0    0  0.50967537416E+03  0.22399908475E+03 -0.21160702493E+03  0.60246862655E+03  0.90809338654E+02 0.  0.
          4    1    3    3  502    0 -0.13283811210E+03 -0.43532326992E+02 -0.94740139070E+03  0.95765882371E+03  0.00000000000E+00 0. -1.
         -3    1    3    3    0  502 -0.67357512543E+02 -0.41880546214E+02 -0.25720116858E+03  0.26915321987E+03  0.00000000000E+00 0.  1.
         11    1    5    5    0    0 -0.89155334701E+02 -0.62458571121E+02 -0.91687076267E+02  0.14232451218E+03  0.00000000000E+00 0. -1.
        -11    1    5    5    0    0 -0.22032441482E+03 -0.76127640423E+02 -0.62666943725E+02  0.24138229271E+03  0.00000000000E+00 0.  1.
          2    1    6    6  503    0  0.22830730621E+03  0.11447975774E+03 -0.50871680646E+02  0.26041844960E+03  0.00000000000E+00 0. -1.
         -2    1    6    6    0  503  0.28136806795E+03  0.10951932701E+03 -0.16073534428E+03  0.34205017695E+03  0.00000000000E+00 0.  1.
<mgrwt>
<rscale>  0 0.15590521E+04</rscale>
<asrwt>0</asrwt>
<pdfrwt beam="1">  1        2 0.29104239E+00 0.15590521E+04</pdfrwt>
<pdfrwt beam="2">  1       -1 0.49417220E-01 0.15590521E+04</pdfrwt>
<totfact> 0.34515384E+01</totfact>
</mgrwt>
</event>
<event>
12    6  0.1556619E-007  0.1293123E+04  0.7818608E-02  0.9035037E-01
          2   -1    0    0  501    0  0.00000000000E+00  0.00000000000E+00  0.39237105051E+03  0.39237105051E+03  0.00000000000E+00 0. -1.
         -1   -1    0    0    0  501 -0.00000000000E+00 -0.00000000000E+00 -0.10654243825E+04  0.10654243825E+04  0.00000000000E+00 0.  1.
         24    2    1    2    0    0  0.25814072768E+03 -0.16172646106E+03 -0.42214731037E+02  0.31784127029E+03  0.80305081330E+02 0.  0.
        254    2    1    2    0    0 -0.25814072768E+03  0.16172646106E+03 -0.63083860093E+03  0.11399541627E+04  0.89930310191E+03 0.  0.
         23    2    4    4    0    0 -0.57845729475E+03  0.16195667766E+02 -0.35022397133E+03  0.68219363360E+03  0.88635106662E+02 0.  0.
         23    2    4    4    0    0  0.32031656706E+03  0.14553079330E+03 -0.28061462960E+03  0.45776052909E+03  0.83774797601E+02 0.  0.
          4    1    3    3  502    0 -0.57807802940E+00  0.63465741415E+01  0.43794334929E+00  0.63878769493E+01  0.00000000000E+00 0. -1.
         -3    1    3    3    0  502  0.25871880571E+03 -0.16807303521E+03 -0.42652674386E+02  0.31145339334E+03  0.00000000000E+00 0.  1.
         11    1    5    5    0    0 -0.51851100869E+03  0.34727679795E+02 -0.28947037471E+03  0.59485525610E+03  0.00000000000E+00 0. -1.
        -11    1    5    5    0    0 -0.59946286052E+02 -0.18532012029E+02 -0.60753596626E+02  0.87338377500E+02  0.00000000000E+00 0.  1.
          1    1    6    6  503    0  0.31979755006E+03  0.12854120840E+03 -0.26715216707E+03  0.43607751106E+03  0.00000000000E+00 0. -1.
         -1    1    6    6    0  503  0.51901700779E+00  0.16989584898E+02 -0.13462462529E+02  0.21683018033E+02  0.00000000000E+00 0.  1.
<mgrwt>
<rscale>  0 0.12931229E+04</rscale>
<asrwt>0</asrwt>
<pdfrwt beam="1">  1        2 0.60364778E-01 0.12931229E+04</pdfrwt>
<pdfrwt beam="2">  1       -1 0.16391144E+00 0.12931229E+04</pdfrwt>
<totfact> 0.24904670E+01</totfact>
</mgrwt>
</event>
<event>
12    6  0.1556619E-007  0.2304552E+04  0.7818608E-02  0.8476128E-01
          2   -1    0    0  501    0  0.00000000000E+00  0.00000000000E+00  0.34142776211E+04  0.34142776211E+04  0.00000000000E+00 0. -1.
         -1   -1    0    0    0  501 -0.00000000000E+00 -0.00000000000E+00 -0.38887886400E+03  0.38887886400E+03  0.00000000000E+00 0.  1.
         24    2    1    2    0    0 -0.32661767510E+03 -0.47958830177E+03 -0.12645176456E+02  0.58571919523E+03  0.78886185631E+02 0.  0.
        254    2    1    2    0    0  0.32661767510E+03  0.47958830177E+03  0.30380439336E+04  0.32174372899E+04  0.88628873801E+03 0.  0.
         23    2    4    4    0    0 -0.70158846412E+02  0.53413775155E+03  0.10137240556E+04  0.11518816064E+04  0.94706773163E+02 0.  0.
         23    2    4    4    0    0  0.39677652152E+03 -0.54549449779E+02  0.20243198780E+04  0.20655556835E+04  0.90785806823E+02 0.  0.
          2    1    3    3  502    0 -0.12478587539E+03 -0.14545018615E+03  0.26202485253E+02  0.19342657930E+03  0.00000000000E+00 0. -1.
         -1    1    3    3    0  502 -0.20183179971E+03 -0.33413811563E+03 -0.38847661709E+02  0.39229261592E+03  0.00000000000E+00 0.  1.
         11    1    5    5    0    0 -0.16040952425E+00  0.22383824152E+03  0.49725209824E+03  0.54531021749E+03  0.00000000000E+00 0. -1.
        -11    1    5    5    0    0 -0.69998436888E+02  0.31029951003E+03  0.51647195732E+03  0.60657138887E+03  0.00000000000E+00 0.  1.
          1    1    6    6  503    0  0.15655868373E+03 -0.41528109245E+00  0.59901682388E+03  0.61913806958E+03  0.00000000000E+00 0. -1.
         -1    1    6    6    0  503  0.24021783778E+03 -0.54134168687E+02  0.14253030541E+04  0.14464176139E+04  0.00000000000E+00 0.  1.
<mgrwt>
<rscale>  0 0.23045524E+04</rscale>
<asrwt>0</asrwt>
<pdfrwt beam="1">  1        2 0.52527346E+00 0.23045524E+04</pdfrwt>
<pdfrwt beam="2">  1       -1 0.59827520E-01 0.23045524E+04</pdfrwt>
<totfact> 0.27285987E+00</totfact>
</mgrwt>
</event>
<event>
12    6  0.1556619E-007  0.2239226E+04  0.7818608E-02  0.8502276E-01
         -1   -1    0    0    0  501 -0.00000000000E+00  0.00000000000E+00  0.99180692627E+03  0.99180692627E+03  0.00000000000E+00 0.  1.
          2   -1    0    0  501    0  0.00000000000E+00 -0.00000000000E+00 -0.12638887647E+04  0.12638887647E+04  0.00000000000E+00 0. -1.
         24    2    1    2    0    0  0.11477997081E+03 -0.52657595927E+03  0.65903959656E+03  0.85504653408E+03  0.79465105707E+02 0.  0.
        254    2    1    2    0    0 -0.11477997081E+03  0.52657595927E+03 -0.93112143499E+03  0.14006491569E+04  0.89686913842E+03 0.  0.
         23    2    4    4    0    0  0.13239013879E+03  0.32664768715E+03  0.48525172108E+02  0.36645406292E+03  0.87795373103E+02 0.  0.
         23    2    4    4    0    0 -0.24717010960E+03  0.19992827212E+03 -0.97964660710E+03  0.10341950940E+04  0.93742415887E+02 0.  0.
          2    1    3    3  502    0  0.39172958428E+02 -0.12470725870E+03  0.21316498126E+03  0.25005145526E+03  0.00000000000E+00 0. -1.
         -1    1    3    3    0  502  0.75607012382E+02 -0.40186870057E+03  0.44587461530E+03  0.60499507881E+03  0.00000000000E+00 0.  1.
         11    1    5    5    0    0  0.72023974178E+02  0.26755542207E+03  0.51958575854E+02  0.28190964925E+03  0.00000000000E+00 0.  1.
        -11    1    5    5    0    0  0.60366164615E+02  0.59092265072E+02 -0.34334037463E+01  0.84544413671E+02  0.00000000000E+00 0. -1.
          4    1    6    6  503    0 -0.21643835738E+03  0.15606809305E+03 -0.89585435657E+03  0.93475014865E+03  0.00000000000E+00 0.  1.
         -4    1    6    6    0  503 -0.30731752221E+02  0.43860179076E+02 -0.83792250526E+02  0.99444945329E+02  0.00000000000E+00 0. -1.
<mgrwt>
<rscale>  0 0.22392263E+04</rscale>
<asrwt>0</asrwt>
<pdfrwt beam="1">  1        2 0.19444443E+00 0.22392263E+04</pdfrwt>
<pdfrwt beam="2">  1       -1 0.15258568E+00 0.22392263E+04</pdfrwt>
<totfact> 0.60046329E+00</totfact>
</mgrwt>
</event>
<event>
12    6  0.1556619E-007  0.2279923E+04  0.7818608E-02  0.8485879E-01
         -1   -1    0    0    0  501 -0.00000000000E+00  0.00000000000E+00  0.75143605486E+03  0.75143605486E+03  0.00000000000E+00 0.  1.
          2   -1    0    0  501    0  0.00000000000E+00 -0.00000000000E+00 -0.17293718554E+04  0.17293718554E+04  0.00000000000E+00 0. -1.
         24    2    1    2    0    0  0.93801190288E+02  0.89826599303E+03 -0.77480135698E+03  0.11928197250E+04  0.82591137618E+02 0.  0.
        254    2    1    2    0    0 -0.93801190288E+02 -0.89826599303E+03 -0.20313444360E+03  0.12879881853E+04  0.89552750141E+03 0.  0.
         23    2    4    4    0    0  0.35384874289E+02 -0.43018790659E+03  0.33751823033E+03  0.55549153291E+03  0.91315732616E+02 0.  0.
         23    2    4    4    0    0 -0.12918606458E+03 -0.46807808644E+03 -0.54065267393E+03  0.73249665240E+03  0.91977701952E+02 0.  0.
          4    1    3    3  502    0  0.79866597781E+02  0.66258603966E+03 -0.52524442368E+03  0.84928242534E+03  0.00000000000E+00 0. -1.
         -3    1    3    3    0  502  0.13934592507E+02  0.23567995338E+03 -0.24955693331E+03  0.34353729965E+03  0.00000000000E+00 0.  1.
         11    1    5    5    0    0  0.27466270089E+02 -0.35882591543E+02  0.21140381862E+02  0.49888597031E+02  0.00000000000E+00 0.  1.
        -11    1    5    5    0    0  0.79186042006E+01 -0.39430531505E+03  0.31637784847E+03  0.50560293588E+03  0.00000000000E+00 0. -1.
          2    1    6    6  503    0 -0.84274388360E+02 -0.15355246667E+03 -0.21834798617E+03  0.27992208848E+03  0.00000000000E+00 0. -1.
         -2    1    6    6    0  503 -0.44911676217E+02 -0.31452561977E+03 -0.32230468776E+03  0.45257456391E+03  0.00000000000E+00 0.  1.
<mgrwt>
<rscale>  0 0.22799231E+04</rscale>
<asrwt>0</asrwt>
<pdfrwt beam="1">  1        2 0.26605721E+00 0.22799231E+04</pdfrwt>
<pdfrwt beam="2">  1       -1 0.11560555E+00 0.22799231E+04</pdfrwt>
<totfact> 0.66189994E+00</totfact>
</mgrwt>
</event>
<event>
12    6  0.1556619E-007  0.1235587E+04  0.7818608E-02  0.9082265E-01
         -1   -1    0    0    0  501 -0.00000000000E+00  0.00000000000E+00  0.20761222400E+04  0.20761222400E+04  0.00000000000E+00 0.  1.
          2   -1    0    0  501    0  0.00000000000E+00 -0.00000000000E+00 -0.18383734808E+03  0.18383734808E+03  0.00000000000E+00 0. -1.
         24    2    1    2    0    0  0.13013694882E+03  0.13283498974E+03  0.75106806950E+03  0.77789767640E+03  0.80254532482E+02 0.  0.
        254    2    1    2    0    0 -0.13013694882E+03 -0.13283498974E+03  0.11412168224E+04  0.14820619117E+04  0.92711968716E+03 0.  0.
         23    2    4    4    0    0 -0.43230389637E+03  0.13745605910E+03  0.32285716656E+03  0.56393872009E+03  0.89494709422E+02 0.  0.
         23    2    4    4    0    0  0.30216694755E+03 -0.27029104883E+03  0.81835965582E+03  0.91812319157E+03  0.94210155207E+02 0.  0.
          4    1    3    3  502    0  0.82124897250E+02  0.73275120777E+02  0.28354831129E+03  0.30416013366E+03  0.00000000000E+00 0. -1.
         -3    1    3    3    0  502  0.48012051567E+02  0.59559868961E+02  0.46751975820E+03  0.47373754274E+03  0.00000000000E+00 0.  1.
         11    1    5    5    0    0 -0.42260554841E+03  0.14006656683E+03  0.32767693162E+03  0.55279857471E+03  0.00000000000E+00 0. -1.
        -11    1    5    5    0    0 -0.96983479572E+01 -0.26105077360E+01 -0.48197650544E+01  0.11140145372E+02  0.00000000000E+00 0.  1.
          3    1    6    6  503    0  0.22334719067E+03 -0.24032703221E+03  0.59640960145E+03  0.68069483815E+03  0.00000000000E+00 0. -1.
         -3    1    6    6    0  503  0.78819756881E+02 -0.29964016620E+02  0.22195005438E+03  0.23742835341E+03  0.00000000000E+00 0.  1.
<mgrwt>
<rscale>  0 0.12355870E+04</rscale>
<asrwt>0</asrwt>
<pdfrwt beam="1">  1        2 0.28282670E-01 0.12355870E+04</pdfrwt>
<pdfrwt beam="2">  1       -1 0.31940341E+00 0.12355870E+04</pdfrwt>
<totfact> 0.53531804E+00</totfact>
</mgrwt>
</event>
<event>
12    6  0.1556619E-007  0.2031811E+04  0.7818608E-02  0.8591891E-01
          2   -1    0    0  501    0  0.00000000000E+00  0.00000000000E+00  0.18734616046E+04  0.18734616046E+04  0.00000000000E+00 0. -1.
         -1   -1    0    0    0  501 -0.00000000000E+00 -0.00000000000E+00 -0.55088631610E+03  0.55088631610E+03  0.00000000000E+00 0.  1.
         24    2    1    2    0    0  0.78995543328E+02  0.75351212151E+03  0.88657951473E+03  0.11690023790E+04  0.80762076086E+02 0.  0.
        254    2    1    2    0    0 -0.78995543328E+02 -0.75351212151E+03  0.43599577375E+03  0.12553455417E+04  0.90098795845E+03 0.  0.
         23    2    4    4    0    0 -0.38938302331E+03 -0.10070690932E+03  0.13124856687E+02  0.41246002923E+03  0.90498582456E+02 0.  0.
         23    2    4    4    0    0  0.31038747998E+03 -0.65280521220E+03  0.42287091707E+03  0.84288551250E+03  0.95609319016E+02 0.  0.
          4    1    3    3  502    0  0.59145360253E+02  0.71489966858E+03  0.81962790937E+03  0.10892059583E+04  0.00000000000E+00 0. -1.
         -3    1    3    3    0  502  0.19850183075E+02  0.38612452938E+02  0.66951605359E+02  0.79796420660E+02  0.00000000000E+00 0.  1.
         11    1    5    5    0    0 -0.11725733377E+03 -0.39443635210E+02 -0.36843092029E+02  0.12908329137E+03  0.00000000000E+00 0. -1.
        -11    1    5    5    0    0 -0.27212568954E+03 -0.61263274107E+02  0.49967948716E+02  0.28337673786E+03  0.00000000000E+00 0.  1.
          4    1    6    6  503    0  0.18072031619E+02 -0.74530137909E+02  0.75800723921E+02  0.10782898279E+03  0.00000000000E+00 0. -1.
         -4    1    6    6    0  503  0.29231544836E+03 -0.57827507429E+03  0.34707019314E+03  0.73505652970E+03  0.00000000000E+00 0.  1.
<mgrwt>
<rscale>  0 0.20318114E+04</rscale>
<asrwt>0</asrwt>
<pdfrwt beam="1">  1        2 0.28822486E+00 0.20318114E+04</pdfrwt>
<pdfrwt beam="2">  1       -1 0.84751742E-01 0.20318114E+04</pdfrwt>
<totfact> 0.11419658E+01</totfact>
</mgrwt>
</event>
<event>
12    6  0.1556619E-007  0.2860334E+04  0.7818608E-02  0.8284778E-01
         -1   -1    0    0    0  501 -0.00000000000E+00  0.00000000000E+00  0.13977865500E+04  0.13977865500E+04  0.00000000000E+00 0.  1.
          2   -1    0    0  501    0  0.00000000000E+00 -0.00000000000E+00 -0.14632972209E+04  0.14632972209E+04  0.00000000000E+00 0. -1.
         24    2    1    2    0    0  0.82233078670E+03 -0.96871435867E+03  0.15611262780E+03  0.12827426546E+04  0.80138217309E+02 0.  0.
        254    2    1    2    0    0 -0.82233078670E+03  0.96871435867E+03 -0.22162329869E+03  0.15783411162E+04  0.90961989932E+03 0.  0.
         23    2    4    4    0    0 -0.91503612446E+03  0.10486318844E+04 -0.13066684364E+03  0.14003683608E+04  0.83891499912E+02 0.  0.
         23    2    4    4    0    0  0.92705337763E+02 -0.79917525738E+02 -0.90956455059E+02  0.17797275547E+03  0.91761290324E+02 0.  0.
          4    1    3    3  502    0  0.36527440590E+03 -0.40298357532E+03  0.10258948202E+03  0.55348509953E+03  0.00000000000E+00 0. -1.
         -3    1    3    3    0  502  0.45705638080E+03 -0.56573078335E+03  0.53523145777E+02  0.72925755505E+03  0.00000000000E+00 0.  1.
         11    1    5    5    0    0 -0.36231494354E+03  0.35694756551E+03 -0.34857813016E+02  0.50980265786E+03  0.00000000000E+00 0.  1.
        -11    1    5    5    0    0 -0.55272118092E+03  0.69168431890E+03 -0.95809030619E+02  0.89056570291E+03  0.00000000000E+00 0. -1.
          1    1    6    6  503    0  0.61029819215E+02 -0.84056242304E+02 -0.10059965817E+03  0.14460422514E+03  0.00000000000E+00 0. -1.
         -1    1    6    6    0  503  0.31675518548E+02  0.41387165654E+01  0.96432031123E+01  0.33368530330E+02  0.00000000000E+00 0.  1.
<mgrwt>
<rscale>  0 0.28603337E+04</rscale>
<asrwt>0</asrwt>
<pdfrwt beam="1">  1        2 0.22512265E+00 0.28603337E+04</pdfrwt>
<pdfrwt beam="2">  1       -1 0.21504408E+00 0.28603337E+04</pdfrwt>
<totfact> 0.15603903E+00</totfact>
</mgrwt>
</event>
<event>
12    6  0.1556619E-007  0.1648265E+04  0.7818608E-02  0.8791434E-01
          2   -1    0    0  501    0  0.00000000000E+00  0.00000000000E+00  0.37834376944E+04  0.37834376944E+04  0.00000000000E+00 0. -1.
         -1   -1    0    0    0  501 -0.00000000000E+00 -0.00000000000E+00 -0.17951769407E+03  0.17951769407E+03  0.00000000000E+00 0.  1.
         24    2    1    2    0    0  0.21588962382E+03  0.54974680203E+03  0.13307635276E+04  0.14581662092E+04  0.80543474193E+02 0.  0.
        254    2    1    2    0    0 -0.21588962382E+03 -0.54974680203E+03  0.22731564727E+04  0.25047891792E+04  0.87057372293E+03 0.  0.
         23    2    4    4    0    0 -0.22034390154E+03 -0.71636464761E+03  0.21553201761E+04  0.22836606012E+04  0.89280102493E+02 0.  0.
         23    2    4    4    0    0  0.44542777256E+01  0.16661784558E+03  0.11783629658E+03  0.22112857802E+03  0.85035922816E+02 0.  0.
          4    1    3    3  502    0  0.17719167999E+02  0.86214952131E+01  0.49210653839E+02  0.53009315649E+02  0.00000000000E+00 0. -1.
         -3    1    3    3    0  502  0.19817045582E+03  0.54112530682E+03  0.12815528738E+04  0.14051568936E+04  0.00000000000E+00 0.  1.
         11    1    5    5    0    0 -0.11055918737E+03 -0.38734636743E+03  0.10246398413E+04  0.11009756340E+04  0.00000000000E+00 0.  1.
        -11    1    5    5    0    0 -0.10978471418E+03 -0.32901828018E+03  0.11306803348E+04  0.11826849672E+04  0.00000000000E+00 0. -1.
          1    1    6    6  503    0 -0.59912728647E+01  0.14208258025E+03  0.54299647503E+02  0.15222288487E+03  0.00000000000E+00 0. -1.
         -1    1    6    6    0  503  0.10445550590E+02  0.24535265331E+02  0.63536649072E+02  0.68905693142E+02  0.00000000000E+00 0.  1.
<mgrwt>
<rscale>  0 0.16482646E+04</rscale>
<asrwt>0</asrwt>
<pdfrwt beam="1">  1        2 0.58206728E+00 0.16482646E+04</pdfrwt>
<pdfrwt beam="2">  1       -1 0.27618110E-01 0.16482646E+04</pdfrwt>
<totfact> 0.65831786E+00</totfact>
</mgrwt>
</event>
<event>
12    6  0.1556619E-007  0.1584613E+04  0.7818608E-02  0.8830057E-01
          2   -1    0    0  501    0  0.00000000000E+00  0.00000000000E+00  0.12402090404E+04  0.12402090404E+04  0.00000000000E+00 0. -1.
         -1   -1    0    0    0  501 -0.00000000000E+00 -0.00000000000E+00 -0.50616437293E+03  0.50616437293E+03  0.00000000000E+00 0.  1.
         24    2    1    2    0    0 -0.12438725564E+02  0.15569713843E+03  0.80197227463E+03  0.82096127351E+03  0.80134652506E+02 0.  0.
        254    2    1    2    0    0  0.12438725564E+02 -0.15569713843E+03 -0.67927607128E+02  0.92541213984E+03  0.90960274183E+03 0.  0.
         23    2    4    4    0    0 -0.35061081743E+03  0.17971979933E+03  0.54260018034E+02  0.40835138409E+03  0.92625869819E+02 0.  0.
         23    2    4    4    0    0  0.36304954299E+03 -0.33541693776E+03 -0.12218762516E+03  0.51706075576E+03  0.90069509825E+02 0.  0.
          4    1    3    3  502    0 -0.25745311641E+02  0.14939544644E+03  0.77943607593E+03  0.79404182317E+03  0.00000000000E+00 0. -1.
         -3    1    3    3    0  502  0.13306586077E+02  0.63016919908E+01  0.22536198698E+02  0.26919450343E+02  0.00000000000E+00 0.  1.
         11    1    5    5    0    0 -0.12407551406E+03  0.69754774840E+02 -0.24659805094E+02  0.14445957147E+03  0.00000000000E+00 0. -1.
        -11    1    5    5    0    0 -0.22653530337E+03  0.10996502449E+03  0.78919823128E+02  0.26389181262E+03  0.00000000000E+00 0.  1.
          4    1    6    6  503    0  0.24777292827E+03 -0.22221287930E+03 -0.38310514481E+02  0.33501892966E+03  0.00000000000E+00 0. -1.
         -4    1    6    6    0  503  0.11527661472E+03 -0.11320405846E+03 -0.83877110680E+02  0.18204182610E+03  0.00000000000E+00 0.  1.
<mgrwt>
<rscale>  0 0.15846131E+04</rscale>
<asrwt>0</asrwt>
<pdfrwt beam="1">  1        2 0.19080139E+00 0.15846131E+04</pdfrwt>
<pdfrwt beam="2">  1       -1 0.77871442E-01 0.15846131E+04</pdfrwt>
<totfact> 0.32414780E+01</totfact>
</mgrwt>
</event>
<event>
12    6  0.1556619E-007  0.1522496E+04  0.7818608E-02  0.8869630E-01
         -1   -1    0    0    0  501 -0.00000000000E+00  0.00000000000E+00  0.48003537071E+03  0.48003537071E+03  0.00000000000E+00 0.  1.
          2   -1    0    0  501    0  0.00000000000E+00 -0.00000000000E+00 -0.12071997483E+04  0.12071997483E+04  0.00000000000E+00 0. -1.
         24    2    1    2    0    0  0.28956534149E+03  0.16980890050E+03 -0.63332604848E+03  0.72127287241E+03  0.80308922923E+02 0.  0.
        254    2    1    2    0    0 -0.28956534149E+03 -0.16980890050E+03 -0.93838329132E+02  0.96596224663E+03  0.90088527584E+03 0.  0.
         23    2    4    4    0    0 -0.89659698626E+02 -0.46506931325E+03 -0.27508921250E+03  0.55579069424E+03  0.94344545592E+02 0.  0.
         23    2    4    4    0    0 -0.19990564287E+03  0.29526041275E+03  0.18125088337E+03  0.41017155240E+03  0.90817632020E+02 0.  0.
          4    1    3    3  502    0  0.84220511500E+02  0.49895310081E+02 -0.26853496372E+03  0.28582103363E+03  0.00000000000E+00 0. -1.
         -3    1    3    3    0  502  0.20534482999E+03  0.11991359042E+03 -0.36479108476E+03  0.43545183878E+03  0.00000000000E+00 0.  1.
         11    1    5    5    0    0 -0.10115553541E+03 -0.42925032799E+03 -0.27177824337E+03  0.51802673675E+03  0.00000000000E+00 0. -1.
        -11    1    5    5    0    0  0.11495836786E+02 -0.35818985256E+02 -0.33109691379E+01  0.37763957483E+02  0.00000000000E+00 0.  1.
          4    1    6    6  503    0 -0.11657437081E+03  0.24008715813E+03  0.11737680495E+03  0.29156258637E+03  0.00000000000E+00 0. -1.
         -4    1    6    6    0  503 -0.83331272061E+02  0.55173254615E+02  0.63874078422E+02  0.11860896603E+03  0.00000000000E+00 0.  1.
<mgrwt>
<rscale>  0 0.15224961E+04</rscale>
<asrwt>0</asrwt>
<pdfrwt beam="1">  1        2 0.18572304E+00 0.15224961E+04</pdfrwt>
<pdfrwt beam="2">  1       -1 0.73851597E-01 0.15224961E+04</pdfrwt>
<totfact> 0.38090180E+01</totfact>
</mgrwt>
</event>
<event>
12    6  0.1556619E-007  0.2965187E+04  0.7818608E-02  0.8253742E-01
         -1   -1    0    0    0  501 -0.00000000000E+00  0.00000000000E+00  0.13170836871E+04  0.13170836871E+04  0.00000000000E+00 0.  1.
          2   -1    0    0  501    0  0.00000000000E+00 -0.00000000000E+00 -0.16689020542E+04  0.16689020542E+04  0.00000000000E+00 0. -1.
         24    2    1    2    0    0  0.63576130691E+03  0.11746578765E+04 -0.10947946654E+02  0.13382308590E+04  0.82026875055E+02 0.  0.
        254    2    1    2    0    0 -0.63576130691E+03 -0.11746578765E+04 -0.34087042048E+03  0.16477548824E+04  0.90271254710E+03 0.  0.
         23    2    4    4    0    0 -0.27076254635E+03  0.68140339504E+02 -0.16608928955E+03  0.33765073182E+03  0.92015771573E+02 0.  0.
         23    2    4    4    0    0 -0.36499876056E+03 -0.12427982160E+04 -0.17478113092E+03  0.13101041505E+04  0.89738178699E+02 0.  0.
          2    1    3    3  502    0  0.42633093865E+03  0.83486983750E+03 -0.37767288813E+02  0.93818552692E+03  0.00000000000E+00 0. -1.
         -3    1    3    3    0  502  0.20943036826E+03  0.33978803897E+03  0.26819342159E+02  0.40004533205E+03  0.00000000000E+00 0.  1.
         11    1    5    5    0    0 -0.21348778029E+03  0.45115248177E+02 -0.16878270155E+03  0.27586231764E+03  0.00000000000E+00 0.  1.
        -11    1    5    5    0    0 -0.57274766066E+02  0.23025091326E+02  0.26934120004E+01  0.61788414179E+02  0.00000000000E+00 0. -1.
          2    1    6    6  503    0 -0.24334539707E+03 -0.92532948339E+03 -0.15765147729E+03  0.96969357191E+03  0.00000000000E+00 0. -1.
         -2    1    6    6    0  503 -0.12165336349E+03 -0.31746873259E+03 -0.17129653637E+02  0.34041057864E+03  0.00000000000E+00 0.  1.
<mgrwt>
<rscale>  0 0.29651871E+04</rscale>
<asrwt>0</asrwt>
<pdfrwt beam="1">  1        2 0.25675416E+00 0.29651871E+04</pdfrwt>
<pdfrwt beam="2">  1       -1 0.20262826E+00 0.29651871E+04</pdfrwt>
<totfact> 0.14397715E+00</totfact>
</mgrwt>
</event>
<event>
12    6  0.1556619E-007  0.1377732E+04  0.7818608E-02  0.8970097E-01
         -1   -1    0    0    0  501 -0.00000000000E+00  0.00000000000E+00  0.32932587483E+03  0.32932587483E+03  0.00000000000E+00 0.  1.
          2   -1    0    0  501    0  0.00000000000E+00 -0.00000000000E+00 -0.14409329346E+04  0.14409329346E+04  0.00000000000E+00 0. -1.
         24    2    1    2    0    0  0.11672243012E+03 -0.13883204073E+03 -0.74115644940E+03  0.76716883415E+03  0.79603243499E+02 0.  0.
        254    2    1    2    0    0 -0.11672243012E+03  0.13883204073E+03 -0.37045061035E+03  0.10030899753E+04  0.91436173506E+03 0.  0.
         23    2    4    4    0    0 -0.42539333269E+03  0.56009794575E+02  0.77216042033E+02  0.44551830117E+03  0.91802259984E+02 0.  0.
         23    2    4    4    0    0  0.30867090257E+03  0.82822246150E+02 -0.44766665239E+03  0.55757167410E+03  0.91342703866E+02 0.  0.
          2    1    3    3  502    0  0.96599605066E+02 -0.95994531126E+02 -0.65362223910E+03  0.66765894374E+03  0.00000000000E+00 0. -1.
         -1    1    3    3    0  502  0.20122825057E+02 -0.42837509599E+02 -0.87534210299E+02  0.99509890411E+02  0.00000000000E+00 0.  1.
         11    1    5    5    0    0 -0.27238181150E+03  0.75139366824E+02  0.29446772251E+02  0.28408605752E+03  0.00000000000E+00 0.  1.
        -11    1    5    5    0    0 -0.15301152120E+03 -0.19129572248E+02  0.47769269781E+02  0.16143224365E+03  0.00000000000E+00 0. -1.
          3    1    6    6  503    0  0.15891028652E+03  0.67998807283E+02 -0.30293046294E+03  0.34877382690E+03  0.00000000000E+00 0. -1.
         -3    1    6    6    0  503  0.14976061605E+03  0.14823438868E+02 -0.14473618945E+03  0.20879784720E+03  0.00000000000E+00 0.  1.
<mgrwt>
<rscale>  0 0.13777322E+04</rscale>
<asrwt>0</asrwt>
<pdfrwt beam="1">  1        2 0.22168199E+00 0.13777322E+04</pdfrwt>
<pdfrwt beam="2">  1       -1 0.50665519E-01 0.13777322E+04</pdfrwt>
<totfact> 0.59611058E+01</totfact>
</mgrwt>
</event>
<event>
12    6  0.1556619E-007  0.1535334E+04  0.7818608E-02  0.8861290E-01
         -1   -1    0    0    0  501 -0.00000000000E+00  0.00000000000E+00  0.83449751833E+03  0.83449751833E+03  0.00000000000E+00 0.  1.
          2   -1    0    0  501    0  0.00000000000E+00 -0.00000000000E+00 -0.70618842033E+03  0.70618842033E+03  0.00000000000E+00 0. -1.
         24    2    1    2    0    0  0.46120039934E+03 -0.64564613275E+02 -0.11902822059E+03  0.48662149072E+03  0.75883860599E+02 0.  0.
        254    2    1    2    0    0 -0.46120039934E+03  0.64564613275E+02  0.24733731859E+03  0.10540644479E+04  0.91268927549E+03 0.  0.
         23    2    4    4    0    0 -0.90343922869E+02 -0.21675785062E+03 -0.25789581043E+03  0.36102206952E+03  0.93170249734E+02 0.  0.
         23    2    4    4    0    0 -0.37085647647E+03  0.28132246389E+03  0.50523312902E+03  0.69304237842E+03  0.91489719635E+02 0.  0.
          2    1    3    3  502    0  0.13025994696E+03 -0.59592376349E+00 -0.35060037136E+01  0.13030848388E+03  0.00000000000E+00 0. -1.
         -1    1    3    3    0  502  0.33094045237E+03 -0.63968689511E+02 -0.11552221688E+03  0.35631300685E+03  0.00000000000E+00 0.  1.
         11    1    5    5    0    0 -0.64959890346E+02 -0.19003987599E+03 -0.25422860951E+03  0.32398630791E+03  0.00000000000E+00 0. -1.
        -11    1    5    5    0    0 -0.25384032522E+02 -0.26717974627E+02 -0.36672009261E+01  0.37035761608E+02  0.00000000000E+00 0.  1.
          2    1    6    6  503    0  0.54851763543E+01  0.28255420884E+01  0.55904872138E+01  0.83261272521E+01  0.00000000000E+00 0.  1.
         -2    1    6    6    0  503 -0.37634165282E+03  0.27849692180E+03  0.49964264181E+03  0.68471625117E+03  0.00000000000E+00 0. -1.
<mgrwt>
<rscale>  0 0.15353338E+04</rscale>
<asrwt>0</asrwt>
<pdfrwt beam="1">  1        2 0.10864437E+00 0.15353338E+04</pdfrwt>
<pdfrwt beam="2">  1       -1 0.12838423E+00 0.15353338E+04</pdfrwt>
<totfact> 0.23345554E+01</totfact>
</mgrwt>
</event>
<event>
12    6  0.1556619E-007  0.2043054E+04  0.7818608E-02  0.8586752E-01
          2   -1    0    0  501    0  0.00000000000E+00  0.00000000000E+00  0.10566713234E+04  0.10566713234E+04  0.00000000000E+00 0. -1.
         -1   -1    0    0    0  501 -0.00000000000E+00 -0.00000000000E+00 -0.98755125537E+03  0.98755125537E+03  0.00000000000E+00 0.  1.
         24    2    1    2    0    0  0.20121427752E+01 -0.75770287142E+03 -0.28622967564E+03  0.81390287488E+03  0.79954815001E+02 0.  0.
        254    2    1    2    0    0 -0.20121427752E+01  0.75770287142E+03  0.35534974369E+03  0.12303197039E+04  0.90182894353E+03 0.  0.
         23    2    4    4    0    0  0.26489076722E+03  0.71307853269E+03 -0.93058810816E+01  0.76734095807E+03  0.10038642420E+03 0.  0.
         23    2    4    4    0    0 -0.26690290999E+03  0.44624338733E+02  0.36465562477E+03  0.46297874584E+03  0.90261284344E+02 0.  0.
          4    1    3    3  502    0  0.16298973254E+02 -0.51581260374E+02 -0.74437006624E+01  0.54604868193E+02  0.00000000000E+00 0. -1.
         -3    1    3    3    0  502 -0.14286830479E+02 -0.70612161105E+03 -0.27878597498E+03  0.75929800669E+03  0.00000000000E+00 0.  1.
         11    1    5    5    0    0  0.20040315007E+03  0.39735138977E+03 -0.33457410301E+01  0.44504015941E+03  0.00000000000E+00 0. -1.
        -11    1    5    5    0    0  0.64487617152E+02  0.31572714292E+03 -0.59601400515E+01  0.32230079865E+03  0.00000000000E+00 0.  1.
          3    1    6    6  503    0 -0.22011230432E+03  0.66104074963E+02  0.32471329292E+03  0.39781641223E+03  0.00000000000E+00 0. -1.
         -3    1    6    6    0  503 -0.46790605670E+02 -0.21479736230E+02  0.39942331847E+02  0.65162333605E+02  0.00000000000E+00 0.  1.
<mgrwt>
<rscale>  0 0.20430537E+04</rscale>
<asrwt>0</asrwt>
<pdfrwt beam="1">  1        2 0.16256482E+00 0.20430537E+04</pdfrwt>
<pdfrwt beam="2">  1       -1 0.15193096E+00 0.20430537E+04</pdfrwt>
<totfact> 0.82506281E+00</totfact>
</mgrwt>
</event>
<event>
12    6  0.1556619E-007  0.1517308E+04  0.7818608E-02  0.8873024E-01
         -1   -1    0    0    0  501 -0.00000000000E+00  0.00000000000E+00  0.55917529552E+03  0.55917529552E+03  0.00000000000E+00 0.  1.
          2   -1    0    0  501    0  0.00000000000E+00 -0.00000000000E+00 -0.10292937160E+04  0.10292937160E+04  0.00000000000E+00 0. -1.
         24    2    1    2    0    0 -0.21210545731E+03 -0.38217866622E+03 -0.36028169175E+03  0.57213737977E+03  0.80554490773E+02 0.  0.
        254    2    1    2    0    0  0.21210545731E+03  0.38217866622E+03 -0.10983672874E+03  0.10163316318E+04  0.91094270996E+03 0.  0.
         23    2    4    4    0    0  0.21964613526E+03 -0.25361826821E+03  0.57872033867E+02  0.35249137550E+03  0.91292643702E+02 0.  0.
         23    2    4    4    0    0 -0.75406779533E+01  0.63579693443E+03 -0.16770876261E+03  0.66384025627E+03  0.90901337362E+02 0.  0.
          4    1    3    3  502    0 -0.17307828614E+03 -0.35019478541E+03 -0.29436620397E+03  0.48912569234E+03  0.00000000000E+00 0. -1.
         -3    1    3    3    0  502 -0.39027171174E+02 -0.31983880807E+02 -0.65915487781E+02  0.83011687434E+02  0.00000000000E+00 0.  1.
         11    1    5    5    0    0  0.22921190954E+02  0.27363543228E+01 -0.41518766757E+01  0.23454353747E+02  0.00000000000E+00 0.  1.
        -11    1    5    5    0    0  0.19672494431E+03 -0.25635462253E+03  0.62023910543E+02  0.32903702176E+03  0.00000000000E+00 0. -1.
          1    1    6    6  503    0 -0.33346634239E+00  0.48072787620E+03 -0.16604006309E+03  0.50859483355E+03  0.00000000000E+00 0. -1.
         -1    1    6    6    0  503 -0.72072116109E+01  0.15506905823E+03 -0.16686995175E+01  0.15524542272E+03  0.00000000000E+00 0.  1.
<mgrwt>
<rscale>  0 0.15173076E+04</rscale>
<asrwt>0</asrwt>
<pdfrwt beam="1">  1        2 0.15835288E+00 0.15173076E+04</pdfrwt>
<pdfrwt beam="2">  1       -1 0.86026969E-01 0.15173076E+04</pdfrwt>
<totfact> 0.35429708E+01</totfact>
</mgrwt>
</event>
<event>
12    6  0.1556619E-007  0.2710942E+04  0.7818608E-02  0.8331463E-01
          2   -1    0    0  501    0  0.00000000000E+00  0.00000000000E+00  0.85683774085E+03  0.85683774085E+03  0.00000000000E+00 0. -1.
         -1   -1    0    0    0  501 -0.00000000000E+00 -0.00000000000E+00 -0.21442820098E+04  0.21442820098E+04  0.00000000000E+00 0.  1.
         24    2    1    2    0    0 -0.42763089053E+03 -0.24445675531E+03  0.64192708928E+03  0.81316803296E+03  0.80898566897E+02 0.  0.
        254    2    1    2    0    0  0.42763089053E+03  0.24445675531E+03 -0.19293713582E+04  0.21879517176E+04  0.90665958178E+03 0.  0.
         23    2    4    4    0    0  0.45163640297E+02  0.43150404466E+03 -0.15439116634E+04  0.16063258813E+04  0.91564826836E+02 0.  0.
         23    2    4    4    0    0  0.38246725023E+03 -0.18704728935E+03 -0.38545969476E+03  0.58162583635E+03  0.91877915037E+02 0.  0.
          4    1    3    3  502    0 -0.21799034350E+03 -0.83023665781E+02  0.27146939320E+03  0.35792226863E+03  0.00000000000E+00 0. -1.
         -3    1    3    3    0  502 -0.20964054703E+03 -0.16143308953E+03  0.37045769609E+03  0.45524576433E+03  0.00000000000E+00 0.  1.
         11    1    5    5    0    0  0.27764322073E+01  0.33860969110E+03 -0.11065030594E+04  0.11571574015E+04  0.00000000000E+00 0.  1.
        -11    1    5    5    0    0  0.42387208090E+02  0.92894353558E+02 -0.43740860404E+03  0.44916847977E+03  0.00000000000E+00 0. -1.
          2    1    6    6  503    0  0.28236273325E+03 -0.18032959199E+03 -0.30383515283E+03  0.45228671766E+03  0.00000000000E+00 0.  1.
         -2    1    6    6    0  503  0.10010451698E+03 -0.67176973563E+01 -0.81624541928E+02  0.12933911869E+03  0.00000000000E+00 0. -1.
<mgrwt>
<rscale>  0 0.27109421E+04</rscale>
<asrwt>0</asrwt>
<pdfrwt beam="1">  1        2 0.13182119E+00 0.27109421E+04</pdfrwt>
<pdfrwt beam="2">  1       -1 0.32988954E+00 0.27109421E+04</pdfrwt>
<totfact> 0.66153026E-01</totfact>
</mgrwt>
</event>
<event>
12    6  0.1556619E-007  0.1962114E+04  0.7818608E-02  0.8624541E-01
         -1   -1    0    0    0  501 -0.00000000000E+00  0.00000000000E+00  0.29428164164E+03  0.29428164164E+03  0.00000000000E+00 0.  1.
          2   -1    0    0  501    0  0.00000000000E+00 -0.00000000000E+00 -0.32705829675E+04  0.32705829675E+04  0.00000000000E+00 0. -1.
         24    2    1    2    0    0  0.50818777816E+03  0.10016274815E+03 -0.13972332708E+03  0.54263688910E+03  0.81515589267E+02 0.  0.
        254    2    1    2    0    0 -0.50818777816E+03 -0.10016274815E+03 -0.28365779987E+04  0.30222277200E+04  0.90520619452E+03 0.  0.
         23    2    4    4    0    0 -0.65862525844E+02  0.14505254757E+03 -0.52970825630E+02  0.19154112960E+03  0.92217037974E+02 0.  0.
         23    2    4    4    0    0 -0.44232525231E+03 -0.24521529572E+03 -0.27836071731E+04  0.28306865904E+04  0.92387817264E+02 0.  0.
          4    1    3    3  502    0  0.65924577345E+02  0.10572379358E+02 -0.47824137584E+02  0.82127786036E+02  0.00000000000E+00 0. -1.
         -3    1    3    3    0  502  0.44226320081E+03  0.89590368796E+02 -0.91899189498E+02  0.46050910306E+03  0.00000000000E+00 0.  1.
         11    1    5    5    0    0 -0.50551478939E+02  0.25140565862E+02  0.64783410828E+01  0.56828416994E+02  0.00000000000E+00 0.  1.
        -11    1    5    5    0    0 -0.15311046905E+02  0.11991198171E+03 -0.59449166713E+02  0.13471271260E+03  0.00000000000E+00 0. -1.
          4    1    6    6  503    0 -0.16493198981E+03 -0.10042037083E+03 -0.13160842418E+04  0.13301746290E+04  0.00000000000E+00 0. -1.
         -4    1    6    6    0  503 -0.27739326250E+03 -0.14479492489E+03 -0.14675229313E+04  0.15005119614E+04  0.00000000000E+00 0.  1.
<mgrwt>
<rscale>  0 0.19621137E+04</rscale>
<asrwt>0</asrwt>
<pdfrwt beam="1">  1        2 0.50316665E+00 0.19621137E+04</pdfrwt>
<pdfrwt beam="2">  1       -1 0.45274095E-01 0.19621137E+04</pdfrwt>
<totfact> 0.60106148E+00</totfact>
</mgrwt>
</event>
<event>
12    6  0.1556619E-007  0.1319258E+04  0.7818608E-02  0.9014431E-01
          2   -1    0    0  501    0  0.00000000000E+00  0.00000000000E+00  0.33626394915E+03  0.33626394915E+03  0.00000000000E+00 0. -1.
         -1   -1    0    0    0  501 -0.00000000000E+00 -0.00000000000E+00 -0.12939546223E+04  0.12939546223E+04  0.00000000000E+00 0.  1.
         24    2    1    2    0    0 -0.75456719947E+02 -0.19654543258E+03 -0.59833896046E+03  0.63943058995E+03  0.80858791146E+02 0.  0.
        254    2    1    2    0    0  0.75456719947E+02  0.19654543258E+03 -0.35935171272E+03  0.99078798153E+03  0.89900130548E+03 0.  0.
         23    2    4    4    0    0 -0.38273054454E+03  0.17719257240E+02 -0.36122701299E+02  0.39509771698E+03  0.89446713848E+02 0.  0.
         23    2    4    4    0    0  0.45818726448E+03  0.17882617534E+03 -0.32322901142E+03  0.59569026455E+03  0.91953940259E+02 0.  0.
          4    1    3    3  502    0 -0.37520772732E+02 -0.23211858650E+02 -0.17360137581E+03  0.17912017321E+03  0.00000000000E+00 0. -1.
         -3    1    3    3    0  502 -0.37935947215E+02 -0.17333357393E+03 -0.42473758465E+03  0.46031041674E+03  0.00000000000E+00 0.  1.
         11    1    5    5    0    0 -0.19994635459E+03  0.39926384596E+02 -0.51595149152E+02  0.21032051806E+03  0.00000000000E+00 0.  1.
        -11    1    5    5    0    0 -0.18278418994E+03 -0.22207127356E+02  0.15472447853E+02  0.18477719892E+03  0.00000000000E+00 0. -1.
          1    1    6    6  503    0  0.89138645749E+02  0.71529852291E+02 -0.95651747214E+02  0.14903514579E+03  0.00000000000E+00 0. -1.
         -1    1    6    6    0  503  0.36904861874E+03  0.10729632305E+03 -0.22757726421E+03  0.44665511876E+03  0.00000000000E+00 0.  1.
<mgrwt>
<rscale>  0 0.13192578E+04</rscale>
<asrwt>0</asrwt>
<pdfrwt beam="1">  1        2 0.51732916E-01 0.13192578E+04</pdfrwt>
<pdfrwt beam="2">  1       -1 0.19906994E+00 0.13192578E+04</pdfrwt>
<totfact> 0.16547710E+01</totfact>
</mgrwt>
</event>
<event>
12    6  0.1556619E-007  0.1677109E+04  0.7818608E-02  0.8774529E-01
          2   -1    0    0  501    0  0.00000000000E+00  0.00000000000E+00  0.13427055380E+04  0.13427055380E+04  0.00000000000E+00 0. -1.
         -1   -1    0    0    0  501 -0.00000000000E+00 -0.00000000000E+00 -0.52369924807E+03  0.52369924807E+03  0.00000000000E+00 0.  1.
         24    2    1    2    0    0  0.97975287528E+02  0.57120036828E+03  0.28538573783E+03  0.65106700390E+03  0.81081480800E+02 0.  0.
        254    2    1    2    0    0 -0.97975287528E+02 -0.57120036828E+03  0.53362055212E+03  0.12153377822E+04  0.92543287897E+03 0.  0.
         23    2    4    4    0    0 -0.49481068130E+03 -0.23095801664E+03  0.35175993289E+03  0.65437279359E+03  0.79306284883E+02 0.  0.
         23    2    4    4    0    0  0.39683539377E+03 -0.34024235163E+03  0.18186061923E+03  0.56096498859E+03  0.91461718802E+02 0.  0.
          4    1    3    3  502    0 -0.84366572737E+01  0.12008793008E+02  0.14649227675E+02  0.20736156031E+02  0.00000000000E+00 0. -1.
         -1    1    3    3    0  502  0.10641194480E+03  0.55919157527E+03  0.27073651015E+03  0.63033084787E+03  0.00000000000E+00 0.  1.
         11    1    5    5    0    0 -0.47185708850E+03 -0.20015429069E+03  0.31767472059E+03  0.60301582081E+03  0.00000000000E+00 0. -1.
        -11    1    5    5    0    0 -0.22953592804E+02 -0.30803725956E+02  0.34085212309E+02  0.51356972784E+02  0.00000000000E+00 0.  1.
          4    1    6    6  503    0  0.35233247735E+03 -0.25907753727E+03  0.13843040050E+03  0.45871812772E+03  0.00000000000E+00 0. -1.
         -4    1    6    6    0  503  0.44502916426E+02 -0.81164814358E+02  0.43430218730E+02  0.10224686088E+03  0.00000000000E+00 0.  1.
<mgrwt>
<rscale>  0 0.16771093E+04</rscale>
<asrwt>0</asrwt>
<pdfrwt beam="1">  1        2 0.20657008E+00 0.16771093E+04</pdfrwt>
<pdfrwt beam="2">  1       -1 0.80569115E-01 0.16771093E+04</pdfrwt>
<totfact> 0.26067049E+01</totfact>
</mgrwt>
</event>
<event>
12    6  0.1556619E-007  0.1834642E+04  0.7818608E-02  0.8688091E-01
         -1   -1    0    0    0  501 -0.00000000000E+00  0.00000000000E+00  0.33013786064E+03  0.33013786064E+03  0.00000000000E+00 0.  1.
          2   -1    0    0  501    0  0.00000000000E+00 -0.00000000000E+00 -0.25488687873E+04  0.25488687873E+04  0.00000000000E+00 0. -1.
         24    2    1    2    0    0 -0.43175693452E+03 -0.17264354963E+03 -0.45735391252E+02  0.47398090324E+03  0.79663824232E+02 0.  0.
        254    2    1    2    0    0  0.43175693452E+03  0.17264354963E+03 -0.21729955354E+04  0.24050257447E+04  0.91979312351E+03 0.  0.
         23    2    4    4    0    0  0.23892157043E+03  0.23598324243E+03 -0.16580101295E+03  0.38550510591E+03  0.91392577699E+02 0.  0.
         23    2    4    4    0    0  0.19283536408E+03 -0.63339692805E+02 -0.20071945225E+04  0.20195206388E+04  0.91849688063E+02 0.  0.
          2    1    3    3  502    0 -0.91028543476E+02 -0.42458452273E+02 -0.42890815713E+02  0.10921784639E+03  0.00000000000E+00 0. -1.
         -1    1    3    3    0  502 -0.34072839104E+03 -0.13018509736E+03 -0.28445755381E+01  0.36476305685E+03  0.00000000000E+00 0.  1.
         11    1    5    5    0    0  0.17786394048E+03  0.17668465217E+03 -0.76447415800E+02  0.26210161202E+03  0.00000000000E+00 0.  1.
        -11    1    5    5    0    0  0.61057629949E+02  0.59298590261E+02 -0.89353597147E+02  0.12340349389E+03  0.00000000000E+00 0. -1.
          4    1    6    6  503    0 -0.43598294756E-01 -0.62569222700E+01 -0.76449927090E+01  0.98791138583E+01  0.00000000000E+00 0. -1.
         -4    1    6    6    0  503  0.19287896238E+03 -0.57082770535E+02 -0.19995495298E+04  0.20096415249E+04  0.00000000000E+00 0.  1.
<mgrwt>
<rscale>  0 0.18346423E+04</rscale>
<asrwt>0</asrwt>
<pdfrwt beam="1">  1        2 0.39213363E+00 0.18346423E+04</pdfrwt>
<pdfrwt beam="2">  1       -1 0.50790443E-01 0.18346423E+04</pdfrwt>
<totfact> 0.13630609E+01</totfact>
</mgrwt>
</event>
<event>
12    6  0.1556619E-007  0.1420154E+04  0.7818608E-02  0.8939358E-01
          2   -1    0    0  501    0  0.00000000000E+00  0.00000000000E+00  0.56646174768E+03  0.56646174768E+03  0.00000000000E+00 0. -1.
         -1   -1    0    0    0  501 -0.00000000000E+00 -0.00000000000E+00 -0.89010324497E+03  0.89010324497E+03  0.00000000000E+00 0.  1.
         24    2    1    2    0    0  0.53717255204E+02 -0.10364228753E+03 -0.54587583343E+03  0.56395205347E+03  0.80213626201E+02 0.  0.
        254    2    1    2    0    0 -0.53717255204E+02  0.10364228753E+03  0.22223433614E+03  0.89261293917E+03  0.85658770231E+03 0.  0.
         23    2    4    4    0    0 -0.43246172027E+02  0.19252919925E+03 -0.29058578263E+03  0.36394715748E+03  0.95287524954E+02 0.  0.
         23    2    4    4    0    0 -0.10471083177E+02 -0.88886911718E+02  0.51282011877E+03  0.52866578169E+03  0.92154803780E+02 0.  0.
          2    1    3    3  502    0  0.28360458630E+02  0.55916253981E+01 -0.92352565763E+02  0.96770751218E+02  0.00000000000E+00 0. -1.
         -1    1    3    3    0  502  0.25356796574E+02 -0.10923391293E+03 -0.45352326766E+03  0.46718130226E+03  0.00000000000E+00 0.  1.
         11    1    5    5    0    0 -0.59958113217E+02  0.74585509363E+02 -0.16577401880E+03  0.19141316271E+03  0.00000000000E+00 0. -1.
        -11    1    5    5    0    0  0.16711941190E+02  0.11794368989E+03 -0.12481176383E+03  0.17253399477E+03  0.00000000000E+00 0.  1.
          2    1    6    6  503    0  0.30308876243E+02 -0.69932901241E+01  0.21114597758E+03  0.21342482970E+03  0.00000000000E+00 0. -1.
         -2    1    6    6    0  503 -0.40779959421E+02 -0.81893621594E+02  0.30167414120E+03  0.31524095199E+03  0.00000000000E+00 0.  1.
<mgrwt>
<rscale>  0 0.14201541E+04</rscale>
<asrwt>0</asrwt>
<pdfrwt beam="1">  1        2 0.87147962E-01 0.14201541E+04</pdfrwt>
<pdfrwt beam="2">  1       -1 0.13693896E+00 0.14201541E+04</pdfrwt>
<totfact> 0.26221358E+01</totfact>
</mgrwt>
</event>
<event>
12    6  0.1556619E-007  0.1142721E+04  0.7818608E-02  0.9164525E-01
          2   -1    0    0  501    0  0.00000000000E+00  0.00000000000E+00  0.21568944416E+04  0.21568944416E+04  0.00000000000E+00 0. -1.
         -1   -1    0    0    0  501 -0.00000000000E+00 -0.00000000000E+00 -0.15135310797E+03  0.15135310797E+03  0.00000000000E+00 0.  1.
         24    2    1    2    0    0 -0.52054917720E+02  0.20110897827E+03  0.52001496757E+03  0.56563891464E+03  0.79857871575E+02 0.  0.
        254    2    1    2    0    0  0.52054917720E+02 -0.20110897827E+03  0.14855263661E+04  0.17426086349E+04  0.88698463048E+03 0.  0.
         23    2    4    4    0    0  0.25468531085E+03 -0.78021757730E+02  0.14600415439E+04  0.14867934850E+04  0.88778121010E+02 0.  0.
         23    2    4    4    0    0 -0.20263039313E+03 -0.12308722054E+03  0.25484822144E+02  0.25581514996E+03  0.92641107020E+02 0.  0.
          4    1    3    3  502    0 -0.63493008599E+02  0.15749848272E+03  0.46162304000E+03  0.49186681659E+03  0.00000000000E+00 0. -1.
         -3    1    3    3    0  502  0.11438090879E+02  0.43610495550E+02  0.58391927570E+02  0.73772098048E+02  0.00000000000E+00 0.  1.
         11    1    5    5    0    0  0.70279457204E+02 -0.55791238973E+02  0.62019963599E+03  0.62665736486E+03  0.00000000000E+00 0. -1.
        -11    1    5    5    0    0  0.18440585364E+03 -0.22230518758E+02  0.83984190793E+03  0.86013612012E+03  0.00000000000E+00 0.  1.
          1    1    6    6  503    0 -0.24017239615E+02  0.40060906000E+01  0.27315011347E+02  0.36592163170E+02  0.00000000000E+00 0. -1.
         -1    1    6    6    0  503 -0.17861315351E+03 -0.12709331114E+03 -0.18301892025E+01  0.21922298679E+03  0.00000000000E+00 0.  1.
<mgrwt>
<rscale>  0 0.11427207E+04</rscale>
<asrwt>0</asrwt>
<pdfrwt beam="1">  1        2 0.33182989E+00 0.11427207E+04</pdfrwt>
<pdfrwt beam="2">  1       -1 0.23285095E-01 0.11427207E+04</pdfrwt>
<totfact> 0.97748602E+01</totfact>
</mgrwt>
</event>
<event>
12    6  0.1556619E-007  0.3589241E+04  0.7818608E-02  0.8092961E-01
          2   -1    0    0  501    0  0.00000000000E+00  0.00000000000E+00  0.19554983311E+04  0.19554983311E+04  0.00000000000E+00 0. -1.
         -1   -1    0    0    0  501 -0.00000000000E+00 -0.00000000000E+00 -0.16469784251E+04  0.16469784251E+04  0.00000000000E+00 0.  1.
         24    2    1    2    0    0 -0.13255420693E+04  0.91863734341E+03 -0.33415892180E+03  0.16488816926E+04  0.78691199657E+02 0.  0.
        254    2    1    2    0    0  0.13255420693E+04 -0.91863734341E+03  0.64267882776E+03  0.19535950636E+04  0.89584666688E+03 0.  0.
         23    2    4    4    0    0  0.13796966962E+04 -0.62039574825E+03  0.44344725754E+03  0.15790533600E+04  0.91160219957E+02 0.  0.
         23    2    4    4    0    0 -0.54154626835E+02 -0.29824159516E+03  0.19923157022E+03  0.37454170357E+03  0.93313967089E+02 0.  0.
          2    1    3    3  502    0 -0.35542007332E+03  0.20490648883E+03 -0.81039251032E+02  0.41818352178E+03  0.00000000000E+00 0. -1.
         -1    1    3    3    0  502 -0.97012199601E+03  0.71373085458E+03 -0.25311967076E+03  0.12306981708E+04  0.00000000000E+00 0.  1.
         11    1    5    5    0    0  0.32721765828E+03 -0.13217611700E+03  0.14139044631E+03  0.38017519659E+03  0.00000000000E+00 0. -1.
        -11    1    5    5    0    0  0.10524790379E+04 -0.48821963125E+03  0.30205681123E+03  0.11988781634E+04  0.00000000000E+00 0.  1.
          1    1    6    6  503    0 -0.12547843884E+02 -0.32872687675E+01  0.28243591787E+02  0.31079816588E+02  0.00000000000E+00 0. -1.
         -1    1    6    6    0  503 -0.41606782951E+02 -0.29495432639E+03  0.17098797844E+03  0.34346188699E+03  0.00000000000E+00 0.  1.
<mgrwt>
<rscale>  0 0.35892415E+04</rscale>
<asrwt>0</asrwt>
<pdfrwt beam="1">  1        2 0.30084590E+00 0.35892415E+04</pdfrwt>
<pdfrwt beam="2">  1       -1 0.25338130E+00 0.35892415E+04</pdfrwt>
<totfact> 0.43494062E-01</totfact>
</mgrwt>
</event>
<event>
12    6  0.1556619E-007  0.1813221E+04  0.7818608E-02  0.8699300E-01
         -1   -1    0    0    0  501 -0.00000000000E+00  0.00000000000E+00  0.22124127239E+03  0.22124127239E+03  0.00000000000E+00 0.  1.
          2   -1    0    0  501    0  0.00000000000E+00 -0.00000000000E+00 -0.37151413637E+04  0.37151413637E+04  0.00000000000E+00 0. -1.
         24    2    1    2    0    0 -0.16545888112E+03 -0.47222200601E+03 -0.23263962898E+04  0.23808470941E+04  0.77090361492E+02 0.  0.
        254    2    1    2    0    0  0.16545888112E+03  0.47222200601E+03 -0.11675038014E+04  0.15555355419E+04  0.89791727437E+03 0.  0.
         23    2    4    4    0    0  0.29449047888E+03 -0.91471632645E+02 -0.80473608266E+03  0.86675065694E+03  0.92546403740E+02 0.  0.
         23    2    4    4    0    0 -0.12903159776E+03  0.56369363866E+03 -0.36276771876E+03  0.68878488500E+03  0.91785230522E+02 0.  0.
          2    1    3    3  502    0 -0.12977619157E+03 -0.27450521924E+03 -0.14946019243E+04  0.15251327442E+04  0.00000000000E+00 0. -1.
         -1    1    3    3    0  502 -0.35682689550E+02 -0.19771678677E+03 -0.83179436552E+03  0.85571434990E+03  0.00000000000E+00 0.  1.
         11    1    5    5    0    0  0.15810173030E+03 -0.27122893400E+02 -0.52492003110E+03  0.54888327313E+03  0.00000000000E+00 0. -1.
        -11    1    5    5    0    0  0.13638874858E+03 -0.64348739245E+02 -0.27981605156E+03  0.31786738381E+03  0.00000000000E+00 0.  1.
          1    1    6    6  503    0 -0.59293562064E+02  0.29355963403E+03 -0.24084480656E+03  0.38431654412E+03  0.00000000000E+00 0. -1.
         -1    1    6    6    0  503 -0.69738035701E+02  0.27013400463E+03 -0.12192291220E+03  0.30446834088E+03  0.00000000000E+00 0.  1.
<mgrwt>
<rscale>  0 0.18132210E+04</rscale>
<asrwt>0</asrwt>
<pdfrwt beam="1">  1        2 0.57156018E+00 0.18132210E+04</pdfrwt>
<pdfrwt beam="2">  1       -1 0.34037121E-01 0.18132210E+04</pdfrwt>
<totfact> 0.50342044E+00</totfact>
</mgrwt>
</event>
<event>
12    6  0.1556619E-007  0.2440640E+04  0.7818608E-02  0.8424443E-01
         -1   -1    0    0    0  501 -0.00000000000E+00  0.00000000000E+00  0.61651020607E+03  0.61651020607E+03  0.00000000000E+00 0.  1.
          2   -1    0    0  501    0  0.00000000000E+00 -0.00000000000E+00 -0.24155007851E+04  0.24155007851E+04  0.00000000000E+00 0. -1.
         24    2    1    2    0    0 -0.89236921017E+03  0.12223524012E+03 -0.14653701415E+04  0.17219162554E+04  0.80135372206E+02 0.  0.
        254    2    1    2    0    0  0.89236921017E+03 -0.12223524012E+03 -0.33362043754E+03  0.13100947358E+04  0.89094408308E+03 0.  0.
         23    2    4    4    0    0  0.72530620978E+03 -0.10704047427E+03 -0.62081987829E+03  0.96473877700E+03  0.88186311234E+02 0.  0.
         23    2    4    4    0    0  0.16706300039E+03 -0.15194765850E+02  0.28719944074E+03  0.34535595878E+03  0.92985442372E+02 0.  0.
          2    1    3    3  502    0 -0.68419860938E+03  0.10520301421E+03 -0.11836985827E+04  0.13712540778E+04  0.00000000000E+00 0. -1.
         -1    1    3    3    0  502 -0.20817060079E+03  0.17032225914E+02 -0.28167155878E+03  0.35066217757E+03  0.00000000000E+00 0.  1.
         11    1    5    5    0    0  0.38777475513E+03 -0.60433262732E+02 -0.38931077069E+03  0.55279681270E+03  0.00000000000E+00 0.  1.
        -11    1    5    5    0    0  0.33753145465E+03 -0.46607211538E+02 -0.23150910760E+03  0.41194196429E+03  0.00000000000E+00 0. -1.
          2    1    6    6  503    0  0.12509415143E+02 -0.24137867022E+02  0.12251849663E+02  0.29819958279E+02  0.00000000000E+00 0. -1.
         -2    1    6    6    0  503  0.15455358525E+03  0.89431011723E+01  0.27494759108E+03  0.31553600050E+03  0.00000000000E+00 0.  1.
<mgrwt>
<rscale>  0 0.24406400E+04</rscale>
<asrwt>0</asrwt>
<pdfrwt beam="1">  1        2 0.37161551E+00 0.24406400E+04</pdfrwt>
<pdfrwt beam="2">  1       -1 0.94847722E-01 0.24406400E+04</pdfrwt>
<totfact> 0.42665060E+00</totfact>
</mgrwt>
</event>
<event>
12    6  0.1556619E-007  0.1842287E+04  0.7818608E-02  0.8684129E-01
         -1   -1    0    0    0  501 -0.00000000000E+00  0.00000000000E+00  0.48536493010E+03  0.48536493010E+03  0.00000000000E+00 0.  1.
          2   -1    0    0  501    0  0.00000000000E+00 -0.00000000000E+00 -0.17481801441E+04  0.17481801441E+04  0.00000000000E+00 0. -1.
         24    2    1    2    0    0 -0.51389360918E+03 -0.28620229149E+03 -0.93956693138E+03  0.11109310600E+04  0.73371713771E+02 0.  0.
        254    2    1    2    0    0  0.51389360918E+03  0.28620229149E+03 -0.32324828264E+03  0.11226140142E+04  0.89987464651E+03 0.  0.
         23    2    4    4    0    0  0.42127970743E+03  0.26591726219E+03  0.22814741991E+03  0.55563427300E+03  0.92139122497E+02 0.  0.
         23    2    4    4    0    0  0.92613901743E+02  0.20285029305E+02 -0.55139570255E+03  0.56697974120E+03  0.91869412412E+02 0.  0.
          4    1    3    3  502    0 -0.58268767905E+02 -0.59828395644E+02 -0.14890548176E+03  0.17072647345E+03  0.00000000000E+00 0. -1.
         -3    1    3    3    0  502 -0.45562484127E+03 -0.22637389585E+03 -0.79066144962E+03  0.94020458658E+03  0.00000000000E+00 0.  1.
         11    1    5    5    0    0  0.55512821356E+02  0.26140799776E+02 -0.20590715359E+01  0.61394254808E+02  0.00000000000E+00 0. -1.
        -11    1    5    5    0    0  0.36576688608E+03  0.23977646241E+03  0.23020649144E+03  0.49424001819E+03  0.00000000000E+00 0.  1.
          4    1    6    6  503    0  0.29703694077E+02  0.22241518358E+02 -0.53429304250E+02  0.65051403777E+02  0.00000000000E+00 0. -1.
         -4    1    6    6    0  503  0.62910207666E+02 -0.19564890538E+01 -0.49796639830E+03  0.50192833743E+03  0.00000000000E+00 0.  1.
<mgrwt>
<rscale>  0 0.18422870E+04</rscale>
<asrwt>0</asrwt>
<pdfrwt beam="1">  1        2 0.26895079E+00 0.18422870E+04</pdfrwt>
<pdfrwt beam="2">  1       -1 0.74671527E-01 0.18422870E+04</pdfrwt>
<totfact> 0.17828061E+01</totfact>
</mgrwt>
</event>
<event>
12    6  0.1556619E-007  0.1377332E+04  0.7818608E-02  0.8970392E-01
         -1   -1    0    0    0  501 -0.00000000000E+00  0.00000000000E+00  0.51938384160E+03  0.51938384160E+03  0.00000000000E+00 0.  1.
          2   -1    0    0  501    0  0.00000000000E+00 -0.00000000000E+00 -0.91312235830E+03  0.91312235830E+03  0.00000000000E+00 0. -1.
         24    2    1    2    0    0  0.82631003600E+02  0.36822481545E+03 -0.33074466697E+02  0.38804024283E+03  0.84047083449E+02 0.  0.
        254    2    1    2    0    0 -0.82631003600E+02 -0.36822481545E+03 -0.36066405001E+03  0.10444659571E+04  0.90466191533E+03 0.  0.
         23    2    4    4    0    0  0.14587952304E+03  0.25610476119E+02  0.23214344882E+03  0.29080637769E+03  0.93493511781E+02 0.  0.
         23    2    4    4    0    0 -0.22851052664E+03 -0.39383529157E+03 -0.59280749882E+03  0.75365957938E+03  0.96222311640E+02 0.  0.
          4    1    3    3  502    0  0.58723553479E+02  0.16165050809E+03 -0.50802644901E+02  0.17933279463E+03  0.00000000000E+00 0. -1.
         -3    1    3    3    0  502  0.23907450121E+02  0.20657430736E+03  0.17728178204E+02  0.20870744820E+03  0.00000000000E+00 0.  1.
         11    1    5    5    0    0  0.97084236833E+02  0.17215438288E+02  0.69075587747E+02  0.12038752917E+03  0.00000000000E+00 0. -1.
        -11    1    5    5    0    0  0.48795286210E+02  0.83950378312E+01  0.16306786107E+03  0.17041884852E+03  0.00000000000E+00 0.  1.
          2    1    6    6  503    0 -0.20163994067E+03 -0.28166168929E+03 -0.40158916560E+03  0.53034501112E+03  0.00000000000E+00 0. -1.
         -2    1    6    6    0  503 -0.26870585975E+02 -0.11217360228E+03 -0.19121833322E+03  0.22331456826E+03  0.00000000000E+00 0.  1.
<mgrwt>
<rscale>  0 0.13773322E+04</rscale>
<asrwt>0</asrwt>
<pdfrwt beam="1">  1        2 0.14048036E+00 0.13773322E+04</pdfrwt>
<pdfrwt beam="2">  1       -1 0.79905207E-01 0.13773322E+04</pdfrwt>
<totfact> 0.50001269E+01</totfact>
</mgrwt>
</event>
<event>
12    6  0.1556619E-007  0.1595858E+04  0.7818608E-02  0.8823097E-01
         -1   -1    0    0    0  501 -0.00000000000E+00  0.00000000000E+00  0.25949014216E+03  0.25949014216E+03  0.00000000000E+00 0.  1.
          2   -1    0    0  501    0  0.00000000000E+00 -0.00000000000E+00 -0.24536207593E+04  0.24536207593E+04  0.00000000000E+00 0. -1.
         24    2    1    2    0    0 -0.39223019294E+03  0.37614088910E+03 -0.83523163689E+03  0.99966440600E+03  0.79940882121E+02 0.  0.
        254    2    1    2    0    0  0.39223019294E+03 -0.37614088910E+03 -0.13588989802E+04  0.17134464954E+04  0.89104767636E+03 0.  0.
         23    2    4    4    0    0  0.57937483679E+03 -0.18529583193E+02 -0.54609842450E+03  0.80177899424E+03  0.92776717990E+02 0.  0.
         23    2    4    4    0    0 -0.18714464385E+03 -0.35761130591E+03 -0.81280055572E+03  0.91166750119E+03  0.87085736546E+02 0.  0.
          2    1    3    3  502    0 -0.24194346688E+03  0.17969555574E+03 -0.48136497007E+03  0.56792549540E+03  0.00000000000E+00 0. -1.
         -1    1    3    3    0  502 -0.15028672607E+03  0.19644533336E+03 -0.35386666682E+03  0.43173891059E+03  0.00000000000E+00 0.  1.
         11    1    5    5    0    0  0.60088442474E+02 -0.86493178887E+01 -0.10065549753E+03  0.11754556904E+03  0.00000000000E+00 0.  1.
        -11    1    5    5    0    0  0.51928639432E+03 -0.98802653047E+01 -0.44544292697E+03  0.68423342519E+03  0.00000000000E+00 0. -1.
          3    1    6    6  503    0 -0.15863529756E+03 -0.33531381101E+03 -0.77572643322E+03  0.85985580692E+03  0.00000000000E+00 0. -1.
         -3    1    6    6    0  503 -0.28509346287E+02 -0.22297494904E+02 -0.37074122498E+02  0.51811694275E+02  0.00000000000E+00 0.  1.
<mgrwt>
<rscale>  0 0.15958576E+04</rscale>
<asrwt>0</asrwt>
<pdfrwt beam="1">  1        2 0.37748012E+00 0.15958576E+04</pdfrwt>
<pdfrwt beam="2">  1       -1 0.39921560E-01 0.15958576E+04</pdfrwt>
<totfact> 0.24774488E+01</totfact>
</mgrwt>
</event>
<event>
12    6  0.1556619E-007  0.2136077E+04  0.7818608E-02  0.8545515E-01
          2   -1    0    0  501    0  0.00000000000E+00  0.00000000000E+00  0.20547858195E+04  0.20547858195E+04  0.00000000000E+00 0. -1.
         -1   -1    0    0    0  501 -0.00000000000E+00 -0.00000000000E+00 -0.55514628706E+03  0.55514628706E+03  0.00000000000E+00 0.  1.
         24    2    1    2    0    0  0.34744110881E+03 -0.39200430054E+03  0.14789650150E+04  0.15709503689E+04  0.78516558640E+02 0.  0.
        254    2    1    2    0    0 -0.34744110881E+03  0.39200430054E+03  0.20674517386E+02  0.10389817377E+04  0.89703562907E+03 0.  0.
         23    2    4    4    0    0  0.79677647961E+02  0.63050872298E+02 -0.35200044867E+03  0.37745597395E+03  0.90800640545E+02 0.  0.
         23    2    4    4    0    0 -0.42711875677E+03  0.32895342825E+03  0.37267496606E+03  0.66152576373E+03  0.89938397859E+02 0.  0.
          2    1    3    3  502    0  0.26453901407E+03 -0.34339372288E+03  0.11992469091E+04  0.12751836291E+04  0.00000000000E+00 0. -1.
         -1    1    3    3    0  502  0.82902094735E+02 -0.48610577661E+02  0.27971810591E+03  0.29576673976E+03  0.00000000000E+00 0.  1.
         11    1    5    5    0    0  0.56405961216E+02  0.82591755416E+02 -0.30913908229E+03  0.32491537779E+03  0.00000000000E+00 0. -1.
        -11    1    5    5    0    0  0.23271686745E+02 -0.19540883118E+02 -0.42861366377E+02  0.52540596159E+02  0.00000000000E+00 0.  1.
          1    1    6    6  503    0 -0.32697590430E+03  0.22826905936E+03  0.31530882744E+03  0.50836961171E+03  0.00000000000E+00 0. -1.
         -1    1    6    6    0  503 -0.10014285247E+03  0.10068436889E+03  0.57366138614E+02  0.15315615201E+03  0.00000000000E+00 0.  1.
<mgrwt>
<rscale>  0 0.21360775E+04</rscale>
<asrwt>0</asrwt>
<pdfrwt beam="1">  1        2 0.31612089E+00 0.21360775E+04</pdfrwt>
<pdfrwt beam="2">  1       -1 0.85407122E-01 0.21360775E+04</pdfrwt>
<totfact> 0.88249652E+00</totfact>
</mgrwt>
</event>
<event>
12    6  0.1556619E-007  0.2093559E+04  0.7818608E-02  0.8564086E-01
         -1   -1    0    0    0  501 -0.00000000000E+00  0.00000000000E+00  0.11940013698E+04  0.11940013698E+04  0.00000000000E+00 0.  1.
          2   -1    0    0  501    0  0.00000000000E+00 -0.00000000000E+00 -0.91771035072E+03  0.91771035072E+03  0.00000000000E+00 0. -1.
         24    2    1    2    0    0 -0.33258016248E+03  0.68147870370E+03 -0.26680770818E+03  0.80783989306E+03  0.79975943885E+02 0.  0.
        254    2    1    2    0    0  0.33258016248E+03 -0.68147870370E+03  0.54309872727E+03  0.13038718275E+04  0.91109973484E+03 0.  0.
         23    2    4    4    0    0  0.20298590991E+03  0.19184660009E+03  0.85073167336E+02  0.30501736312E+03  0.88259562745E+02 0.  0.
         23    2    4    4    0    0  0.12959425257E+03 -0.87332530380E+03  0.45802555994E+03  0.99885446435E+03  0.91820862764E+02 0.  0.
          4    1    3    3  502    0 -0.21978901451E+03  0.48338945339E+03 -0.22189005346E+03  0.57550653374E+03  0.00000000000E+00 0. -1.
         -3    1    3    3    0  502 -0.11279114797E+03  0.19808925031E+03 -0.44917654720E+02  0.23233335932E+03  0.00000000000E+00 0.  1.
         11    1    5    5    0    0  0.72150023374E+01  0.15526008267E+02  0.31949221152E+02  0.36247288500E+02  0.00000000000E+00 0.  1.
        -11    1    5    5    0    0  0.19577090757E+03  0.17632059183E+03  0.53123946184E+02  0.26877007462E+03  0.00000000000E+00 0. -1.
          1    1    6    6  503    0  0.13515145731E+03 -0.67590748757E+03  0.33739923879E+03  0.76743409783E+03  0.00000000000E+00 0. -1.
         -1    1    6    6    0  503 -0.55572047407E+01 -0.19741781623E+03  0.12062632115E+03  0.23142036652E+03  0.00000000000E+00 0.  1.
<mgrwt>
<rscale>  0 0.20935591E+04</rscale>
<asrwt>0</asrwt>
<pdfrwt beam="1">  1        2 0.14118621E+00 0.20935591E+04</pdfrwt>
<pdfrwt beam="2">  1       -1 0.18369252E+00 0.20935591E+04</pdfrwt>
<totfact> 0.58755877E+00</totfact>
</mgrwt>
</event>
<event>
12    6  0.1556619E-007  0.1594597E+04  0.7818608E-02  0.8823874E-01
         -3   -1    0    0    0  501 -0.00000000000E+00  0.00000000000E+00  0.84399742000E+03  0.84399742000E+03  0.00000000000E+00 0.  1.
          2   -1    0    0  501    0  0.00000000000E+00 -0.00000000000E+00 -0.75318353938E+03  0.75318353938E+03  0.00000000000E+00 0. -1.
         24    2    1    2    0    0  0.20892305557E+03  0.87024285753E+02 -0.45547949570E+03  0.51670556545E+03  0.91109828813E+02 0.  0.
        254    2    1    2    0    0 -0.20892305557E+03 -0.87024285753E+02  0.54629337633E+03  0.10804753939E+04  0.90430556474E+03 0.  0.
         23    2    4    4    0    0  0.31910297228E+03  0.49750991509E+02  0.37069848402E+03  0.50022029633E+03  0.92201468181E+02 0.  0.
         23    2    4    4    0    0 -0.52802602785E+03 -0.13677527726E+03  0.17559489231E+03  0.58025509760E+03  0.91342484788E+02 0.  0.
          2    1    3    3  502    0  0.17400401152E+03  0.64908347201E+02 -0.42937836862E+03  0.46782077017E+03  0.00000000000E+00 0. -1.
         -1    1    3    3    0  502  0.34919044043E+02  0.22115938552E+02 -0.26101127081E+02  0.48884795283E+02  0.00000000000E+00 0.  1.
         11    1    5    5    0    0  0.30420142123E+03  0.44649089043E+02  0.37396950867E+03  0.48413349321E+03  0.00000000000E+00 0. -1.
        -11    1    5    5    0    0  0.14901551049E+02  0.51019024657E+01 -0.32710246523E+01  0.16086803123E+02  0.00000000000E+00 0.  1.
          3    1    6    6  503    0 -0.39638124027E+03 -0.13462428589E+03  0.10834568840E+03  0.43241250466E+03  0.00000000000E+00 0. -1.
         -3    1    6    6    0  503 -0.13164478758E+03 -0.21509913683E+01  0.67249203909E+02  0.14784259294E+03  0.00000000000E+00 0.  1.
<mgrwt>
<rscale>  0 0.15945971E+04</rscale>
<asrwt>0</asrwt>
<pdfrwt beam="1">  1        2 0.11587439E+00 0.15945971E+04</pdfrwt>
<pdfrwt beam="2">  1       -3 0.12984576E+00 0.15945971E+04</pdfrwt>
<totfact> 0.10502355E+01</totfact>
</mgrwt>
</event>
<event>
12    6  0.1556619E-007  0.2709371E+04  0.7818608E-02  0.8331971E-01
          2   -1    0    0  501    0  0.00000000000E+00  0.00000000000E+00  0.17968101823E+04  0.17968101823E+04  0.00000000000E+00 0. -1.
         -1   -1    0    0    0  501 -0.00000000000E+00 -0.00000000000E+00 -0.10213504587E+04  0.10213504587E+04  0.00000000000E+00 0.  1.
         24    2    1    2    0    0 -0.37283553081E+03  0.10709080795E+03 -0.83829571363E+03  0.92725065106E+03  0.81112836359E+02 0.  0.
        254    2    1    2    0    0  0.37283553081E+03 -0.10709080795E+03  0.16137554372E+04  0.18909099899E+04  0.90601280589E+03 0.  0.
         23    2    4    4    0    0  0.15349058470E+03  0.32418678017E+03  0.26538546378E+03  0.45540967822E+03  0.91170733267E+02 0.  0.
         23    2    4    4    0    0  0.21934494611E+03 -0.43127758812E+03  0.13483699735E+04  0.14355003117E+04  0.91907540735E+02 0.  0.
          4    1    3    3  502    0 -0.18176891069E+03  0.15022810606E+02 -0.34362019240E+03  0.38902500994E+03  0.00000000000E+00 0. -1.
         -3    1    3    3    0  502 -0.19106662011E+03  0.92067997339E+02 -0.49467552123E+03  0.53822564112E+03  0.00000000000E+00 0.  1.
         11    1    5    5    0    0  0.11880429643E+02  0.45096685656E+02  0.77300678790E+02  0.90278738400E+02  0.00000000000E+00 0. -1.
        -11    1    5    5    0    0  0.14161015505E+03  0.27909009451E+03  0.18808478499E+03  0.36513093982E+03  0.00000000000E+00 0.  1.
          2    1    6    6  503    0  0.73970338250E+02 -0.24542509426E+03  0.68072968294E+03  0.72739122147E+03  0.00000000000E+00 0. -1.
         -2    1    6    6    0  503  0.14537460786E+03 -0.18585249386E+03  0.66764029053E+03  0.70810909020E+03  0.00000000000E+00 0.  1.
<mgrwt>
<rscale>  0 0.27093711E+04</rscale>
<asrwt>0</asrwt>
<pdfrwt beam="1">  1        2 0.27643233E+00 0.27093711E+04</pdfrwt>
<pdfrwt beam="2">  1       -1 0.15713084E+00 0.27093711E+04</pdfrwt>
<totfact> 0.26566929E+00</totfact>
</mgrwt>
</event>
<event>
12    6  0.1556619E-007  0.1602902E+04  0.7818608E-02  0.8818767E-01
         -1   -1    0    0    0  501 -0.00000000000E+00  0.00000000000E+00  0.34921652313E+03  0.34921652313E+03  0.00000000000E+00 0.  1.
          2   -1    0    0  501    0  0.00000000000E+00 -0.00000000000E+00 -0.18393273752E+04  0.18393273752E+04  0.00000000000E+00 0. -1.
         24    2    1    2    0    0 -0.12611852775E+03 -0.51748920017E+03 -0.36493085786E+03  0.65070270064E+03  0.80861104729E+02 0.  0.
        254    2    1    2    0    0  0.12611852775E+03  0.51748920017E+03 -0.11251799942E+04  0.15378411977E+04  0.90289787604E+03 0.  0.
         23    2    4    4    0    0 -0.18411940897E+03 -0.18312845240E+03 -0.27387997747E+03  0.38876663304E+03  0.93237685875E+02 0.  0.
         23    2    4    4    0    0  0.31023793673E+03  0.70061765257E+03 -0.85130001671E+03  0.11490745646E+04  0.92455200570E+02 0.  0.
          2    1    3    3  502    0 -0.87426678843E+01 -0.60963490359E+02 -0.76014681485E+02  0.97832577395E+02  0.00000000000E+00 0. -1.
         -1    1    3    3    0  502 -0.11737585987E+03 -0.45652570981E+03 -0.28891617637E+03  0.55287012324E+03  0.00000000000E+00 0.  1.
         11    1    5    5    0    0  0.10422583792E+02 -0.31847385083E+01 -0.11608344696E+02  0.15922514840E+02  0.00000000000E+00 0.  1.
        -11    1    5    5    0    0 -0.19454199277E+03 -0.17994371389E+03 -0.26227163278E+03  0.37284411820E+03  0.00000000000E+00 0. -1.
          3    1    6    6  503    0  0.26821289516E+03  0.54011244973E+03 -0.62531230220E+03  0.86872037548E+03  0.00000000000E+00 0. -1.
         -3    1    6    6    0  503  0.42025041566E+02  0.16050520284E+03 -0.22598771451E+03  0.28035418914E+03  0.00000000000E+00 0.  1.
<mgrwt>
<rscale>  0 0.16029018E+04</rscale>
<asrwt>0</asrwt>
<pdfrwt beam="1">  1        2 0.28297345E+00 0.16029018E+04</pdfrwt>
<pdfrwt beam="2">  1       -1 0.53725618E-01 0.16029018E+04</pdfrwt>
<totfact> 0.31333712E+01</totfact>
</mgrwt>
</event>
<event>
12    6  0.1556619E-007  0.1423790E+04  0.7818608E-02  0.8936776E-01
          2   -1    0    0  501    0  0.00000000000E+00  0.00000000000E+00  0.37733197803E+03  0.37733197803E+03  0.00000000000E+00 0. -1.
         -1   -1    0    0    0  501 -0.00000000000E+00 -0.00000000000E+00 -0.13431004505E+04  0.13431004505E+04  0.00000000000E+00 0.  1.
         24    2    1    2    0    0 -0.19275087147E+02  0.42009882355E+03 -0.31175592216E+03  0.53008147696E+03  0.83307062614E+02 0.  0.
        254    2    1    2    0    0  0.19275087147E+02 -0.42009882355E+03 -0.65401255036E+03  0.11903509516E+04  0.90130373429E+03 0.  0.
         23    2    4    4    0    0 -0.20495252469E+02 -0.26479149839E+03 -0.86516180163E+03  0.90967246721E+03  0.92002508703E+02 0.  0.
         23    2    4    4    0    0  0.39770339616E+02 -0.15530732516E+03  0.21114925127E+03  0.28067848441E+03  0.92164853043E+02 0.  0.
          2    1    3    3  502    0 -0.32778474549E+02  0.40561656529E+03 -0.28508090471E+03  0.49686049215E+03  0.00000000000E+00 0. -1.
         -1    1    3    3    0  502  0.13503387402E+02  0.14482258258E+02 -0.26675017446E+02  0.33220984804E+02  0.00000000000E+00 0.  1.
         11    1    5    5    0    0  0.17495998792E+01 -0.22642122787E+03 -0.79543781021E+03  0.82703744984E+03  0.00000000000E+00 0.  1.
        -11    1    5    5    0    0 -0.22244852348E+02 -0.38370270524E+02 -0.69723991420E+02  0.82635017369E+02  0.00000000000E+00 0. -1.
          3    1    6    6  503    0 -0.60901128132E+01  0.10866032637E+02  0.12225744608E+02  0.17453623422E+02  0.00000000000E+00 0. -1.
         -3    1    6    6    0  503  0.45860452429E+02 -0.16617335779E+03  0.19892350666E+03  0.26322486098E+03  0.00000000000E+00 0.  1.
<mgrwt>
<rscale>  0 0.14237904E+04</rscale>
<asrwt>0</asrwt>
<pdfrwt beam="1">  1        2 0.58051072E-01 0.14237904E+04</pdfrwt>
<pdfrwt beam="2">  1       -1 0.20663084E+00 0.14237904E+04</pdfrwt>
<totfact> 0.12798004E+01</totfact>
</mgrwt>
</event>
<event>
12    6  0.1975007E-007  0.1622763E+04  0.7818608E-02  0.8806685E-01
         -1   -1    0    0    0  501 -0.00000000000E+00  0.00000000000E+00  0.30598642581E+03  0.30598642581E+03  0.00000000000E+00 0.  1.
          2   -1    0    0  501    0  0.00000000000E+00 -0.00000000000E+00 -0.21515335782E+04  0.21515335782E+04  0.00000000000E+00 0. -1.
         24    2    1    2    0    0 -0.10585924050E+03 -0.31355894103E+03  0.32383251101E+02  0.34716745075E+03  0.99755579336E+02 0.  0.
        254    2    1    2    0    0  0.10585924050E+03  0.31355894103E+03 -0.18779304035E+04  0.21103525532E+04  0.90412383575E+03 0.  0.
         23    2    4    4    0    0  0.18338202596E+03 -0.18683027667E+03 -0.13336999496E+04  0.13623525160E+04  0.93350428211E+02 0.  0.
         23    2    4    4    0    0 -0.77522785456E+02  0.50038921770E+03 -0.54423045387E+03  0.74800003727E+03  0.83175220995E+02 0.  0.
          4    1    3    3  502    0 -0.61614866338E+01 -0.24254658371E+02 -0.25513102743E+02  0.35737526241E+02  0.00000000000E+00 0. -1.
         -3    1    3    3    0  502 -0.99697753870E+02 -0.28930428266E+03  0.57896353844E+02  0.31142992451E+03  0.00000000000E+00 0.  1.
         11    1    5    5    0    0  0.23964377269E+02  0.55601821824E+01 -0.70220134654E+02  0.74404800346E+02  0.00000000000E+00 0.  1.
        -11    1    5    5    0    0  0.15941764869E+03 -0.19239045885E+03 -0.12634798150E+04  0.12879477156E+04  0.00000000000E+00 0. -1.
          3    1    6    6  503    0 -0.85964323171E+02  0.49501119194E+03 -0.53842627324E+03  0.73642976360E+03  0.00000000000E+00 0. -1.
         -3    1    6    6    0  503  0.84415377148E+01  0.53780257612E+01 -0.58041806296E+01  0.11570273673E+02  0.00000000000E+00 0.  1.
<mgrwt>
<rscale>  0 0.16227632E+04</rscale>
<asrwt>0</asrwt>
<pdfrwt beam="1">  1        2 0.33100515E+00 0.16227632E+04</pdfrwt>
<pdfrwt beam="2">  1       -1 0.47074837E-01 0.16227632E+04</pdfrwt>
<totfact> 0.26988822E+01</totfact>
</mgrwt>
</event>
<event>
12    6  0.1556619E-007  0.1997402E+04  0.7818608E-02  0.8607836E-01
          2   -1    0    0  501    0  0.00000000000E+00  0.00000000000E+00  0.18632077252E+04  0.18632077252E+04  0.00000000000E+00 0. -1.
         -1   -1    0    0    0  501 -0.00000000000E+00 -0.00000000000E+00 -0.53531560544E+03  0.53531560544E+03  0.00000000000E+00 0.  1.
         24    2    1    2    0    0  0.12151703717E+03  0.57022481883E+03 -0.12437188301E+03  0.60187273771E+03  0.82823262324E+02 0.  0.
        254    2    1    2    0    0 -0.12151703717E+03 -0.57022481883E+03  0.14522640027E+04  0.17966505929E+04  0.88258704103E+03 0.  0.
         23    2    4    4    0    0  0.12130346501E+03 -0.29803702840E+03  0.41838899145E+02  0.33701177759E+03  0.91026610567E+02 0.  0.
         23    2    4    4    0    0 -0.24282050218E+03 -0.27218779043E+03  0.14104251036E+04  0.14596388153E+04  0.90545617156E+02 0.  0.
          2    1    3    3  502    0  0.62634361012E+02  0.20485871531E+03 -0.97236369378E+01  0.21444044752E+03  0.00000000000E+00 0. -1.
         -1    1    3    3    0  502  0.58882676156E+02  0.36536610352E+03 -0.11464824607E+03  0.38743229019E+03  0.00000000000E+00 0.  1.
         11    1    5    5    0    0  0.41931536544E+02 -0.20710890243E+03  0.71640690050E+01  0.21143243627E+03  0.00000000000E+00 0.  1.
        -11    1    5    5    0    0  0.79371928470E+02 -0.90928125974E+02  0.34674830140E+02  0.12557934132E+03  0.00000000000E+00 0. -1.
          3    1    6    6  503    0 -0.18862965882E+01  0.57719957098E+01  0.99166237721E+01  0.11628132968E+02  0.00000000000E+00 0. -1.
         -3    1    6    6    0  503 -0.24093420559E+03 -0.27795978614E+03  0.14005084798E+04  0.14480106823E+04  0.00000000000E+00 0.  1.
<mgrwt>
<rscale>  0 0.19974025E+04</rscale>
<asrwt>0</asrwt>
<pdfrwt beam="1">  1        2 0.28664734E+00 0.19974025E+04</pdfrwt>
<pdfrwt beam="2">  1       -1 0.82356248E-01 0.19974025E+04</pdfrwt>
<totfact> 0.12344646E+01</totfact>
</mgrwt>
</event>
<event>
12    6  0.1556619E-007  0.1548939E+04  0.7818608E-02  0.8852546E-01
          2   -1    0    0  501    0  0.00000000000E+00  0.00000000000E+00  0.10463097695E+04  0.10463097695E+04  0.00000000000E+00 0. -1.
         -1   -1    0    0    0  501 -0.00000000000E+00 -0.00000000000E+00 -0.57325543956E+03  0.57325543956E+03  0.00000000000E+00 0.  1.
         24    2    1    2    0    0  0.40002165145E+03 -0.29942693199E+03  0.26493728302E+03  0.57128246653E+03  0.80610690340E+02 0.  0.
        254    2    1    2    0    0 -0.40002165145E+03  0.29942693199E+03  0.20811704691E+03  0.10482827425E+04  0.89772501015E+03 0.  0.
         23    2    4    4    0    0 -0.30756050342E+03  0.18289241251E+03 -0.32213989861E+03  0.49000470463E+03  0.91035149640E+02 0.  0.
         23    2    4    4    0    0 -0.92461148032E+02  0.11653451948E+03  0.53025694552E+03  0.55827803790E+03  0.91501809868E+02 0.  0.
          4    1    3    3  502    0  0.33594141387E+03 -0.22549773620E+03  0.23956747358E+03  0.47021105578E+03  0.00000000000E+00 0. -1.
         -3    1    3    3    0  502  0.64080237579E+02 -0.73929195793E+02  0.25369809443E+02  0.10107141074E+03  0.00000000000E+00 0.  1.
         11    1    5    5    0    0 -0.24777179683E+03  0.11688074174E+03 -0.20163729380E+03  0.34016109323E+03  0.00000000000E+00 0.  1.
        -11    1    5    5    0    0 -0.59788706582E+02  0.66011670767E+02 -0.12050260480E+03  0.14984361140E+03  0.00000000000E+00 0. -1.
          1    1    6    6  503    0 -0.51772743526E+02  0.98624154390E+02  0.47217512855E+03  0.48513554067E+03  0.00000000000E+00 0. -1.
         -1    1    6    6    0  503 -0.40688404506E+02  0.17910365095E+02  0.58081816966E+02  0.73142497230E+02  0.00000000000E+00 0.  1.
<mgrwt>
<rscale>  0 0.15489387E+04</rscale>
<asrwt>0</asrwt>
<pdfrwt beam="1">  1        2 0.16097073E+00 0.15489387E+04</pdfrwt>
<pdfrwt beam="2">  1       -1 0.88193144E-01 0.15489387E+04</pdfrwt>
<totfact> 0.32651726E+01</totfact>
</mgrwt>
</event>
<event>
12    6  0.1556619E-007  0.1889830E+04  0.7818608E-02  0.8659935E-01
         -1   -1    0    0    0  501 -0.00000000000E+00  0.00000000000E+00  0.11503625691E+04  0.11503625691E+04  0.00000000000E+00 0.  1.
          2   -1    0    0  501    0  0.00000000000E+00 -0.00000000000E+00 -0.77615875458E+03  0.77615875458E+03  0.00000000000E+00 0. -1.
         24    2    1    2    0    0  0.50969147013E+03  0.50797143399E+03  0.18211428573E+03  0.74529536161E+03  0.66926754731E+02 0.  0.
        254    2    1    2    0    0 -0.50969147013E+03 -0.50797143399E+03  0.19208952882E+03  0.11812259621E+04  0.91682932651E+03 0.  0.
         23    2    4    4    0    0  0.12332065793E+03 -0.30164190986E+01 -0.21950009593E+03  0.26829104556E+03  0.92642914255E+02 0.  0.
         23    2    4    4    0    0 -0.63301212806E+03 -0.50495501489E+03  0.41158962475E+03  0.91293491653E+03  0.91434245642E+02 0.  0.
          4    1    3    3  502    0  0.50862355699E+02  0.82042184621E+02  0.29023688978E+02  0.10079818355E+03  0.00000000000E+00 0. -1.
         -3    1    3    3    0  502  0.45882911443E+03  0.42592924937E+03  0.15309059675E+03  0.64449717806E+03  0.00000000000E+00 0.  1.
         11    1    5    5    0    0 -0.14871759633E+02  0.53819065665E+01 -0.21644205953E+02  0.26806823836E+02  0.00000000000E+00 0.  1.
        -11    1    5    5    0    0  0.13819241756E+03 -0.83983256651E+01 -0.19785588997E+03  0.24148422173E+03  0.00000000000E+00 0. -1.
          3    1    6    6  503    0 -0.59202596224E+03 -0.49015478310E+03  0.37129819845E+03  0.85358585012E+03  0.00000000000E+00 0. -1.
         -3    1    6    6    0  503 -0.40986165825E+02 -0.14800231797E+02  0.40291426295E+02  0.59349066405E+02  0.00000000000E+00 0.  1.
<mgrwt>
<rscale>  0 0.18898296E+04</rscale>
<asrwt>0</asrwt>
<pdfrwt beam="1">  1        2 0.11940904E+00 0.18898296E+04</pdfrwt>
<pdfrwt beam="2">  1       -1 0.17697886E+00 0.18898296E+04</pdfrwt>
<totfact> 0.83942125E+00</totfact>
</mgrwt>
</event>
<event>
12    6  0.1556619E-007  0.1458959E+04  0.7818608E-02  0.8912213E-01
         -1   -1    0    0    0  501 -0.00000000000E+00  0.00000000000E+00  0.23813550491E+03  0.23813550491E+03  0.00000000000E+00 0.  1.
          2   -1    0    0  501    0  0.00000000000E+00 -0.00000000000E+00 -0.22346124442E+04  0.22346124442E+04  0.00000000000E+00 0. -1.
         24    2    1    2    0    0  0.33844214601E+03  0.18639547770E+03 -0.10238449251E+04  0.10975542924E+04  0.84146501840E+02 0.  0.
        254    2    1    2    0    0 -0.33844214601E+03 -0.18639547770E+03 -0.97263201417E+03  0.13751936567E+04  0.89210884883E+03 0.  0.
         23    2    4    4    0    0 -0.13097613387E+03 -0.23553234889E+03 -0.10819208318E+04  0.11188208420E+04  0.92612931453E+02 0.  0.
         23    2    4    4    0    0 -0.20746601213E+03  0.49136871187E+02  0.10928881764E+03  0.25637281475E+03  0.91249088658E+02 0.  0.
          4    1    3    3  502    0  0.19089462814E+03  0.12388316431E+03 -0.70304732229E+03  0.73896098329E+03  0.00000000000E+00 0. -1.
         -3    1    3    3    0  502  0.14754751786E+03  0.62512313387E+02 -0.32079760281E+03  0.35859330909E+03  0.00000000000E+00 0.  1.
         11    1    5    5    0    0 -0.14266581062E+03 -0.19259120831E+03 -0.88013062949E+03  0.91218135916E+03  0.00000000000E+00 0. -1.
        -11    1    5    5    0    0  0.11689676744E+02 -0.42941140582E+02 -0.20179020232E+03  0.20663948279E+03  0.00000000000E+00 0.  1.
          1    1    6    6  503    0 -0.18551743845E+03  0.25417718983E+02  0.11991257929E+03  0.22235513729E+03  0.00000000000E+00 0. -1.
         -1    1    6    6    0  503 -0.21948573684E+02  0.23719152203E+02 -0.10623761653E+02  0.34017677459E+02  0.00000000000E+00 0.  1.
<mgrwt>
<rscale>  0 0.14589593E+04</rscale>
<asrwt>0</asrwt>
<pdfrwt beam="1">  1        2 0.34378654E+00 0.14589593E+04</pdfrwt>
<pdfrwt beam="2">  1       -1 0.36636230E-01 0.14589593E+04</pdfrwt>
<totfact> 0.39002509E+01</totfact>
</mgrwt>
</event>
<event>
12    6  0.1556619E-007  0.1144087E+04  0.7818608E-02  0.9163256E-01
         -1   -1    0    0    0  501 -0.00000000000E+00  0.00000000000E+00  0.12149248849E+04  0.12149248849E+04  0.00000000000E+00 0.  1.
          2   -1    0    0  501    0  0.00000000000E+00 -0.00000000000E+00 -0.26934474917E+03  0.26934474917E+03  0.00000000000E+00 0. -1.
         24    2    1    2    0    0 -0.29416770023E+01  0.49896427514E+02  0.14394983261E+03  0.17337954933E+03  0.82707961373E+02 0.  0.
        254    2    1    2    0    0  0.29416770023E+01 -0.49896427514E+02  0.80163030316E+03  0.13108900848E+04  0.10360132067E+04 0.  0.
         23    2    4    4    0    0 -0.18113521505E+03 -0.25991295825E+03 -0.11409437333E+03  0.34934783226E+03  0.93068092735E+02 0.  0.
         23    2    4    4    0    0  0.18407689205E+03  0.21001653073E+03  0.91572467649E+03  0.96154225252E+03  0.89557662255E+02 0.  0.
          2    1    3    3  502    0 -0.47761887232E+01 -0.60212181962E+01 -0.82183982324E+01  0.11252071667E+02  0.00000000000E+00 0. -1.
         -1    1    3    3    0  502  0.18345117209E+01  0.55917645710E+02  0.15216823084E+03  0.16212747766E+03  0.00000000000E+00 0.  1.
         11    1    5    5    0    0 -0.17695574191E+03 -0.22470042169E+03 -0.12516282082E+03  0.31220081009E+03  0.00000000000E+00 0.  1.
        -11    1    5    5    0    0 -0.41794731427E+01 -0.35212536559E+02  0.11068447497E+02  0.37147022177E+02  0.00000000000E+00 0. -1.
          1    1    6    6  503    0 -0.42626339123E+01  0.37543562819E+02  0.10932309102E+03  0.11566861021E+03  0.00000000000E+00 0. -1.
         -1    1    6    6    0  503  0.18833952597E+03  0.17247296792E+03  0.80640158547E+03  0.84587364231E+03  0.00000000000E+00 0.  1.
<mgrwt>
<rscale>  0 0.11440868E+04</rscale>
<asrwt>0</asrwt>
<pdfrwt beam="1">  1        2 0.41437654E-01 0.11440868E+04</pdfrwt>
<pdfrwt beam="2">  1       -1 0.18691152E+00 0.11440868E+04</pdfrwt>
<totfact> 0.26122275E+01</totfact>
</mgrwt>
</event>
<event>
12    6  0.1556619E-007  0.1568290E+04  0.7818608E-02  0.8840269E-01
         -1   -1    0    0    0  501 -0.00000000000E+00  0.00000000000E+00  0.37543006516E+03  0.37543006516E+03  0.00000000000E+00 0.  1.
          2   -1    0    0  501    0  0.00000000000E+00 -0.00000000000E+00 -0.16378111382E+04  0.16378111382E+04  0.00000000000E+00 0. -1.
         24    2    1    2    0    0  0.29840795227E+03 -0.41958961800E+03 -0.32919624182E+03  0.61636814721E+03  0.80229506782E+02 0.  0.
        254    2    1    2    0    0 -0.29840795227E+03  0.41958961800E+03 -0.93318483117E+03  0.13968730561E+04  0.90294941842E+03 0.  0.
         23    2    4    4    0    0 -0.18636720100E+02  0.65480568628E+03 -0.60979186413E+03  0.89951222669E+03  0.90323387213E+02 0.  0.
         23    2    4    4    0    0 -0.27977123217E+03 -0.23521606828E+03 -0.32339296704E+03  0.49736082942E+03  0.95844887062E+02 0.  0.
          2    1    3    3  502    0  0.29866636093E+03 -0.42134834828E+03 -0.33131644737E+03  0.61360134783E+03  0.00000000000E+00 0. -1.
         -1    1    3    3    0  502 -0.25840866646E+00  0.17587302823E+01  0.21202055541E+01  0.27667993850E+01  0.00000000000E+00 0.  1.
         11    1    5    5    0    0 -0.23092753866E+02  0.39095327763E+03 -0.30524810785E+03  0.49654219147E+03  0.00000000000E+00 0. -1.
        -11    1    5    5    0    0  0.44560337662E+01  0.26385240865E+03 -0.30454375628E+03  0.40297003521E+03  0.00000000000E+00 0.  1.
          2    1    6    6  503    0 -0.16875990023E+03 -0.17004830842E+03 -0.15477051616E+03  0.28521964132E+03  0.00000000000E+00 0. -1.
         -2    1    6    6    0  503 -0.11101133194E+03 -0.65167759859E+02 -0.16862245088E+03  0.21214118810E+03  0.00000000000E+00 0.  1.
<mgrwt>
<rscale>  0 0.15682902E+04</rscale>
<asrwt>0</asrwt>
<pdfrwt beam="1">  1        2 0.25197094E+00 0.15682902E+04</pdfrwt>
<pdfrwt beam="2">  1       -1 0.57758473E-01 0.15682902E+04</pdfrwt>
<totfact> 0.35319312E+01</totfact>
</mgrwt>
</event>
<event>
12    6  0.1556619E-007  0.2664717E+04  0.7818608E-02  0.8346545E-01
         -1   -1    0    0    0  501 -0.00000000000E+00  0.00000000000E+00  0.20657466309E+04  0.20657466309E+04  0.00000000000E+00 0.  1.
          2   -1    0    0  501    0  0.00000000000E+00 -0.00000000000E+00 -0.85934040716E+03  0.85934040716E+03  0.00000000000E+00 0. -1.
         24    2    1    2    0    0  0.56632295694E+03  0.98506957618E+03  0.85999062989E+03  0.14273221767E+04  0.81123061131E+02 0.  0.
        254    2    1    2    0    0 -0.56632295694E+03 -0.98506957618E+03  0.34641559388E+03  0.14977648614E+04  0.91225657298E+03 0.  0.
         23    2    4    4    0    0 -0.44571709188E+03 -0.15282698176E+03 -0.16718319138E+03  0.50824004862E+03  0.91312185363E+02 0.  0.
         23    2    4    4    0    0 -0.12060586506E+03 -0.83224259442E+03  0.51359878526E+03  0.98952481280E+03  0.90565624116E+02 0.  0.
          4    1    3    3  502    0  0.31224970521E+03  0.54354337130E+03  0.42366139142E+03  0.75658988195E+03  0.00000000000E+00 0. -1.
         -3    1    3    3    0  502  0.25407325173E+03  0.44152620488E+03  0.43632923847E+03  0.67073229472E+03  0.00000000000E+00 0.  1.
         11    1    5    5    0    0 -0.91940712846E+02 -0.11767656230E+02 -0.98628646568E+00  0.92695982506E+02  0.00000000000E+00 0. -1.
        -11    1    5    5    0    0 -0.35377637903E+03 -0.14105932553E+03 -0.16619690491E+03  0.41554406611E+03  0.00000000000E+00 0.  1.
          2    1    6    6  503    0 -0.30664914434E+02 -0.21890237971E+03  0.89693366336E+02  0.23854452159E+03  0.00000000000E+00 0. -1.
         -2    1    6    6    0  503 -0.89940950625E+02 -0.61334021472E+03  0.42390541892E+03  0.75098029121E+03  0.00000000000E+00 0.  1.
<mgrwt>
<rscale>  0 0.26647173E+04</rscale>
<asrwt>0</asrwt>
<pdfrwt beam="1">  1        2 0.13220622E+00 0.26647173E+04</pdfrwt>
<pdfrwt beam="2">  1       -1 0.31780717E+00 0.26647173E+04</pdfrwt>
<totfact> 0.79344310E-01</totfact>
</mgrwt>
</event>
<event>
12    6  0.1556619E-007  0.1394359E+04  0.7818608E-02  0.8957912E-01
          2   -1    0    0  501    0  0.00000000000E+00  0.00000000000E+00  0.19182837823E+04  0.19182837823E+04  0.00000000000E+00 0. -1.
         -1   -1    0    0    0  501 -0.00000000000E+00 -0.00000000000E+00 -0.25338225285E+03  0.25338225285E+03  0.00000000000E+00 0.  1.
         24    2    1    2    0    0 -0.21857796701E+03  0.13952769250E+03 -0.42144957078E+01  0.27117206222E+03  0.79197352973E+02 0.  0.
        254    2    1    2    0    0  0.21857796701E+03 -0.13952769250E+03  0.16691160251E+04  0.19004939729E+04  0.87102510360E+03 0.  0.
         23    2    4    4    0    0  0.42586300651E+03 -0.34877757390E+03  0.13294870747E+04  0.14418462505E+04  0.91540329177E+02 0.  0.
         23    2    4    4    0    0 -0.20728503950E+03  0.20924988141E+03  0.33962895041E+03  0.45864772241E+03  0.90869735592E+02 0.  0.
          4    1    3    3  502    0 -0.42920125009E+02  0.63887442552E+02 -0.19230763199E+02  0.79331990394E+02  0.00000000000E+00 0. -1.
         -3    1    3    3    0  502 -0.17565784200E+03  0.75640249945E+02  0.15016267491E+02  0.19184007183E+03  0.00000000000E+00 0.  1.
         11    1    5    5    0    0  0.13882027026E+03 -0.16926317409E+03  0.49094507425E+03  0.53753898042E+03  0.00000000000E+00 0. -1.
        -11    1    5    5    0    0  0.28704273626E+03 -0.17951439982E+03  0.83854200049E+03  0.90430727010E+03  0.00000000000E+00 0.  1.
          2    1    6    6  503    0 -0.21268215576E+03  0.21049590932E+03  0.34020331833E+03  0.45307893906E+03  0.00000000000E+00 0. -1.
         -2    1    6    6    0  503  0.53971162575E+01 -0.12460279167E+01 -0.57436792002E+00  0.55687833477E+01  0.00000000000E+00 0.  1.
<mgrwt>
<rscale>  0 0.13943587E+04</rscale>
<asrwt>0</asrwt>
<pdfrwt beam="1">  1        2 0.29512057E+00 0.13943587E+04</pdfrwt>
<pdfrwt beam="2">  1       -1 0.38981886E-01 0.13943587E+04</pdfrwt>
<totfact> 0.52555135E+01</totfact>
</mgrwt>
</event>
<event>
12    6  0.1556619E-007  0.2623940E+04  0.7818608E-02  0.8360115E-01
         -1   -1    0    0    0  501 -0.00000000000E+00  0.00000000000E+00  0.75233637960E+03  0.75233637960E+03  0.00000000000E+00 0.  1.
          2   -1    0    0  501    0  0.00000000000E+00 -0.00000000000E+00 -0.22878931098E+04  0.22878931098E+04  0.00000000000E+00 0. -1.
         24    2    1    2    0    0 -0.71020125356E+03  0.83277997982E+03 -0.11191176440E+04  0.15673713368E+04  0.79500256194E+02 0.  0.
        254    2    1    2    0    0  0.71020125356E+03 -0.83277997982E+03 -0.41643908620E+03  0.14728581527E+04  0.89329799621E+03 0.  0.
         23    2    4    4    0    0  0.75347918012E+03 -0.34623825808E+03 -0.49639612294E+03  0.97045369714E+03  0.88087803833E+02 0.  0.
         23    2    4    4    0    0 -0.43277926556E+02 -0.48654172174E+03  0.79957036739E+02  0.50240445554E+03  0.86146870542E+02 0.  0.
          4    1    3    3  502    0 -0.29127999434E+03  0.37075166371E+03 -0.43283087933E+03  0.64003390641E+03  0.00000000000E+00 0. -1.
         -3    1    3    3    0  502 -0.41892125922E+03  0.46202831611E+03 -0.68628676470E+03  0.92733743035E+03  0.00000000000E+00 0.  1.
         11    1    5    5    0    0  0.47421954981E+03 -0.17325608210E+03 -0.28397536596E+03  0.57926147798E+03  0.00000000000E+00 0.  1.
        -11    1    5    5    0    0  0.27925963031E+03 -0.17298217599E+03 -0.21242075698E+03  0.39119221915E+03  0.00000000000E+00 0. -1.
          4    1    6    6  503    0 -0.21644038403E+02 -0.19351516814E+03  0.74625861264E+02  0.20853202121E+03  0.00000000000E+00 0. -1.
         -4    1    6    6    0  503 -0.21633888153E+02 -0.29302655360E+03  0.53311754749E+01  0.29387243433E+03  0.00000000000E+00 0.  1.
<mgrwt>
<rscale>  0 0.26239400E+04</rscale>
<asrwt>0</asrwt>
<pdfrwt beam="1">  1        2 0.35198355E+00 0.26239400E+04</pdfrwt>
<pdfrwt beam="2">  1       -1 0.11574406E+00 0.26239400E+04</pdfrwt>
<totfact> 0.31249216E+00</totfact>
</mgrwt>
</event>
<event>
12    6  0.1556619E-007  0.1568417E+04  0.7818608E-02  0.8840189E-01
          2   -1    0    0  501    0  0.00000000000E+00  0.00000000000E+00  0.23889074123E+04  0.23889074123E+04  0.00000000000E+00 0. -1.
         -1   -1    0    0    0  501 -0.00000000000E+00 -0.00000000000E+00 -0.25743257630E+03  0.25743257630E+03  0.00000000000E+00 0.  1.
         24    2    1    2    0    0  0.58838256023E+02 -0.34653581780E+03  0.14081690021E+04  0.14534601609E+04  0.77829861953E+02 0.  0.
        254    2    1    2    0    0 -0.58838256023E+02  0.34653581780E+03  0.72330583386E+03  0.11928798277E+04  0.88104593558E+03 0.  0.
         23    2    4    4    0    0  0.21026291158E+03  0.54106878802E+03  0.34773171187E+03  0.68267130702E+03  0.90315251400E+02 0.  0.
         23    2    4    4    0    0 -0.26910116760E+03 -0.19453297021E+03  0.37557412199E+03  0.51020852066E+03  0.94859361894E+02 0.  0.
          4    1    3    3  502    0  0.33963630340E+02 -0.32513377307E+03  0.12956468311E+04  0.13362508034E+04  0.00000000000E+00 0. -1.
         -3    1    3    3    0  502  0.24874625683E+02 -0.21402044732E+02  0.11252217098E+03  0.11720935750E+03  0.00000000000E+00 0.  1.
         11    1    5    5    0    0  0.60243124183E+02  0.85417491369E+02  0.35913743521E+02  0.11052230009E+03  0.00000000000E+00 0.  1.
        -11    1    5    5    0    0  0.15001978740E+03  0.45565129665E+03  0.31181796834E+03  0.57214900693E+03  0.00000000000E+00 0. -1.
          1    1    6    6  503    0 -0.19661601835E+03 -0.14933598422E+03  0.21096208589E+03  0.32475236187E+03  0.00000000000E+00 0. -1.
         -1    1    6    6    0  503 -0.72485149257E+02 -0.45196985991E+02  0.16461203610E+03  0.18545615879E+03  0.00000000000E+00 0.  1.
<mgrwt>
<rscale>  0 0.15684165E+04</rscale>
<asrwt>0</asrwt>
<pdfrwt beam="1">  1        2 0.36752420E+00 0.15684165E+04</pdfrwt>
<pdfrwt beam="2">  1       -1 0.39605013E-01 0.15684165E+04</pdfrwt>
<totfact> 0.27438921E+01</totfact>
</mgrwt>
</event>
<event>
12    6  0.1556619E-007  0.1399266E+04  0.7818608E-02  0.8954350E-01
          2   -1    0    0  501    0  0.00000000000E+00  0.00000000000E+00  0.14701638946E+04  0.14701638946E+04  0.00000000000E+00 0. -1.
         -1   -1    0    0    0  501 -0.00000000000E+00 -0.00000000000E+00 -0.33294691156E+03  0.33294691156E+03  0.00000000000E+00 0.  1.
         24    2    1    2    0    0  0.69250025522E+02  0.30649446446E+03  0.67162356050E+03  0.74589868207E+03  0.80945748009E+02 0.  0.
        254    2    1    2    0    0 -0.69250025522E+02 -0.30649446446E+03  0.46559342254E+03  0.10572121241E+04  0.89564826658E+03 0.  0.
         23    2    4    4    0    0  0.63160386806E+02  0.30132946072E+03  0.15099908513E+03  0.35408380887E+03  0.88237982933E+02 0.  0.
         23    2    4    4    0    0 -0.13241041233E+03 -0.60782392518E+03  0.31459433741E+03  0.70312831523E+03  0.91855262353E+02 0.  0.
          2    1    3    3  502    0  0.34844186891E+02  0.26032827041E+03  0.59190443322E+03  0.64756141315E+03  0.00000000000E+00 0. -1.
         -1    1    3    3    0  502  0.34405838632E+02  0.46166194051E+02  0.79719127274E+02  0.98337268919E+02  0.00000000000E+00 0.  1.
         11    1    5    5    0    0  0.48295118157E+02  0.11034785590E+03  0.98121156638E+02  0.15536032029E+03  0.00000000000E+00 0. -1.
        -11    1    5    5    0    0  0.14865268649E+02  0.19098160482E+03  0.52877928490E+02  0.19872348858E+03  0.00000000000E+00 0.  1.
          2    1    6    6  503    0  0.10640897753E+02 -0.15408353007E+02  0.15191915196E+02  0.24113073937E+02  0.00000000000E+00 0. -1.
         -2    1    6    6    0  503 -0.14305131008E+03 -0.59241557218E+03  0.29940242222E+03  0.67901524129E+03  0.00000000000E+00 0.  1.
<mgrwt>
<rscale>  0 0.13992663E+04</rscale>
<asrwt>0</asrwt>
<pdfrwt beam="1">  1        2 0.22617906E+00 0.13992663E+04</pdfrwt>
<pdfrwt beam="2">  1       -1 0.51222603E-01 0.13992663E+04</pdfrwt>
<totfact> 0.56097654E+01</totfact>
</mgrwt>
</event>
<event>
12    6  0.1556619E-007  0.2170368E+04  0.7818608E-02  0.8530864E-01
          2   -1    0    0  501    0  0.00000000000E+00  0.00000000000E+00  0.29110957237E+04  0.29110957237E+04  0.00000000000E+00 0. -1.
         -3   -1    0    0    0  501 -0.00000000000E+00 -0.00000000000E+00 -0.40452958011E+03  0.40452958011E+03  0.00000000000E+00 0.  1.
         24    2    1    2    0    0 -0.11859683859E+03 -0.18616582958E+03 -0.28930450122E+03  0.37117660130E+03  0.73157697462E+02 0.  0.
        254    2    1    2    0    0  0.11859683859E+03  0.18616582958E+03  0.27958706448E+04  0.29444487025E+04  0.89675112098E+03 0.  0.
         23    2    4    4    0    0  0.24819725010E+03 -0.59319212888E+02  0.21049714190E+03  0.34267709465E+03  0.89430981641E+02 0.  0.
         23    2    4    4    0    0 -0.12960041150E+03  0.24548504247E+03  0.25853735029E+04  0.26017716078E+04  0.89443709655E+02 0.  0.
          4    1    3    3  502    0 -0.45655630737E+02 -0.12494187461E+03 -0.20273095635E+03  0.24247628608E+03  0.00000000000E+00 0. -1.
         -3    1    3    3    0  502 -0.72941207857E+02 -0.61223954970E+02 -0.86573544870E+02  0.12870031522E+03  0.00000000000E+00 0.  1.
         11    1    5    5    0    0  0.34754731130E+02  0.11262779664E+02  0.65990569404E+02  0.75428753085E+02  0.00000000000E+00 0. -1.
        -11    1    5    5    0    0  0.21344251897E+03 -0.70581992552E+02  0.14450657250E+03  0.26724834157E+03  0.00000000000E+00 0.  1.
          3    1    6    6  503    0 -0.35624263120E+02  0.15620873134E+02  0.22148022403E+03  0.22487016129E+03  0.00000000000E+00 0. -1.
         -3    1    6    6    0  503 -0.93976148383E+02  0.22986416934E+03  0.23638932788E+04  0.23769014465E+04  0.00000000000E+00 0.  1.
<mgrwt>
<rscale>  0 0.21703680E+04</rscale>
<asrwt>0</asrwt>
<pdfrwt beam="1">  1        2 0.44786087E+00 0.21703680E+04</pdfrwt>
<pdfrwt beam="2">  1       -3 0.62235322E-01 0.21703680E+04</pdfrwt>
<totfact> 0.29329508E+00</totfact>
</mgrwt>
</event>
<event>
12    6  0.1556619E-007  0.4020480E+04  0.7818608E-02  0.8000428E-01
          2   -1    0    0  501    0  0.00000000000E+00  0.00000000000E+00  0.35574749724E+04  0.35574749724E+04  0.00000000000E+00 0. -1.
         -1   -1    0    0    0  501 -0.00000000000E+00 -0.00000000000E+00 -0.11359365244E+04  0.11359365244E+04  0.00000000000E+00 0.  1.
         24    2    1    2    0    0 -0.11566700666E+04  0.91428360800E+03  0.25621193829E+04  0.29571608106E+04  0.80896038085E+02 0.  0.
        254    2    1    2    0    0  0.11566700666E+04 -0.91428360800E+03 -0.14058093485E+03  0.17362506861E+04  0.90609231709E+03 0.  0.
         23    2    4    4    0    0 -0.13884653294E+03 -0.14912196979E+03 -0.64541139350E+01  0.22297519436E+03  0.90335818644E+02 0.  0.
         23    2    4    4    0    0  0.12955165995E+04 -0.76516163821E+03 -0.13412682092E+03  0.15132754918E+04  0.90427416785E+02 0.  0.
          2    1    3    3  502    0 -0.73933911519E+03  0.55433432634E+03  0.16668505157E+04  0.19058592588E+04  0.00000000000E+00 0. -1.
         -1    1    3    3    0  502 -0.41733095136E+03  0.35994928165E+03  0.89526886716E+03  0.10513015518E+04  0.00000000000E+00 0.  1.
         11    1    5    5    0    0 -0.11312629546E+03 -0.12772660277E+03 -0.40373064892E+02  0.17533290663E+03  0.00000000000E+00 0.  1.
        -11    1    5    5    0    0 -0.25720237483E+02 -0.21395367023E+02  0.33918950957E+02  0.47642287731E+02  0.00000000000E+00 0. -1.
          3    1    6    6  503    0  0.70138681311E+03 -0.36849999084E+03 -0.92677389469E+02  0.79769969498E+03  0.00000000000E+00 0. -1.
         -3    1    6    6    0  503  0.59412978639E+03 -0.39666164737E+03 -0.41449431449E+02  0.71557579677E+03  0.00000000000E+00 0.  1.
<mgrwt>
<rscale>  0 0.40204804E+04</rscale>
<asrwt>0</asrwt>
<pdfrwt beam="1">  1        2 0.54730384E+00 0.40204804E+04</pdfrwt>
<pdfrwt beam="2">  1       -1 0.17475947E+00 0.40204804E+04</pdfrwt>
<totfact> 0.14999651E-01</totfact>
</mgrwt>
</event>
<event>
12    6  0.1556619E-007  0.1776298E+04  0.7818608E-02  0.8719006E-01
          2   -1    0    0  501    0  0.00000000000E+00  0.00000000000E+00  0.11282011561E+04  0.11282011561E+04  0.00000000000E+00 0. -1.
         -1   -1    0    0    0  501 -0.00000000000E+00 -0.00000000000E+00 -0.69917384768E+03  0.69917384768E+03  0.00000000000E+00 0.  1.
         24    2    1    2    0    0  0.14953116486E+03  0.33442835787E+03  0.72884977288E+03  0.81976633597E+03  0.81197034151E+02 0.  0.
        254    2    1    2    0    0 -0.14953116486E+03 -0.33442835787E+03 -0.29982246449E+03  0.10076086678E+04  0.88948289548E+03 0.  0.
         23    2    4    4    0    0  0.34003450381E+03 -0.71988407484E+02 -0.25887617180E+03  0.44302895956E+03  0.91934716467E+02 0.  0.
         23    2    4    4    0    0 -0.48956566866E+03 -0.26243995039E+03 -0.40946292693E+02  0.56457970822E+03  0.92327550335E+02 0.  0.
          2    1    3    3  502    0  0.15341711470E+03  0.33512525431E+03  0.70440191672E+03  0.79500176568E+03  0.00000000000E+00 0. -1.
         -3    1    3    3    0  502 -0.38859498445E+01 -0.69689643902E+00  0.24447856157E+02  0.24764570287E+02  0.00000000000E+00 0.  1.
         11    1    5    5    0    0  0.17628741334E+03  0.91826033293E+01 -0.13522298104E+03  0.22236642487E+03  0.00000000000E+00 0.  1.
        -11    1    5    5    0    0  0.16374709047E+03 -0.81171010813E+02 -0.12365319076E+03  0.22066253469E+03  0.00000000000E+00 0. -1.
          1    1    6    6  503    0 -0.19055982667E+03 -0.71133393759E+02  0.20121806648E+02  0.20439641472E+03  0.00000000000E+00 0. -1.
         -1    1    6    6    0  503 -0.29900584199E+03 -0.19130655663E+03 -0.61068099341E+02  0.36018329349E+03  0.00000000000E+00 0.  1.
<mgrwt>
<rscale>  0 0.17762981E+04</rscale>
<asrwt>0</asrwt>
<pdfrwt beam="1">  1        2 0.17356941E+00 0.17762981E+04</pdfrwt>
<pdfrwt beam="2">  1       -1 0.10756521E+00 0.17762981E+04</pdfrwt>
<totfact> 0.18170575E+01</totfact>
</mgrwt>
</event>
<event>
12    6  0.1556619E-007  0.1898238E+04  0.7818608E-02  0.8655734E-01
          2   -1    0    0  501    0  0.00000000000E+00  0.00000000000E+00  0.84187661016E+03  0.84187661016E+03  0.00000000000E+00 0. -1.
         -1   -1    0    0    0  501 -0.00000000000E+00 -0.00000000000E+00 -0.10700219095E+04  0.10700219095E+04  0.00000000000E+00 0.  1.
         24    2    1    2    0    0  0.18219678634E+02 -0.47316181861E+03 -0.65487693202E+03  0.81221514101E+03  0.81336190645E+02 0.  0.
        254    2    1    2    0    0 -0.18219678634E+02  0.47316181861E+03  0.42673163269E+03  0.10996833786E+04  0.89609686062E+03 0.  0.
         23    2    4    4    0    0 -0.92644337448E+02 -0.42846414907E+02 -0.22341432356E+03  0.26138629147E+03  0.89387050877E+02 0.  0.
         23    2    4    4    0    0  0.74424658814E+02  0.51600823352E+03  0.65014595625E+03  0.83829708716E+03  0.90822436769E+02 0.  0.
          4    1    3    3  502    0 -0.23524791357E+01 -0.75936592955E+02 -0.60949735716E+02  0.97400054371E+02  0.00000000000E+00 0. -1.
         -3    1    3    3    0  502  0.20572157770E+02 -0.39722522566E+03 -0.59392719630E+03  0.71481508663E+03  0.00000000000E+00 0.  1.
         11    1    5    5    0    0 -0.10926488601E+03 -0.45460102933E+02 -0.20248544969E+03  0.23453313968E+03  0.00000000000E+00 0. -1.
        -11    1    5    5    0    0  0.16620548558E+02  0.26136880256E+01 -0.20928873873E+02  0.26853151790E+02  0.00000000000E+00 0.  1.
          4    1    6    6  503    0  0.21679880929E+02  0.78724958042E+02  0.57358168528E+02  0.99787753520E+02  0.00000000000E+00 0.  1.
         -4    1    6    6    0  503  0.52744777885E+02  0.43728327548E+03  0.59278778772E+03  0.73850933364E+03  0.00000000000E+00 0. -1.
<mgrwt>
<rscale>  0 0.18982375E+04</rscale>
<asrwt>0</asrwt>
<pdfrwt beam="1">  1        2 0.12951948E+00 0.18982375E+04</pdfrwt>
<pdfrwt beam="2">  1       -1 0.16461875E+00 0.18982375E+04</pdfrwt>
<totfact> 0.92731137E+00</totfact>
</mgrwt>
</event>
<event>
12    6  0.1556619E-007  0.2713934E+04  0.7818608E-02  0.8330498E-01
         -1   -1    0    0    0  501 -0.00000000000E+00  0.00000000000E+00  0.10716655045E+04  0.10716655045E+04  0.00000000000E+00 0.  1.
          2   -1    0    0  501    0  0.00000000000E+00 -0.00000000000E+00 -0.17182221067E+04  0.17182221067E+04  0.00000000000E+00 0. -1.
         24    2    1    2    0    0 -0.21364511161E+03  0.11735670692E+04 -0.47714250476E+03  0.12871632817E+04  0.78869793860E+02 0.  0.
        254    2    1    2    0    0  0.21364511161E+03 -0.11735670692E+04 -0.16941409749E+03  0.15027243294E+04  0.89809541490E+03 0.  0.
         23    2    4    4    0    0  0.29644013471E+03 -0.46339236724E+03  0.30922288699E+03  0.63809346212E+03  0.94526361812E+02 0.  0.
         23    2    4    4    0    0 -0.82795023104E+02 -0.71017470195E+03 -0.47863698448E+03  0.86463086732E+03  0.85381793600E+02 0.  0.
          2    1    3    3  502    0 -0.14102305945E+03  0.78620818247E+03 -0.27925792476E+03  0.84616534910E+03  0.00000000000E+00 0. -1.
         -1    1    3    3    0  502 -0.72622052158E+02  0.38735888672E+03 -0.19788458000E+03  0.44099793263E+03  0.00000000000E+00 0.  1.
         11    1    5    5    0    0  0.14912976615E+02 -0.80146637639E+02  0.31484711034E+02  0.87390888686E+02  0.00000000000E+00 0. -1.
        -11    1    5    5    0    0  0.28152715810E+03 -0.38324572960E+03  0.27773817595E+03  0.55070257343E+03  0.00000000000E+00 0.  1.
          1    1    6    6  503    0  0.16585802922E+02 -0.16294594750E+03 -0.10296866368E+03  0.19346580154E+03  0.00000000000E+00 0. -1.
         -1    1    6    6    0  503 -0.99380826025E+02 -0.54722875445E+03 -0.37566832079E+03  0.67116506578E+03  0.00000000000E+00 0.  1.
<mgrwt>
<rscale>  0 0.27139339E+04</rscale>
<asrwt>0</asrwt>
<pdfrwt beam="1">  1        2 0.26434186E+00 0.27139339E+04</pdfrwt>
<pdfrwt beam="2">  1       -1 0.16487162E+00 0.27139339E+04</pdfrwt>
<totfact> 0.25668136E+00</totfact>
</mgrwt>
</event>
<event>
12    6  0.1556619E-007  0.2924989E+04  0.7818608E-02  0.8265481E-01
          2   -1    0    0  501    0  0.00000000000E+00  0.00000000000E+00  0.21838692642E+04  0.21838692642E+04  0.00000000000E+00 0. -1.
         -1   -1    0    0    0  501 -0.00000000000E+00 -0.00000000000E+00 -0.97940380057E+03  0.97940380057E+03  0.00000000000E+00 0.  1.
         24    2    1    2    0    0 -0.49804284156E+03 -0.12036577876E+04  0.76163389293E+03  0.15104706701E+04  0.67799090069E+02 0.  0.
        254    2    1    2    0    0  0.49804284156E+03  0.12036577876E+04  0.44283157072E+03  0.16528023947E+04  0.91586964906E+03 0.  0.
         23    2    4    4    0    0 -0.21723289865E+03  0.36258469170E+03  0.31968996786E+03  0.53816684892E+03  0.93616722972E+02 0.  0.
         23    2    4    4    0    0  0.71527574021E+03  0.84107309594E+03  0.12314160286E+03  0.11146355458E+04  0.90692933977E+02 0.  0.
          4    1    3    3  502    0 -0.22152038477E+03 -0.47804896477E+03  0.33698384844E+03  0.62542801960E+03  0.00000000000E+00 0. -1.
         -3    1    3    3    0  502 -0.27652245679E+03 -0.72560882287E+03  0.42465004448E+03  0.88504265050E+03  0.00000000000E+00 0.  1.
         11    1    5    5    0    0 -0.30753618023E+02  0.13380314588E+03  0.11338424321E+03  0.17805912916E+03  0.00000000000E+00 0. -1.
        -11    1    5    5    0    0 -0.18647928063E+03  0.22878154582E+03  0.20630572465E+03  0.36010771976E+03  0.00000000000E+00 0.  1.
          3    1    6    6  503    0  0.14486017270E+03  0.19700268170E+03  0.61130800394E+02  0.25205455955E+03  0.00000000000E+00 0. -1.
         -3    1    6    6    0  503  0.57041556750E+03  0.64407041424E+03  0.62010802467E+02  0.86258098621E+03  0.00000000000E+00 0.  1.
<mgrwt>
<rscale>  0 0.29249888E+04</rscale>
<asrwt>0</asrwt>
<pdfrwt beam="1">  1        2 0.33597989E+00 0.29249888E+04</pdfrwt>
<pdfrwt beam="2">  1       -1 0.15067751E+00 0.29249888E+04</pdfrwt>
<totfact> 0.17799730E+00</totfact>
</mgrwt>
</event>
<event>
12    6  0.1556619E-007  0.1917015E+04  0.7818608E-02  0.8646433E-01
          2   -1    0    0  501    0  0.00000000000E+00  0.00000000000E+00  0.25435946067E+04  0.25435946067E+04  0.00000000000E+00 0. -1.
         -1   -1    0    0    0  501 -0.00000000000E+00 -0.00000000000E+00 -0.36119602186E+03  0.36119602186E+03  0.00000000000E+00 0.  1.
         24    2    1    2    0    0  0.34642999741E+03  0.65587755845E+03  0.11655618923E+04  0.13838765293E+04  0.79941284713E+02 0.  0.
        254    2    1    2    0    0 -0.34642999741E+03 -0.65587755845E+03  0.10168366926E+04  0.15209140992E+04  0.85383471649E+03 0.  0.
         23    2    4    4    0    0  0.13976051859E+03 -0.60833794111E+03  0.61400586237E+03  0.88007114517E+03  0.88960487761E+02 0.  0.
         23    2    4    4    0    0 -0.48619051599E+03 -0.47539617332E+02  0.40283083023E+03  0.64084295407E+03  0.98821965898E+02 0.  0.
          2    1    3    3  502    0  0.27103355753E+03  0.44737244144E+03  0.85449280804E+03  0.10018778616E+04  0.00000000000E+00 0. -1.
         -1    1    3    3    0  502  0.75396439881E+02  0.20850511701E+03  0.31106908422E+03  0.38199866770E+03  0.00000000000E+00 0.  1.
         11    1    5    5    0    0  0.79417496624E+02 -0.49217725037E+03  0.46508857888E+03  0.68180126926E+03  0.00000000000E+00 0.  1.
        -11    1    5    5    0    0  0.60343021961E+02 -0.11616069074E+03  0.14891728349E+03  0.19826987592E+03  0.00000000000E+00 0. -1.
          1    1    6    6  503    0 -0.18351786549E+03 -0.76192759356E+01  0.93023077935E+02  0.20588869165E+03  0.00000000000E+00 0. -1.
         -1    1    6    6    0  503 -0.30267265050E+03 -0.39920341397E+02  0.30980775229E+03  0.43495426242E+03  0.00000000000E+00 0.  1.
<mgrwt>
<rscale>  0 0.19170146E+04</rscale>
<asrwt>0</asrwt>
<pdfrwt beam="1">  1        2 0.39132224E+00 0.19170146E+04</pdfrwt>
<pdfrwt beam="2">  1       -1 0.55568620E-01 0.19170146E+04</pdfrwt>
<totfact> 0.11460576E+01</totfact>
</mgrwt>
</event>
<event>
12    6  0.1556619E-007  0.1454960E+04  0.7818608E-02  0.8914969E-01
         -1   -1    0    0    0  501 -0.00000000000E+00  0.00000000000E+00  0.65847615037E+03  0.65847615037E+03  0.00000000000E+00 0.  1.
          2   -1    0    0  501    0  0.00000000000E+00 -0.00000000000E+00 -0.80371543581E+03  0.80371543581E+03  0.00000000000E+00 0. -1.
         24    2    1    2    0    0 -0.19997389789E+03 -0.30691230935E+03 -0.30498255827E+03  0.48367738918E+03  0.82126308151E+02 0.  0.
        254    2    1    2    0    0  0.19997389789E+03  0.30691230935E+03  0.15974327283E+03  0.97851419700E+03  0.89318945082E+03 0.  0.
         23    2    4    4    0    0  0.23038894768E+03 -0.17367329296E+03  0.34087708871E+03  0.45587754547E+03  0.91573287380E+02 0.  0.
         23    2    4    4    0    0 -0.30415049793E+02  0.48058560231E+03 -0.18113381587E+03  0.52263665153E+03  0.91934834908E+02 0.  0.
          4    1    3    3  502    0 -0.15878699531E+03 -0.17263140704E+03 -0.20144753431E+03  0.30918606317E+03  0.00000000000E+00 0. -1.
         -1    1    3    3    0  502 -0.41186902577E+02 -0.13428090230E+03 -0.10353502396E+03  0.17449132601E+03  0.00000000000E+00 0.  1.
         11    1    5    5    0    0  0.11370549096E+03 -0.71783339438E+02  0.22616329678E+03  0.26311902878E+03  0.00000000000E+00 0. -1.
        -11    1    5    5    0    0  0.11668345671E+03 -0.10188995352E+03  0.11471379193E+03  0.19275851670E+03  0.00000000000E+00 0.  1.
          3    1    6    6  503    0 -0.20919214953E+02  0.10707718287E+03 -0.80819669576E+02  0.13577538671E+03  0.00000000000E+00 0. -1.
         -3    1    6    6    0  503 -0.94958348404E+01  0.37350841944E+03 -0.10031414630E+03  0.38686126482E+03  0.00000000000E+00 0.  1.
<mgrwt>
<rscale>  0 0.14549604E+04</rscale>
<asrwt>0</asrwt>
<pdfrwt beam="1">  1        2 0.12364853E+00 0.14549604E+04</pdfrwt>
<pdfrwt beam="2">  1       -1 0.10130402E+00 0.14549604E+04</pdfrwt>
<totfact> 0.35066655E+01</totfact>
</mgrwt>
</event>
<event>
12    6  0.1556619E-007  0.1884999E+04  0.7818608E-02  0.8662359E-01
          2   -1    0    0  501    0  0.00000000000E+00  0.00000000000E+00  0.28140550909E+04  0.28140550909E+04  0.00000000000E+00 0. -1.
         -1   -1    0    0    0  501 -0.00000000000E+00 -0.00000000000E+00 -0.31566743126E+03  0.31566743126E+03  0.00000000000E+00 0.  1.
         24    2    1    2    0    0  0.59334926368E+03 -0.26924314710E+03  0.14993878465E+04  0.16365706831E+04  0.75129659493E+02 0.  0.
        254    2    1    2    0    0 -0.59334926368E+03  0.26924314710E+03  0.99899981320E+03  0.14931518391E+04  0.89830204651E+03 0.  0.
         23    2    4    4    0    0 -0.77210411178E+03  0.17988861269E+03  0.99279774881E+03  0.12737724256E+04  0.91346318282E+02 0.  0.
         23    2    4    4    0    0  0.17875484810E+03  0.89354534403E+02  0.62020643911E+01  0.21937941343E+03  0.90284732342E+02 0.  0.
          4    1    3    3  502    0  0.43476134378E+03 -0.19287822505E+03  0.11727035551E+04  0.12654853076E+04  0.00000000000E+00 0. -1.
         -3    1    3    3    0  502  0.15858791989E+03 -0.76364922047E+02  0.32668429139E+03  0.37108537548E+03  0.00000000000E+00 0.  1.
         11    1    5    5    0    0 -0.46367604091E+03  0.62642557110E+02  0.56891511977E+03  0.73660299645E+03  0.00000000000E+00 0. -1.
        -11    1    5    5    0    0 -0.30842807087E+03  0.11724605558E+03  0.42388262904E+03  0.53716942919E+03  0.00000000000E+00 0.  1.
          4    1    6    6  503    0  0.16489176551E+03  0.95626496102E+02  0.28141225581E+02  0.19268017456E+03  0.00000000000E+00 0. -1.
         -4    1    6    6    0  503  0.13863082593E+02 -0.62719616998E+01 -0.21939161190E+02  0.26699238871E+02  0.00000000000E+00 0.  1.
<mgrwt>
<rscale>  0 0.18849992E+04</rscale>
<asrwt>0</asrwt>
<pdfrwt beam="1">  1        2 0.43293154E+00 0.18849992E+04</pdfrwt>
<pdfrwt beam="2">  1       -1 0.48564222E-01 0.18849992E+04</pdfrwt>
<totfact> 0.10291070E+01</totfact>
</mgrwt>
</event>
<event>
12    6  0.1556619E-007  0.1380451E+04  0.7818608E-02  0.8968092E-01
         -1   -1    0    0    0  501 -0.00000000000E+00  0.00000000000E+00  0.32278282137E+03  0.32278282137E+03  0.00000000000E+00 0.  1.
          2   -1    0    0  501    0  0.00000000000E+00 -0.00000000000E+00 -0.14759494962E+04  0.14759494962E+04  0.00000000000E+00 0. -1.
         24    2    1    2    0    0  0.61766544996E+02  0.14919801161E+03 -0.94149955880E+03  0.95858662582E+03  0.79948403470E+02 0.  0.
        254    2    1    2    0    0 -0.61766544996E+02 -0.14919801161E+03 -0.21166711599E+03  0.84014569173E+03  0.79684795450E+03 0.  0.
         23    2    4    4    0    0 -0.41931334971E+03 -0.77768642780E+02 -0.89592828896E+02  0.44511488740E+03  0.90712407955E+02 0.  0.
         23    2    4    4    0    0  0.35754680471E+03 -0.71429368828E+02 -0.12207428710E+03  0.39503080432E+03  0.90583290429E+02 0.  0.
          4    1    3    3  502    0  0.63134456084E+02  0.15703046533E+03 -0.92390454309E+03  0.93927851638E+03  0.00000000000E+00 0. -1.
         -3    1    3    3    0  502 -0.13679110888E+01 -0.78324537247E+01 -0.17595015715E+02  0.19308109439E+02  0.00000000000E+00 0.  1.
         11    1    5    5    0    0 -0.17432280522E+03  0.50347626328E+01 -0.10614422043E+02  0.17471821660E+03  0.00000000000E+00 0. -1.
        -11    1    5    5    0    0 -0.24499054448E+03 -0.82803405413E+02 -0.78978406853E+02  0.27039667081E+03  0.00000000000E+00 0.  1.
          3    1    6    6  503    0  0.45527112849E+02 -0.41145390680E+02 -0.10354219308E+02  0.62232395390E+02  0.00000000000E+00 0. -1.
         -3    1    6    6    0  503  0.31201969186E+03 -0.30283978147E+02 -0.11172006779E+03  0.33279840893E+03  0.00000000000E+00 0.  1.
<mgrwt>
<rscale>  0 0.13804509E+04</rscale>
<asrwt>0</asrwt>
<pdfrwt beam="1">  1        2 0.22706915E+00 0.13804509E+04</pdfrwt>
<pdfrwt beam="2">  1       -1 0.49658896E-01 0.13804509E+04</pdfrwt>
<totfact> 0.59149524E+01</totfact>
</mgrwt>
</event>
<event>
12    6  0.1556619E-007  0.2228669E+04  0.7818608E-02  0.8506589E-01
          2   -1    0    0  501    0  0.00000000000E+00  0.00000000000E+00  0.17237208492E+04  0.17237208492E+04  0.00000000000E+00 0. -1.
         -1   -1    0    0    0  501 -0.00000000000E+00 -0.00000000000E+00 -0.72038450285E+03  0.72038450285E+03  0.00000000000E+00 0.  1.
         24    2    1    2    0    0 -0.12078040823E+03 -0.63130682767E+03 -0.31715938007E+03  0.72110806016E+03  0.79186769031E+02 0.  0.
        254    2    1    2    0    0  0.12078040823E+03  0.63130682767E+03  0.13204957264E+04  0.17229972919E+04  0.90104077971E+03 0.  0.
         23    2    4    4    0    0 -0.13864740149E+03  0.25237136844E+03 -0.20618266892E+02  0.30250989973E+03  0.90403080455E+02 0.  0.
         23    2    4    4    0    0  0.25942780972E+03  0.37893545923E+03  0.13411139933E+04  0.14204873922E+04  0.91119797669E+02 0.  0.
          2    1    3    3  502    0 -0.38798232625E+02 -0.31795673595E+03 -0.12078910850E+03  0.34233287532E+03  0.00000000000E+00 0. -1.
         -1    1    3    3    0  502 -0.81982175608E+02 -0.31335009172E+03 -0.19637027157E+03  0.37877518485E+03  0.00000000000E+00 0.  1.
         11    1    5    5    0    0 -0.47304254624E+02  0.31903391147E+02  0.19950991509E+02  0.60444693186E+02  0.00000000000E+00 0. -1.
        -11    1    5    5    0    0 -0.91343146864E+02  0.22046797729E+03 -0.40569258400E+02  0.24206520654E+03  0.00000000000E+00 0.  1.
          4    1    6    6  503    0  0.12983501048E+02  0.42243018003E+02  0.71370625782E+02  0.83945280356E+02  0.00000000000E+00 0. -1.
         -4    1    6    6    0  503  0.24644430867E+03  0.33669244123E+03  0.12697433675E+04  0.13365421118E+04  0.00000000000E+00 0.  1.
<mgrwt>
<rscale>  0 0.22286694E+04</rscale>
<asrwt>0</asrwt>
<pdfrwt beam="1">  1        2 0.26518782E+00 0.22286694E+04</pdfrwt>
<pdfrwt beam="2">  1       -1 0.11082839E+00 0.22286694E+04</pdfrwt>
<totfact> 0.74058004E+00</totfact>
</mgrwt>
</event>
<event>
12    6  0.1556619E-007  0.2114588E+04  0.7818608E-02  0.8554844E-01
          2   -1    0    0  501    0  0.00000000000E+00  0.00000000000E+00  0.12887622725E+04  0.12887622725E+04  0.00000000000E+00 0. -1.
         -1   -1    0    0    0  501 -0.00000000000E+00 -0.00000000000E+00 -0.86739852085E+03  0.86739852085E+03  0.00000000000E+00 0.  1.
         24    2    1    2    0    0  0.24363669313E+03 -0.51586373603E+03  0.83426784485E+03  0.10138456539E+04  0.80037120122E+02 0.  0.
        254    2    1    2    0    0 -0.24363669313E+03  0.51586373603E+03 -0.41290409322E+03  0.11423151394E+04  0.89939971936E+03 0.  0.
         23    2    4    4    0    0  0.25216618628E+03 -0.29296248151E+02 -0.27884339034E+03  0.38752936583E+03  0.89327024963E+02 0.  0.
         23    2    4    4    0    0 -0.49580287941E+03  0.54515998418E+03 -0.13406070288E+03  0.75478577360E+03  0.93324104021E+02 0.  0.
          4    1    3    3  502    0  0.18246474824E+03 -0.30630076804E+03  0.54942544243E+03  0.65496706913E+03  0.00000000000E+00 0. -1.
         -3    1    3    3    0  502  0.61171944890E+02 -0.20956296799E+03  0.28484240243E+03  0.35887858478E+03  0.00000000000E+00 0.  1.
         11    1    5    5    0    0  0.23828651986E+02  0.23859125957E+02 -0.46674605955E+02  0.57581085331E+02  0.00000000000E+00 0. -1.
        -11    1    5    5    0    0  0.22833753429E+03 -0.53155374108E+02 -0.23216878438E+03  0.32994828050E+03  0.00000000000E+00 0.  1.
          3    1    6    6  503    0 -0.32651511985E+03  0.30156734272E+03 -0.10514598662E+03  0.45673916427E+03  0.00000000000E+00 0. -1.
         -3    1    6    6    0  503 -0.16928775956E+03  0.24359264147E+03 -0.28914716258E+02  0.29804660933E+03  0.00000000000E+00 0.  1.
<mgrwt>
<rscale>  0 0.21145879E+04</rscale>
<asrwt>0</asrwt>
<pdfrwt beam="1">  1        2 0.19827112E+00 0.21145879E+04</pdfrwt>
<pdfrwt beam="2">  1       -1 0.13344593E+00 0.21145879E+04</pdfrwt>
<totfact> 0.83559768E+00</totfact>
</mgrwt>
</event>
<event>
12    6  0.1556619E-007  0.1235630E+04  0.7818608E-02  0.9082229E-01
         -1   -1    0    0    0  501 -0.00000000000E+00  0.00000000000E+00  0.24319098724E+03  0.24319098724E+03  0.00000000000E+00 0.  1.
          2   -1    0    0  501    0  0.00000000000E+00 -0.00000000000E+00 -0.15695301514E+04  0.15695301514E+04  0.00000000000E+00 0. -1.
         24    2    1    2    0    0  0.23032584018E+03  0.15706257555E+03 -0.33834540352E+03  0.44508379102E+03  0.76833089543E+02 0.  0.
        254    2    1    2    0    0 -0.23032584018E+03 -0.15706257555E+03 -0.98799376065E+03  0.13676373476E+04  0.90364904597E+03 0.  0.
         23    2    4    4    0    0  0.16860474894E+03  0.25131944041E+03 -0.57809503617E+03  0.65890692530E+03  0.91517445718E+02 0.  0.
         23    2    4    4    0    0 -0.39893058912E+03 -0.40838201597E+03 -0.40989872447E+03  0.70873042234E+03  0.91435011484E+02 0.  0.
          4    1    3    3  502    0  0.10012404990E+03  0.94265740869E+02 -0.21416540666E+03  0.25451459031E+03  0.00000000000E+00 0. -1.
         -3    1    3    3    0  502  0.13020179028E+03  0.62796834685E+02 -0.12417999686E+03  0.19056920071E+03  0.00000000000E+00 0.  1.
         11    1    5    5    0    0  0.46433033328E+01  0.28398901984E+02 -0.12267758049E+03  0.12600732778E+03  0.00000000000E+00 0. -1.
        -11    1    5    5    0    0  0.16396144560E+03  0.22292053843E+03 -0.45541745568E+03  0.53289959752E+03  0.00000000000E+00 0.  1.
          3    1    6    6  503    0  0.19613842585E+01 -0.51090926212E+00 -0.11653314032E+02  0.11828262105E+02  0.00000000000E+00 0. -1.
         -3    1    6    6    0  503 -0.40089197337E+03 -0.40787110670E+03 -0.39824541044E+03  0.69690216023E+03  0.00000000000E+00 0.  1.
<mgrwt>
<rscale>  0 0.12356303E+04</rscale>
<asrwt>0</asrwt>
<pdfrwt beam="1">  1        2 0.24146617E+00 0.12356303E+04</pdfrwt>
<pdfrwt beam="2">  1       -1 0.37413998E-01 0.12356303E+04</pdfrwt>
<totfact> 0.89479627E+01</totfact>
</mgrwt>
</event>
<event>
12    6  0.1556619E-007  0.1965556E+04  0.7818608E-02  0.8622896E-01
          2   -1    0    0  501    0  0.00000000000E+00  0.00000000000E+00  0.33512591142E+04  0.33512591142E+04  0.00000000000E+00 0. -1.
         -3   -1    0    0    0  501 -0.00000000000E+00 -0.00000000000E+00 -0.28820602172E+03  0.28820602172E+03  0.00000000000E+00 0.  1.
         24    2    1    2    0    0 -0.28645581855E+03  0.27544792149E+03  0.24789562110E+04  0.25120207846E+04  0.84237953424E+02 0.  0.
        254    2    1    2    0    0  0.28645581855E+03 -0.27544792149E+03  0.58409688155E+03  0.11274443514E+04  0.87865414414E+03 0.  0.
         23    2    4    4    0    0  0.58705688888E+03 -0.12136133415E+03  0.29805772488E+03  0.67547443227E+03  0.89793858841E+02 0.  0.
         23    2    4    4    0    0 -0.30060107033E+03 -0.15408658735E+03  0.28603915667E+03  0.45196991912E+03  0.91404205379E+02 0.  0.
          2    1    3    3  502    0 -0.28619666784E+03  0.26220948805E+03  0.22953463773E+04  0.23279341356E+04  0.00000000000E+00 0. -1.
         -3    1    3    3    0  502 -0.25915071349E+00  0.13238433439E+02  0.18360983372E+03  0.18408664894E+03  0.00000000000E+00 0.  1.
         11    1    5    5    0    0  0.17259784225E+03 -0.89788014132E+01  0.51689591544E+02  0.18039525465E+03  0.00000000000E+00 0.  1.
        -11    1    5    5    0    0  0.41445904662E+03 -0.11238253273E+03  0.24636813333E+03  0.49507917762E+03  0.00000000000E+00 0. -1.
          3    1    6    6  503    0 -0.27543707536E+03 -0.11317976560E+03  0.21964378159E+03  0.37002517835E+03  0.00000000000E+00 0. -1.
         -3    1    6    6    0  503 -0.25163994971E+02 -0.40906821742E+02  0.66395375081E+02  0.81944740771E+02  0.00000000000E+00 0.  1.
<mgrwt>
<rscale>  0 0.19655565E+04</rscale>
<asrwt>0</asrwt>
<pdfrwt beam="1">  1        2 0.51557830E+00 0.19655565E+04</pdfrwt>
<pdfrwt beam="2">  1       -3 0.44339390E-01 0.19655565E+04</pdfrwt>
<totfact> 0.31554724E+00</totfact>
</mgrwt>
</event>
<event>
12    6  0.1556619E-007  0.3345228E+04  0.7818608E-02  0.8151482E-01
         -1   -1    0    0    0  501 -0.00000000000E+00  0.00000000000E+00  0.80824791211E+03  0.80824791211E+03  0.00000000000E+00 0.  1.
          2   -1    0    0  501    0  0.00000000000E+00 -0.00000000000E+00 -0.34613597816E+04  0.34613597816E+04  0.00000000000E+00 0. -1.
         24    2    1    2    0    0 -0.56607171062E+03  0.21699520832E+03 -0.30524469714E+04  0.31130072367E+04  0.76533920333E+02 0.  0.
        254    2    1    2    0    0  0.56607171062E+03 -0.21699520832E+03  0.39933510182E+03  0.11566004570E+04  0.90040657019E+03 0.  0.
         23    2    4    4    0    0  0.52203592707E+03  0.25839774013E+03  0.14321616351E+03  0.60689837777E+03  0.92324808127E+02 0.  0.
         23    2    4    4    0    0  0.44035783558E+02 -0.47539294846E+03  0.25611893831E+03  0.54970207925E+03  0.92940086601E+02 0.  0.
          2    1    3    3  502    0 -0.36310359835E+03  0.12538909374E+03 -0.21028931050E+04  0.21376917595E+04  0.00000000000E+00 0. -1.
         -1    1    3    3    0  502 -0.20296811227E+03  0.91606114579E+02 -0.94955386640E+03  0.97531547717E+03  0.00000000000E+00 0.  1.
         11    1    5    5    0    0  0.22961788173E+03  0.10988884408E+03  0.15797710462E+02  0.25504802944E+03  0.00000000000E+00 0. -1.
        -11    1    5    5    0    0  0.29241804533E+03  0.14850889605E+03  0.12741845305E+03  0.35185034833E+03  0.00000000000E+00 0.  1.
          1    1    6    6  503    0 -0.13454923928E+02 -0.15055357103E+03  0.11932499118E+03  0.19257690995E+03  0.00000000000E+00 0. -1.
         -1    1    6    6    0  503  0.57490707487E+02 -0.32483937743E+03  0.13679394713E+03  0.35712516930E+03  0.00000000000E+00 0.  1.
<mgrwt>
<rscale>  0 0.33452275E+04</rscale>
<asrwt>0</asrwt>
<pdfrwt beam="1">  1        2 0.53251688E+00 0.33452275E+04</pdfrwt>
<pdfrwt beam="2">  1       -1 0.12434583E+00 0.33452275E+04</pdfrwt>
<totfact> 0.46272186E-01</totfact>
</mgrwt>
</event>
<event>
12    6  0.1556619E-007  0.3070298E+04  0.7818608E-02  0.8223937E-01
          2   -1    0    0  501    0  0.00000000000E+00  0.00000000000E+00  0.29360740668E+04  0.29360740668E+04  0.00000000000E+00 0. -1.
         -1   -1    0    0    0  501 -0.00000000000E+00 -0.00000000000E+00 -0.80266462981E+03  0.80266462981E+03  0.00000000000E+00 0.  1.
         24    2    1    2    0    0  0.95797063651E+03  0.97183913205E+03  0.58541196114E+03  0.14870000441E+04  0.79264922932E+02 0.  0.
        254    2    1    2    0    0 -0.95797063651E+03 -0.97183913205E+03  0.15479974758E+04  0.22517386524E+04  0.90102815425E+03 0.  0.
         23    2    4    4    0    0 -0.64924748514E+03 -0.83920769181E+03  0.55775684348E+03  0.12021356830E+04  0.90805600265E+02 0.  0.
         23    2    4    4    0    0 -0.30872315137E+03 -0.13263144024E+03  0.99024063233E+03  0.10496029694E+04  0.90491990241E+02 0.  0.
          4    1    3    3  502    0  0.25784631302E+03  0.22616382743E+03  0.17306034312E+03  0.38416751599E+03  0.00000000000E+00 0. -1.
         -3    1    3    3    0  502  0.70012432349E+03  0.74567530462E+03  0.41235161802E+03  0.11028325281E+04  0.00000000000E+00 0.  1.
         11    1    5    5    0    0 -0.61901183507E+03 -0.79784874348E+03  0.55127020466E+03  0.11504942885E+04  0.00000000000E+00 0.  1.
        -11    1    5    5    0    0 -0.30235650074E+02 -0.41358948336E+02  0.64866388161E+01  0.51641394501E+02  0.00000000000E+00 0. -1.
          3    1    6    6  503    0 -0.10066740977E+03 -0.63255816782E+02  0.23800913434E+03  0.26605182535E+03  0.00000000000E+00 0. -1.
         -3    1    6    6    0  503 -0.20805574160E+03 -0.69375623454E+02  0.75223149800E+03  0.78355114404E+03  0.00000000000E+00 0.  1.
<mgrwt>
<rscale>  0 0.30702982E+04</rscale>
<asrwt>0</asrwt>
<pdfrwt beam="1">  1        2 0.45170370E+00 0.30702982E+04</pdfrwt>
<pdfrwt beam="2">  1       -1 0.12348687E+00 0.30702982E+04</pdfrwt>
<totfact> 0.10638784E+00</totfact>
</mgrwt>
</event>
<event>
12    6  0.1556619E-007  0.1301444E+04  0.7818608E-02  0.9028421E-01
          2   -1    0    0  501    0  0.00000000000E+00  0.00000000000E+00  0.73440868872E+03  0.73440868872E+03  0.00000000000E+00 0. -1.
         -1   -1    0    0    0  501 -0.00000000000E+00 -0.00000000000E+00 -0.57657163221E+03  0.57657163221E+03  0.00000000000E+00 0.  1.
         24    2    1    2    0    0  0.23639930831E+03  0.16574960550E+03  0.22538029935E+03  0.37509375379E+03  0.80879417067E+02 0.  0.
        254    2    1    2    0    0 -0.23639930831E+03 -0.16574960550E+03 -0.67543242835E+02  0.93588656714E+03  0.88767337023E+03 0.  0.
         23    2    4    4    0    0  0.19201400921E+03  0.12022579054E+03  0.22811495256E+03  0.33539123492E+03  0.95536529330E+02 0.  0.
         23    2    4    4    0    0 -0.42841331752E+03 -0.28597539604E+03 -0.29565819539E+03  0.60049533222E+03  0.88662155103E+02 0.  0.
          4    1    3    3  502    0  0.23523611050E+03  0.17292680201E+03  0.21574463104E+03  0.36302266095E+03  0.00000000000E+00 0. -1.
         -3    1    3    3    0  502  0.11631978055E+01 -0.71771965018E+01  0.96356683078E+01  0.12071092846E+02  0.00000000000E+00 0.  1.
         11    1    5    5    0    0 -0.71748054089E+01  0.13063735612E+02  0.34774126645E+02  0.37833568491E+02  0.00000000000E+00 0. -1.
        -11    1    5    5    0    0  0.19918881462E+03  0.10716205492E+03  0.19334082591E+03  0.29755766643E+03  0.00000000000E+00 0.  1.
          3    1    6    6  503    0 -0.90069807215E+02 -0.81098646166E+02 -0.32735235197E+02  0.12554344350E+03  0.00000000000E+00 0. -1.
         -3    1    6    6    0  503 -0.33834351031E+03 -0.20487674987E+03 -0.26292296019E+03  0.47495188873E+03  0.00000000000E+00 0.  1.
<mgrwt>
<rscale>  0 0.13014441E+04</rscale>
<asrwt>0</asrwt>
<pdfrwt beam="1">  1        2 0.11298595E+00 0.13014441E+04</pdfrwt>
<pdfrwt beam="2">  1       -1 0.88703328E-01 0.13014441E+04</pdfrwt>
<totfact> 0.53819266E+01</totfact>
</mgrwt>
</event>
<event>
12    6  0.1556619E-007  0.1648088E+04  0.7818608E-02  0.8791539E-01
          2   -1    0    0  501    0  0.00000000000E+00  0.00000000000E+00  0.20545370415E+04  0.20545370415E+04  0.00000000000E+00 0. -1.
         -1   -1    0    0    0  501 -0.00000000000E+00 -0.00000000000E+00 -0.33051149389E+03  0.33051149389E+03  0.00000000000E+00 0.  1.
         24    2    1    2    0    0  0.55170860246E+03  0.15149463088E+03  0.38320867612E+03  0.69310180436E+03  0.78792236576E+02 0.  0.
        254    2    1    2    0    0 -0.55170860246E+03 -0.15149463088E+03  0.13408168715E+04  0.16919467310E+04  0.85881363085E+03 0.  0.
         23    2    4    4    0    0 -0.23100946027E+03  0.21897942004E+03  0.10802713594E+04  0.11293840150E+04  0.84880423428E+02 0.  0.
         23    2    4    4    0    0 -0.32069914219E+03 -0.37047405092E+03  0.26054551209E+03  0.56256271602E+03  0.92162266549E+02 0.  0.
          4    1    3    3  502    0  0.60497103356E+02  0.11341607512E+02  0.72945083807E+02  0.95443788834E+02  0.00000000000E+00 0. -1.
         -1    1    3    3    0  502  0.49121149910E+03  0.14015302337E+03  0.31026359231E+03  0.59765801553E+03  0.00000000000E+00 0.  1.
         11    1    5    5    0    0 -0.19747811726E+03  0.21157667078E+03  0.88514958421E+03  0.93126370102E+03  0.00000000000E+00 0. -1.
        -11    1    5    5    0    0 -0.33531343002E+02  0.74027492609E+01  0.19512177518E+03  0.19812031398E+03  0.00000000000E+00 0.  1.
          4    1    6    6  503    0 -0.22234974668E+03 -0.19894358178E+03  0.18402491119E+03  0.35054689632E+03  0.00000000000E+00 0. -1.
         -4    1    6    6    0  503 -0.98349395511E+02 -0.17153046914E+03  0.76520600903E+02  0.21201581970E+03  0.00000000000E+00 0.  1.
<mgrwt>
<rscale>  0 0.16480875E+04</rscale>
<asrwt>0</asrwt>
<pdfrwt beam="1">  1        2 0.31608261E+00 0.16480875E+04</pdfrwt>
<pdfrwt beam="2">  1       -1 0.50847923E-01 0.16480875E+04</pdfrwt>
<totfact> 0.26356781E+01</totfact>
</mgrwt>
</event>
<event>
12    6  0.1556619E-007  0.1259906E+04  0.7818608E-02  0.9061979E-01
         -1   -1    0    0    0  501 -0.00000000000E+00  0.00000000000E+00  0.39563555902E+03  0.39563555902E+03  0.00000000000E+00 0.  1.
          2   -1    0    0  501    0  0.00000000000E+00 -0.00000000000E+00 -0.10030456479E+04  0.10030456479E+04  0.00000000000E+00 0. -1.
         24    2    1    2    0    0  0.24386792640E+03 -0.16297037083E+03 -0.80204768839E+02  0.31391494994E+03  0.77967195379E+02 0.  0.
        254    2    1    2    0    0 -0.24386792640E+03  0.16297037083E+03 -0.52720532003E+03  0.10847662570E+04  0.90152175543E+03 0.  0.
         23    2    4    4    0    0  0.22431725101E+03 -0.21866712829E+03 -0.10578950793E+03  0.34305186566E+03  0.91430960037E+02 0.  0.
         23    2    4    4    0    0 -0.46818517741E+03  0.38163749912E+03 -0.42141581210E+03  0.74171439131E+03  0.87774771494E+02 0.  0.
          2    1    3    3  502    0  0.79283025625E+01 -0.25984791681E+02  0.59502855975E+01  0.27811387576E+02  0.00000000000E+00 0. -1.
         -1    1    3    3    0  502  0.23593962384E+03 -0.13698557915E+03 -0.86155054437E+02  0.28610356236E+03  0.00000000000E+00 0.  1.
         11    1    5    5    0    0  0.18727372568E+03 -0.14223886750E+03 -0.47160418865E+02  0.23984880418E+03  0.00000000000E+00 0. -1.
        -11    1    5    5    0    0  0.37043525333E+02 -0.76428260787E+02 -0.58629089065E+02  0.10320306149E+03  0.00000000000E+00 0.  1.
          1    1    6    6  503    0 -0.32123682482E+03  0.31130394547E+03 -0.31553735719E+03  0.54741854907E+03  0.00000000000E+00 0. -1.
         -1    1    6    6    0  503 -0.14694835259E+03  0.70333553652E+02 -0.10587845491E+03  0.19429584224E+03  0.00000000000E+00 0.  1.
<mgrwt>
<rscale>  0 0.12599056E+04</rscale>
<asrwt>0</asrwt>
<pdfrwt beam="1">  1        2 0.15431471E+00 0.12599056E+04</pdfrwt>
<pdfrwt beam="2">  1       -1 0.60867010E-01 0.12599056E+04</pdfrwt>
<totfact> 0.76961684E+01</totfact>
</mgrwt>
</event>
<event>
12    6  0.1556619E-007  0.1804203E+04  0.7818608E-02  0.8704068E-01
          2   -1    0    0  501    0  0.00000000000E+00  0.00000000000E+00  0.23285750656E+04  0.23285750656E+04  0.00000000000E+00 0. -1.
         -1   -1    0    0    0  501 -0.00000000000E+00 -0.00000000000E+00 -0.34947852089E+03  0.34947852089E+03  0.00000000000E+00 0.  1.
         24    2    1    2    0    0 -0.34221335381E+03  0.42260344737E+03  0.13339745520E+04  0.14427802920E+04  0.80144945851E+02 0.  0.
        254    2    1    2    0    0  0.34221335381E+03 -0.42260344737E+03  0.64512199266E+03  0.12352732944E+04  0.90222728471E+03 0.  0.
         23    2    4    4    0    0 -0.23180765491E+03 -0.18140909301E+03  0.50413900127E+03  0.59070230236E+03  0.90161130834E+02 0.  0.
         23    2    4    4    0    0  0.57402100872E+03 -0.24119435436E+03  0.14098299140E+03  0.64457099208E+03  0.88998454691E+02 0.  0.
          2    1    3    3  502    0 -0.28558969187E+03  0.37330885273E+03  0.10777390130E+04  0.11757730868E+04  0.00000000000E+00 0. -1.
         -1    1    3    3    0  502 -0.56623661937E+02  0.49294594645E+02  0.25623553905E+03  0.26700720520E+03  0.00000000000E+00 0.  1.
         11    1    5    5    0    0 -0.10990765406E+03 -0.11135683306E+03  0.34203416201E+03  0.37612152913E+03  0.00000000000E+00 0.  1.
        -11    1    5    5    0    0 -0.12190000085E+03 -0.70052259949E+02  0.16210483925E+03  0.21458077323E+03  0.00000000000E+00 0. -1.
          1    1    6    6  503    0  0.21152674365E+03 -0.87041890141E+02  0.96133879177E+02  0.24811605479E+03  0.00000000000E+00 0. -1.
         -1    1    6    6    0  503  0.36249426507E+03 -0.15415246422E+03  0.44849112220E+02  0.39645493729E+03  0.00000000000E+00 0.  1.
<mgrwt>
<rscale>  0 0.18042028E+04</rscale>
<asrwt>0</asrwt>
<pdfrwt beam="1">  1        2 0.35824231E+00 0.18042028E+04</pdfrwt>
<pdfrwt beam="2">  1       -1 0.53765928E-01 0.18042028E+04</pdfrwt>
<totfact> 0.16394806E+01</totfact>
</mgrwt>
</event>
<event>
12    6  0.1556619E-007  0.1262465E+04  0.7818608E-02  0.9059872E-01
          4   -1    0    0  501    0  0.00000000000E+00  0.00000000000E+00  0.19169378144E+03  0.19169378144E+03  0.00000000000E+00 0. -1.
         -3   -1    0    0    0  501 -0.00000000000E+00 -0.00000000000E+00 -0.20785978676E+04  0.20785978676E+04  0.00000000000E+00 0.  1.
         24    2    1    2    0    0  0.28498621186E+03  0.43095582039E+02 -0.28743909154E+03  0.41557103414E+03  0.83688009445E+02 0.  0.
        254    2    1    2    0    0 -0.28498621186E+03 -0.43095582039E+02 -0.15994649946E+04  0.18547206149E+04  0.89365872692E+03 0.  0.
         23    2    4    4    0    0  0.24964212231E+02 -0.42595944264E+03 -0.80022781687E+03  0.91136354501E+03  0.90301127389E+02 0.  0.
         23    2    4    4    0    0 -0.30995042409E+03  0.38286386060E+03 -0.79923717772E+03  0.94335706987E+03  0.92133022758E+02 0.  0.
          2    1    3    3  502    0  0.57061820267E+02  0.12891625925E+02 -0.17654430868E+02  0.61105844895E+02  0.00000000000E+00 0. -1.
         -1    1    3    3    0  502  0.22792439159E+03  0.30203956114E+02 -0.26978466068E+03  0.35446518924E+03  0.00000000000E+00 0.  1.
         11    1    5    5    0    0 -0.59001606466E+01 -0.30415940828E+03 -0.49130731176E+03  0.57786731360E+03  0.00000000000E+00 0. -1.
        -11    1    5    5    0    0  0.30864372877E+02 -0.12180003436E+03 -0.30892050511E+03  0.33349623141E+03  0.00000000000E+00 0.  1.
          4    1    6    6  503    0 -0.29747868797E+03  0.38665522549E+03 -0.78288599932E+03  0.92244583642E+03  0.00000000000E+00 0. -1.
         -4    1    6    6    0  503 -0.12471736121E+02 -0.37913648864E+01 -0.16351178397E+02  0.20911233454E+02  0.00000000000E+00 0.  1.
<mgrwt>
<rscale>  0 0.12624647E+04</rscale>
<asrwt>0</asrwt>
<pdfrwt beam="1">  1        4 0.29491353E-01 0.12624647E+04</pdfrwt>
<pdfrwt beam="2">  1       -3 0.31978427E+00 0.12624647E+04</pdfrwt>
<totfact> 0.74556499E-01</totfact>
</mgrwt>
</event>
<event>
12    6  0.1556619E-007  0.1705171E+04  0.7818608E-02  0.8758421E-01
          2   -1    0    0  501    0  0.00000000000E+00  0.00000000000E+00  0.37441944726E+04  0.37441944726E+04  0.00000000000E+00 0. -1.
         -1   -1    0    0    0  501 -0.00000000000E+00 -0.00000000000E+00 -0.19414115405E+03  0.19414115405E+03  0.00000000000E+00 0.  1.
         24    2    1    2    0    0  0.61859806708E+02 -0.58076973911E+03  0.87243334630E+03  0.10526354838E+04  0.76035468012E+02 0.  0.
        254    2    1    2    0    0 -0.61859806708E+02  0.58076973911E+03  0.26776199722E+04  0.28857001429E+04  0.90360194407E+03 0.  0.
         23    2    4    4    0    0  0.12447555952E+03  0.26391498296E+03  0.23911529703E+04  0.24106145034E+04  0.91128882743E+02 0.  0.
         23    2    4    4    0    0 -0.18633536622E+03  0.31685475615E+03  0.28646700194E+03  0.47508563952E+03  0.92332098845E+02 0.  0.
          2    1    3    3  502    0  0.51326322099E+02 -0.28939948820E+03  0.49530107782E+03  0.57594236934E+03  0.00000000000E+00 0. -1.
         -1    1    3    3    0  502  0.10533484609E+02 -0.29137025091E+03  0.37713226848E+03  0.47669311443E+03  0.00000000000E+00 0.  1.
         11    1    5    5    0    0  0.11718667430E+02  0.64938536111E+02  0.85339812735E+03  0.85594550317E+03  0.00000000000E+00 0. -1.
        -11    1    5    5    0    0  0.11275689209E+03  0.19897644685E+03  0.15377548430E+04  0.15546690002E+04  0.00000000000E+00 0.  1.
          2    1    6    6  503    0  0.87227195823E+01  0.34809252322E+02  0.31693467514E+02  0.47877403514E+02  0.00000000000E+00 0. -1.
         -2    1    6    6    0  503 -0.19505808581E+03  0.28204550383E+03  0.25477353442E+03  0.42720823601E+03  0.00000000000E+00 0.  1.
<mgrwt>
<rscale>  0 0.17051712E+04</rscale>
<asrwt>0</asrwt>
<pdfrwt beam="1">  1        2 0.57602987E+00 0.17051712E+04</pdfrwt>
<pdfrwt beam="2">  1       -1 0.29867873E-01 0.17051712E+04</pdfrwt>
<totfact> 0.61057909E+00</totfact>
</mgrwt>
</event>
<event>
12    6  0.1556619E-007  0.1549084E+04  0.7818608E-02  0.8852453E-01
          2   -1    0    0  501    0  0.00000000000E+00  0.00000000000E+00  0.22780472860E+04  0.22780472860E+04  0.00000000000E+00 0. -1.
         -1   -1    0    0    0  501 -0.00000000000E+00 -0.00000000000E+00 -0.26334645575E+03  0.26334645575E+03  0.00000000000E+00 0.  1.
         24    2    1    2    0    0  0.49030156749E+02  0.49387018218E+03  0.83441611526E+03  0.97419306428E+03  0.80561529179E+02 0.  0.
        254    2    1    2    0    0 -0.49030156749E+02 -0.49387018218E+03  0.11802847149E+04  0.15672006774E+04  0.90373350157E+03 0.  0.
         23    2    4    4    0    0 -0.77690659740E+02  0.22134999575E+03  0.10642910911E+03  0.27349949596E+03  0.91886668219E+02 0.  0.
         23    2    4    4    0    0  0.28660502990E+02 -0.71522017792E+03  0.10738556058E+04  0.12937011815E+04  0.90197324735E+02 0.  0.
          2    1    3    3  502    0  0.79621247200E+01  0.48831886486E+02  0.13900612846E+03  0.14754881333E+03  0.00000000000E+00 0. -1.
         -1    1    3    3    0  502  0.41068032029E+02  0.44503829569E+03  0.69540998680E+03  0.82664425095E+03  0.00000000000E+00 0.  1.
         11    1    5    5    0    0 -0.84845834188E+02  0.21749155033E+03  0.11621123870E+03  0.26078044797E+03  0.00000000000E+00 0. -1.
        -11    1    5    5    0    0  0.71551744481E+01  0.38584454186E+01 -0.97821295905E+01  0.12719047989E+02  0.00000000000E+00 0.  1.
          4    1    6    6  503    0  0.33369057086E+02 -0.70095837170E+03  0.10672505809E+04  0.12772939894E+04  0.00000000000E+00 0. -1.
         -4    1    6    6    0  503 -0.47085540954E+01 -0.14261806219E+02  0.66050249473E+01  0.16407192107E+02  0.00000000000E+00 0.  1.
<mgrwt>
<rscale>  0 0.15490845E+04</rscale>
<asrwt>0</asrwt>
<pdfrwt beam="1">  1        2 0.35046880E+00 0.15490845E+04</pdfrwt>
<pdfrwt beam="2">  1       -1 0.40514841E-01 0.15490845E+04</pdfrwt>
<totfact> 0.30470356E+01</totfact>
</mgrwt>
</event>
<event>
12    6  0.1556619E-007  0.1655919E+04  0.7818608E-02  0.8786913E-01
         -1   -1    0    0    0  501 -0.00000000000E+00  0.00000000000E+00  0.92473666163E+03  0.92473666163E+03  0.00000000000E+00 0.  1.
          2   -1    0    0  501    0  0.00000000000E+00 -0.00000000000E+00 -0.74131012690E+03  0.74131012690E+03  0.00000000000E+00 0. -1.
         24    2    1    2    0    0 -0.20577741750E+03 -0.48929474427E+03  0.30078382236E+03  0.61530847960E+03  0.79874432401E+02 0.  0.
        254    2    1    2    0    0  0.20577741750E+03  0.48929474427E+03 -0.11735728763E+03  0.10507383089E+04  0.89917994226E+03 0.  0.
         23    2    4    4    0    0 -0.90900882151E+02  0.66589348433E+03 -0.11014593078E+02  0.67823619823E+03  0.90586513822E+02 0.  0.
         23    2    4    4    0    0  0.29667829965E+03 -0.17659874006E+03 -0.10634269456E+03  0.37250211069E+03  0.90796064392E+02 0.  0.
          4    1    3    3  502    0 -0.87700786775E+02 -0.14939543680E+03  0.64568933772E+02  0.18487718016E+03  0.00000000000E+00 0. -1.
         -3    1    3    3    0  502 -0.11807663073E+03 -0.33989930747E+03  0.23621488859E+03  0.43043129943E+03  0.00000000000E+00 0.  1.
         11    1    5    5    0    0  0.17295539708E+02  0.58592888047E+02 -0.56078294972E+01  0.61349082920E+02  0.00000000000E+00 0.  1.
        -11    1    5    5    0    0 -0.10819642186E+03  0.60730059628E+03 -0.54067635809E+01  0.61688711531E+03  0.00000000000E+00 0. -1.
          2    1    6    6  503    0  0.30313932508E+03 -0.17288956273E+03 -0.10088148700E+03  0.36326481487E+03  0.00000000000E+00 0. -1.
         -2    1    6    6    0  503 -0.64610254232E+01 -0.37091773328E+01 -0.54612075599E+01  0.92372958174E+01  0.00000000000E+00 0.  1.
<mgrwt>
<rscale>  0 0.16559187E+04</rscale>
<asrwt>0</asrwt>
<pdfrwt beam="1">  1        2 0.11404771E+00 0.16559187E+04</pdfrwt>
<pdfrwt beam="2">  1       -1 0.14226718E+00 0.16559187E+04</pdfrwt>
<totfact> 0.16680957E+01</totfact>
</mgrwt>
</event>
<event>
12    6  0.1556619E-007  0.1637828E+04  0.7818608E-02  0.8797640E-01
          2   -1    0    0  501    0  0.00000000000E+00  0.00000000000E+00  0.20881004491E+04  0.20881004491E+04  0.00000000000E+00 0. -1.
         -1   -1    0    0    0  501 -0.00000000000E+00 -0.00000000000E+00 -0.32116288666E+03  0.32116288666E+03  0.00000000000E+00 0.  1.
         24    2    1    2    0    0 -0.51094955434E+03 -0.28786034288E+03  0.51258894672E+03  0.78303010240E+03  0.80347301604E+02 0.  0.
        254    2    1    2    0    0  0.51094955434E+03  0.28786034288E+03  0.12543486158E+04  0.16262332334E+04  0.85282533703E+03 0.  0.
         23    2    4    4    0    0  0.34646616025E+03  0.67767725658E+02  0.27319071882E+02  0.36545011994E+03  0.90422307171E+02 0.  0.
         23    2    4    4    0    0  0.16448339409E+03  0.22009261722E+03  0.12270295439E+04  0.12607831135E+04  0.92070682432E+02 0.  0.
          2    1    3    3  502    0 -0.12966814360E+03 -0.10726597567E+03  0.17410070267E+03  0.24213812519E+03  0.00000000000E+00 0. -1.
         -1    1    3    3    0  502 -0.38128141074E+03 -0.18059436721E+03  0.33848824405E+03  0.54089197721E+03  0.00000000000E+00 0.  1.
         11    1    5    5    0    0  0.83632528253E+02  0.37517481517E+02 -0.26598237808E+02  0.95443320646E+02  0.00000000000E+00 0. -1.
        -11    1    5    5    0    0  0.26283363199E+03  0.30250244141E+02  0.53917309690E+02  0.27000679929E+03  0.00000000000E+00 0.  1.
          3    1    6    6  503    0  0.61422282698E+01  0.56532570647E+02  0.16185609714E+03  0.17155481542E+03  0.00000000000E+00 0. -1.
         -3    1    6    6    0  503  0.15834116582E+03  0.16356004657E+03  0.10651734468E+04  0.10892282981E+04  0.00000000000E+00 0.  1.
<mgrwt>
<rscale>  0 0.16378283E+04</rscale>
<asrwt>0</asrwt>
<pdfrwt beam="1">  1        2 0.32124621E+00 0.16378283E+04</pdfrwt>
<pdfrwt beam="2">  1       -1 0.49409676E-01 0.16378283E+04</pdfrwt>
<totfact> 0.26687207E+01</totfact>
</mgrwt>
</event>
<event>
12    6  0.1556619E-007  0.2779214E+04  0.7818608E-02  0.8309751E-01
          2   -1    0    0  501    0  0.00000000000E+00  0.00000000000E+00  0.22510660181E+04  0.22510660181E+04  0.00000000000E+00 0. -1.
         -1   -1    0    0    0  501 -0.00000000000E+00 -0.00000000000E+00 -0.85781923766E+03  0.85781923766E+03  0.00000000000E+00 0.  1.
         24    2    1    2    0    0  0.39837313114E+03 -0.10505703509E+04  0.12283482281E+04  0.16666283794E+04  0.80072291602E+02 0.  0.
        254    2    1    2    0    0 -0.39837313114E+03  0.10505703509E+04  0.16489855235E+03  0.14422568763E+04  0.88910862709E+03 0.  0.
         23    2    4    4    0    0 -0.10688082953E+03  0.16440134034E+03  0.41864428531E+03  0.47113114778E+03  0.90830657620E+02 0.  0.
         23    2    4    4    0    0 -0.29149230161E+03  0.88616901060E+03 -0.25374573295E+03  0.97112572852E+03  0.91842290626E+02 0.  0.
          2    1    3    3  502    0  0.37877749556E+03 -0.99653522723E+03  0.11890738259E+04  0.15970132791E+04  0.00000000000E+00 0. -1.
         -1    1    3    3    0  502  0.19595635587E+02 -0.54035123718E+02  0.39274402216E+02  0.69615100364E+02  0.00000000000E+00 0.  1.
         11    1    5    5    0    0 -0.57919275139E+02  0.55350920267E+02  0.26268617095E+03  0.27463137333E+03  0.00000000000E+00 0. -1.
        -11    1    5    5    0    0 -0.48961554393E+02  0.10905042008E+03  0.15595811435E+03  0.19649977445E+03  0.00000000000E+00 0.  1.
          3    1    6    6  503    0 -0.22313381760E+03  0.73506371845E+03 -0.23956076709E+03  0.80467181625E+03  0.00000000000E+00 0. -1.
         -3    1    6    6    0  503 -0.68358484009E+02  0.15110529215E+03 -0.14184965861E+02  0.16645391227E+03  0.00000000000E+00 0.  1.
<mgrwt>
<rscale>  0 0.27792141E+04</rscale>
<asrwt>0</asrwt>
<pdfrwt beam="1">  1        2 0.34631785E+00 0.27792141E+04</pdfrwt>
<pdfrwt beam="2">  1       -1 0.13197219E+00 0.27792141E+04</pdfrwt>
<totfact> 0.23378699E+00</totfact>
</mgrwt>
</event>
<event>
12    6  0.1556619E-007  0.2284575E+04  0.7818608E-02  0.8484028E-01
         -1   -1    0    0    0  501 -0.00000000000E+00  0.00000000000E+00  0.72237119860E+03  0.72237119860E+03  0.00000000000E+00 0.  1.
          2   -1    0    0  501    0  0.00000000000E+00 -0.00000000000E+00 -0.18063018858E+04  0.18063018858E+04  0.00000000000E+00 0. -1.
         24    2    1    2    0    0  0.94071372363E+03 -0.11728883578E+03 -0.27908932152E+03  0.99142681413E+03  0.79607145222E+02 0.  0.
        254    2    1    2    0    0 -0.94071372363E+03  0.11728883578E+03 -0.80484136567E+03  0.15372462703E+04  0.90369103721E+03 0.  0.
         23    2    4    4    0    0 -0.71761944241E+03 -0.65269102456E+02 -0.53502373757E+02  0.72795270117E+03  0.88401986909E+02 0.  0.
         23    2    4    4    0    0 -0.22309428122E+03  0.18255793824E+03 -0.75133899191E+03  0.80929356909E+03  0.85716632444E+02 0.  0.
          4    1    3    3  502    0  0.37812436880E+03 -0.88198693246E+01 -0.10219406805E+03  0.39179006613E+03  0.00000000000E+00 0. -1.
         -3    1    3    3    0  502  0.56258935483E+03 -0.10846896646E+03 -0.17689525347E+03  0.59963674800E+03  0.00000000000E+00 0.  1.
         11    1    5    5    0    0 -0.53108880019E+03 -0.36454360340E+02 -0.21282772979E+01  0.53234271258E+03  0.00000000000E+00 0. -1.
        -11    1    5    5    0    0 -0.18653064222E+03 -0.28814742116E+02 -0.51374096459E+02  0.19560998859E+03  0.00000000000E+00 0.  1.
          1    1    6    6  503    0 -0.88349817505E+02  0.38892974500E+02 -0.33644557673E+03  0.35001997060E+03  0.00000000000E+00 0. -1.
         -1    1    6    6    0  503 -0.13474446371E+03  0.14366496374E+03 -0.41489341518E+03  0.45927359849E+03  0.00000000000E+00 0.  1.
<mgrwt>
<rscale>  0 0.22845748E+04</rscale>
<asrwt>0</asrwt>
<pdfrwt beam="1">  1        2 0.27789259E+00 0.22845748E+04</pdfrwt>
<pdfrwt beam="2">  1       -1 0.11113403E+00 0.22845748E+04</pdfrwt>
<totfact> 0.65884874E+00</totfact>
</mgrwt>
</event>
<event>
12    6  0.1556619E-007  0.1711663E+04  0.7818608E-02  0.8754740E-01
          2   -1    0    0  501    0  0.00000000000E+00  0.00000000000E+00  0.19237746160E+04  0.19237746160E+04  0.00000000000E+00 0. -1.
         -1   -1    0    0    0  501 -0.00000000000E+00 -0.00000000000E+00 -0.38073470699E+03  0.38073470699E+03  0.00000000000E+00 0.  1.
         24    2    1    2    0    0  0.55382340937E+03  0.11332728865E+03  0.23354113310E+03  0.61658509051E+03  0.77924770580E+02 0.  0.
        254    2    1    2    0    0 -0.55382340937E+03 -0.11332728865E+03  0.13094987759E+04  0.16879242325E+04  0.90262823320E+03 0.  0.
         23    2    4    4    0    0 -0.39274081650E+03 -0.49198396257E+03  0.88095761975E+03  0.10864442638E+04  0.89337797685E+02 0.  0.
         23    2    4    4    0    0 -0.16108259287E+03  0.37865667392E+03  0.42854115618E+03  0.60147996874E+03  0.93819783750E+02 0.  0.
          4    1    3    3  502    0  0.35974675338E+03  0.74424251471E+02  0.11092413634E+03  0.38374582707E+03  0.00000000000E+00 0. -1.
         -3    1    3    3    0  502  0.19407665599E+03  0.38903037183E+02  0.12261699676E+03  0.23283926343E+03  0.00000000000E+00 0.  1.
         11    1    5    5    0    0 -0.27584947332E+03 -0.40255506398E+03  0.65562619231E+03  0.81730607211E+03  0.00000000000E+00 0. -1.
        -11    1    5    5    0    0 -0.11689134317E+03 -0.89428898591E+02  0.22533142744E+03  0.26913819165E+03  0.00000000000E+00 0.  1.
          1    1    6    6  503    0 -0.14723842215E+03  0.37539967911E+03  0.42677851963E+03  0.58714902440E+03  0.00000000000E+00 0. -1.
         -1    1    6    6    0  503 -0.13844170723E+02  0.32569948070E+01  0.17626365576E+01  0.14330944345E+02  0.00000000000E+00 0.  1.
<mgrwt>
<rscale>  0 0.17116632E+04</rscale>
<asrwt>0</asrwt>
<pdfrwt beam="1">  1        2 0.29596532E+00 0.17116632E+04</pdfrwt>
<pdfrwt beam="2">  1       -1 0.58574571E-01 0.17116632E+04</pdfrwt>
<totfact> 0.23559079E+01</totfact>
</mgrwt>
</event>
<event>
12    6  0.1556619E-007  0.1276354E+04  0.7818608E-02  0.9048530E-01
         -3   -1    0    0    0  501 -0.00000000000E+00  0.00000000000E+00  0.63096065913E+03  0.63096065913E+03  0.00000000000E+00 0.  1.
          2   -1    0    0  501    0  0.00000000000E+00 -0.00000000000E+00 -0.64547568945E+03  0.64547568945E+03  0.00000000000E+00 0. -1.
         24    2    1    2    0    0  0.32998760356E+03  0.56539792402E+02  0.12968158985E+03  0.36784160035E+03  0.80009759258E+02 0.  0.
        254    2    1    2    0    0 -0.32998760356E+03 -0.56539792402E+02 -0.14419662017E+03  0.90859474823E+03  0.83226389121E+03 0.  0.
         23    2    4    4    0    0  0.13112418283E+03 -0.20135301121E+02 -0.35543708811E+03  0.39172473664E+03  0.97538525837E+02 0.  0.
         23    2    4    4    0    0 -0.46111178639E+03 -0.36404491281E+02  0.21124046793E+03  0.51687001158E+03  0.92642900694E+02 0.  0.
          2    1    3    3  502    0  0.98133555838E+02  0.34599623419E+02  0.61955550323E+01  0.10423873380E+03  0.00000000000E+00 0. -1.
         -3    1    3    3    0  502  0.23185404772E+03  0.21940168983E+02  0.12348603482E+03  0.26360286655E+03  0.00000000000E+00 0.  1.
         11    1    5    5    0    0  0.12021636587E+03 -0.51917039098E+02 -0.27693936388E+03  0.30633766474E+03  0.00000000000E+00 0.  1.
        -11    1    5    5    0    0  0.10907816963E+02  0.31781737977E+02 -0.78497724225E+02  0.85387071904E+02  0.00000000000E+00 0. -1.
          4    1    6    6  503    0 -0.45819816420E+03 -0.36664352248E+02  0.21856729133E+03  0.50898083779E+03  0.00000000000E+00 0.  1.
         -4    1    6    6    0  503 -0.29136221927E+01  0.25986096740E+00 -0.73268233986E+01  0.78891737919E+01  0.00000000000E+00 0. -1.
<mgrwt>
<rscale>  0 0.12763538E+04</rscale>
<asrwt>0</asrwt>
<pdfrwt beam="1">  1        2 0.99303952E-01 0.12763538E+04</pdfrwt>
<pdfrwt beam="2">  1       -3 0.97070871E-01 0.12763538E+04</pdfrwt>
<totfact> 0.26330002E+01</totfact>
</mgrwt>
</event>
<event>
12    6  0.1556619E-007  0.2073605E+04  0.7818608E-02  0.8572960E-01
          2   -1    0    0  501    0  0.00000000000E+00  0.00000000000E+00  0.34644491554E+04  0.34644491554E+04  0.00000000000E+00 0. -1.
         -3   -1    0    0    0  501 -0.00000000000E+00 -0.00000000000E+00 -0.31028295911E+03  0.31028295911E+03  0.00000000000E+00 0.  1.
         24    2    1    2    0    0 -0.51679828005E+03 -0.33811796311E+03  0.23538877508E+04  0.24348687904E+04  0.79964142520E+02 0.  0.
        254    2    1    2    0    0  0.51679828005E+03  0.33811796311E+03  0.80027844551E+03  0.13398633241E+04  0.87942249097E+03 0.  0.
         23    2    4    4    0    0 -0.99060545009E+02 -0.11013652591E+03  0.47669441438E+03  0.50764355516E+03  0.92311258671E+02 0.  0.
         23    2    4    4    0    0  0.61585882505E+03  0.44825448902E+03  0.32358403113E+03  0.83221976892E+03  0.87572479956E+02 0.  0.
          4    1    3    3  502    0 -0.49259331222E+03 -0.29776561353E+03  0.21652938582E+04  0.22404932546E+04  0.00000000000E+00 0. -1.
         -3    1    3    3    0  502 -0.24204967826E+02 -0.40352349578E+02  0.18859389263E+03  0.19437553581E+03  0.00000000000E+00 0.  1.
         11    1    5    5    0    0 -0.86080405615E+02 -0.33443842503E+02  0.31422272163E+03  0.32751220683E+03  0.00000000000E+00 0.  1.
        -11    1    5    5    0    0 -0.12980139394E+02 -0.76692683411E+02  0.16247169275E+03  0.18013134833E+03  0.00000000000E+00 0. -1.
          1    1    6    6  503    0  0.21797277995E+02  0.39090726076E+02  0.11127029271E+02  0.46119594247E+02  0.00000000000E+00 0. -1.
         -1    1    6    6    0  503  0.59406154706E+03  0.40916376295E+03  0.31245700186E+03  0.78610017467E+03  0.00000000000E+00 0.  1.
<mgrwt>
<rscale>  0 0.20736051E+04</rscale>
<asrwt>0</asrwt>
<pdfrwt beam="1">  1        2 0.53299215E+00 0.20736051E+04</pdfrwt>
<pdfrwt beam="2">  1       -3 0.47735842E-01 0.20736051E+04</pdfrwt>
<totfact> 0.22520655E+00</totfact>
</mgrwt>
</event>
<event>
12    6  0.1556619E-007  0.2345350E+04  0.7818608E-02  0.8460252E-01
         -1   -1    0    0    0  501 -0.00000000000E+00  0.00000000000E+00  0.94534220431E+03  0.94534220431E+03  0.00000000000E+00 0.  1.
          2   -1    0    0  501    0  0.00000000000E+00 -0.00000000000E+00 -0.14546764486E+04  0.14546764486E+04  0.00000000000E+00 0. -1.
         24    2    1    2    0    0 -0.83727842820E+03  0.15877232745E+03  0.29709588187E+03  0.90610973315E+03  0.80777887971E+02 0.  0.
        254    2    1    2    0    0  0.83727842820E+03 -0.15877232745E+03 -0.80643012613E+03  0.14939089197E+04  0.92476510196E+03 0.  0.
         23    2    4    4    0    0 -0.10839014724E+02  0.41160278495E+02  0.16050644980E+03  0.18919048247E+03  0.90659061675E+02 0.  0.
         23    2    4    4    0    0  0.84811744293E+03 -0.19993260594E+03 -0.96693657592E+03  0.13047184373E+04  0.89708498675E+02 0.  0.
          4    1    3    3  502    0 -0.55603529631E+01  0.31792779102E+01 -0.44915005799E+01  0.78229732560E+01  0.00000000000E+00 0. -1.
         -3    1    3    3    0  502 -0.83171807524E+03  0.15559304954E+03  0.30158738245E+03  0.89828675989E+03  0.00000000000E+00 0.  1.
         11    1    5    5    0    0 -0.33485199714E+02 -0.10096414696E+02  0.10351954789E+03  0.10926798701E+03  0.00000000000E+00 0.  1.
        -11    1    5    5    0    0  0.22646184989E+02  0.51256693192E+02  0.56986901911E+02  0.79922495463E+02  0.00000000000E+00 0. -1.
          4    1    6    6  503    0  0.78362012221E+03 -0.19916565157E+03 -0.86458398383E+03  0.11837368448E+04  0.00000000000E+00 0. -1.
         -4    1    6    6    0  503  0.64497320715E+02 -0.76695437542E+00 -0.10235259209E+03  0.12098159243E+03  0.00000000000E+00 0.  1.
<mgrwt>
<rscale>  0 0.23453503E+04</rscale>
<asrwt>0</asrwt>
<pdfrwt beam="1">  1        2 0.22379638E+00 0.23453503E+04</pdfrwt>
<pdfrwt beam="2">  1       -1 0.14543726E+00 0.23453503E+04</pdfrwt>
<totfact> 0.52529302E+00</totfact>
</mgrwt>
</event>
<event>
12    6  0.1556619E-007  0.1648527E+04  0.7818608E-02  0.8791278E-01
          2   -1    0    0  501    0  0.00000000000E+00  0.00000000000E+00  0.92891589552E+03  0.92891589552E+03  0.00000000000E+00 0. -1.
         -1   -1    0    0    0  501 -0.00000000000E+00 -0.00000000000E+00 -0.73140170941E+03  0.73140170941E+03  0.00000000000E+00 0.  1.
         24    2    1    2    0    0 -0.25979728696E+03 -0.41253934921E+03  0.37295079340E+03  0.61988473314E+03  0.86495335819E+02 0.  0.
        254    2    1    2    0    0  0.25979728696E+03  0.41253934921E+03 -0.17543660729E+03  0.10404328718E+04  0.90224121640E+03 0.  0.
         23    2    4    4    0    0 -0.13784458070E+03  0.28658190156E+02 -0.40201540230E+03  0.43628942321E+03  0.94390978525E+02 0.  0.
         23    2    4    4    0    0  0.39764186766E+03  0.38388115906E+03  0.22657879501E+03  0.60414344859E+03  0.90374536966E+02 0.  0.
          4    1    3    3  502    0 -0.16526774273E+03 -0.30171392833E+03  0.30242457058E+03  0.45804513121E+03  0.00000000000E+00 0. -1.
         -3    1    3    3    0  502 -0.94529544229E+02 -0.11082542088E+03  0.70526222814E+02  0.16183960192E+03  0.00000000000E+00 0.  1.
         11    1    5    5    0    0 -0.36352042610E+02  0.13388951158E+02 -0.26338630549E+02  0.46845047488E+02  0.00000000000E+00 0. -1.
        -11    1    5    5    0    0 -0.10149253809E+03  0.15269238998E+02 -0.37567677175E+03  0.38944437572E+03  0.00000000000E+00 0.  1.
          2    1    6    6  503    0  0.11575622812E+03  0.14783124293E+03  0.40531203735E+02  0.19208425029E+03  0.00000000000E+00 0. -1.
         -2    1    6    6    0  503  0.28188563954E+03  0.23604991613E+03  0.18604759128E+03  0.41205919830E+03  0.00000000000E+00 0.  1.
<mgrwt>
<rscale>  0 0.16485274E+04</rscale>
<asrwt>0</asrwt>
<pdfrwt beam="1">  1        2 0.14291014E+00 0.16485274E+04</pdfrwt>
<pdfrwt beam="2">  1       -1 0.11252334E+00 0.16485274E+04</pdfrwt>
<totfact> 0.22109522E+01</totfact>
</mgrwt>
</event>
<event>
12    6  0.1556619E-007  0.1586211E+04  0.7818608E-02  0.8829064E-01
          2   -1    0    0  501    0  0.00000000000E+00  0.00000000000E+00  0.11544273497E+04  0.11544273497E+04  0.00000000000E+00 0. -1.
         -1   -1    0    0    0  501 -0.00000000000E+00 -0.00000000000E+00 -0.54487306148E+03  0.54487306148E+03  0.00000000000E+00 0.  1.
         24    2    1    2    0    0 -0.28616901677E+03  0.38889433279E+03  0.44955167799E+02  0.49152958556E+03  0.80304782739E+02 0.  0.
        254    2    1    2    0    0  0.28616901677E+03 -0.38889433279E+03  0.56459912044E+03  0.12077708257E+04  0.95226398245E+03 0.  0.
         23    2    4    4    0    0  0.20517647134E+03 -0.69340997137E+03  0.30504663827E+03  0.78959362452E+03  0.86544021077E+02 0.  0.
         23    2    4    4    0    0  0.80992545428E+02  0.30451563858E+03  0.25955248218E+03  0.41817720113E+03  0.90637266013E+02 0.  0.
          2    1    3    3  502    0 -0.10200507291E+01  0.36660722844E+01  0.10318901230E+02  0.10998195856E+02  0.00000000000E+00 0. -1.
         -1    1    3    3    0  502 -0.28514896604E+03  0.38522826050E+03  0.34636266569E+02  0.48053138970E+03  0.00000000000E+00 0.  1.
         11    1    5    5    0    0  0.21629959115E+02 -0.33650983700E+02  0.22897759388E+00  0.40003703154E+02  0.00000000000E+00 0. -1.
        -11    1    5    5    0    0  0.18354651223E+03 -0.65975898767E+03  0.30481766067E+03  0.74958992137E+03  0.00000000000E+00 0.  1.
          4    1    6    6  503    0  0.55735194753E+02  0.20804000194E+03  0.22784963643E+03  0.31353231279E+03  0.00000000000E+00 0. -1.
         -4    1    6    6    0  503  0.25257350675E+02  0.96475636643E+02  0.31702845745E+02  0.10464488835E+03  0.00000000000E+00 0.  1.
<mgrwt>
<rscale>  0 0.15862110E+04</rscale>
<asrwt>0</asrwt>
<pdfrwt beam="1">  1        2 0.17760421E+00 0.15862110E+04</pdfrwt>
<pdfrwt beam="2">  1       -1 0.83826625E-01 0.15862110E+04</pdfrwt>
<totfact> 0.31170486E+01</totfact>
</mgrwt>
</event>
<event>
12    6  0.1556619E-007  0.2102274E+04  0.7818608E-02  0.8560242E-01
         -1   -1    0    0    0  501 -0.00000000000E+00  0.00000000000E+00  0.72013068142E+03  0.72013068142E+03  0.00000000000E+00 0.  1.
          2   -1    0    0  501    0  0.00000000000E+00 -0.00000000000E+00 -0.15342896115E+04  0.15342896115E+04  0.00000000000E+00 0. -1.
         24    2    1    2    0    0 -0.11362014964E+03  0.20683097343E+03  0.55697374792E+03  0.61020459142E+03  0.80257694625E+02 0.  0.
        254    2    1    2    0    0  0.11362014964E+03 -0.20683097343E+03 -0.13711326780E+04  0.16442157015E+04  0.87621450710E+03 0.  0.
         23    2    4    4    0    0  0.82375516468E+02 -0.43969700496E+03 -0.30576535364E+03  0.54957932530E+03  0.91792164350E+02 0.  0.
         23    2    4    4    0    0  0.31244633175E+02  0.23286603153E+03 -0.10653673244E+04  0.10946363762E+04  0.89545767921E+02 0.  0.
          2    1    3    3  502    0 -0.10759423493E+03  0.15244983147E+03  0.35626538199E+03  0.40217221798E+03  0.00000000000E+00 0. -1.
         -1    1    3    3    0  502 -0.60259147138E+01  0.54381141962E+02  0.20070836592E+03  0.20803237344E+03  0.00000000000E+00 0.  1.
         11    1    5    5    0    0  0.97781535656E+02 -0.41468643037E+03 -0.27532498430E+03  0.50727695712E+03  0.00000000000E+00 0.  1.
        -11    1    5    5    0    0 -0.15406019188E+02 -0.25010574588E+02 -0.30440369339E+02  0.42302368184E+02  0.00000000000E+00 0. -1.
          1    1    6    6  503    0  0.60053263707E+02  0.11934112092E+03 -0.60868014447E+03  0.62316949211E+03  0.00000000000E+00 0. -1.
         -1    1    6    6    0  503 -0.28808630532E+02  0.11352491060E+03 -0.45668717992E+03  0.47146688412E+03  0.00000000000E+00 0.  1.
<mgrwt>
<rscale>  0 0.21022740E+04</rscale>
<asrwt>0</asrwt>
<pdfrwt beam="1">  1        2 0.23604455E+00 0.21022740E+04</pdfrwt>
<pdfrwt beam="2">  1       -1 0.11078934E+00 0.21022740E+04</pdfrwt>
<totfact> 0.95623182E+00</totfact>
</mgrwt>
</event>
<event>
12    6  0.1556619E-007  0.1423112E+04  0.7818608E-02  0.8937257E-01
          2   -1    0    0  501    0  0.00000000000E+00  0.00000000000E+00  0.12803328159E+04  0.12803328159E+04  0.00000000000E+00 0. -1.
         -1   -1    0    0    0  501 -0.00000000000E+00 -0.00000000000E+00 -0.39545312850E+03  0.39545312850E+03  0.00000000000E+00 0.  1.
         24    2    1    2    0    0 -0.13874433826E+03  0.20646538046E+03 -0.14528722280E+03  0.29859719245E+03  0.78574560127E+02 0.  0.
        254    2    1    2    0    0  0.13874433826E+03 -0.20646538046E+03  0.10301669102E+04  0.13771887520E+04  0.87950386635E+03 0.  0.
         23    2    4    4    0    0 -0.23756189954E+03 -0.32351204974E+03  0.20822545748E+03  0.46116001219E+03  0.90636710309E+02 0.  0.
         23    2    4    4    0    0  0.37630623780E+03  0.11704666928E+03  0.82194145271E+03  0.91602873977E+03  0.90634391885E+02 0.  0.
          4    1    3    3  502    0 -0.99167244171E+02  0.17777472613E+03 -0.84025882394E+02  0.22022339676E+03  0.00000000000E+00 0. -1.
         -3    1    3    3    0  502 -0.39577094092E+02  0.28690654333E+02 -0.61261340402E+02  0.78373795689E+02  0.00000000000E+00 0.  1.
         11    1    5    5    0    0 -0.18912464692E+03 -0.27180981265E+03  0.13030951535E+03  0.35585007534E+03  0.00000000000E+00 0. -1.
        -11    1    5    5    0    0 -0.48437252623E+02 -0.51702237094E+02  0.77915942131E+02  0.10530993686E+03  0.00000000000E+00 0.  1.
          3    1    6    6  503    0  0.33793361068E+03  0.86120074060E+02  0.76488824584E+03  0.84063655702E+03  0.00000000000E+00 0. -1.
         -3    1    6    6    0  503  0.38372627120E+02  0.30926595220E+02  0.57053206877E+02  0.75392182744E+02  0.00000000000E+00 0.  1.
<mgrwt>
<rscale>  0 0.14231115E+04</rscale>
<asrwt>0</asrwt>
<pdfrwt beam="1">  1        2 0.19697428E+00 0.14231115E+04</pdfrwt>
<pdfrwt beam="2">  1       -1 0.60838943E-01 0.14231115E+04</pdfrwt>
<totfact> 0.51519289E+01</totfact>
</mgrwt>
</event>
<event>
12    6  0.1556619E-007  0.1262433E+04  0.7818608E-02  0.9059898E-01
          2   -1    0    0  501    0  0.00000000000E+00  0.00000000000E+00  0.25994743570E+04  0.25994743570E+04  0.00000000000E+00 0. -1.
         -1   -1    0    0    0  501 -0.00000000000E+00 -0.00000000000E+00 -0.15327502994E+03  0.15327502994E+03  0.00000000000E+00 0.  1.
         24    2    1    2    0    0 -0.54380466161E+02  0.27125802305E+03  0.89756172789E+03  0.94251486717E+03  0.78607056276E+02 0.  0.
        254    2    1    2    0    0  0.54380466161E+02 -0.27125802305E+03  0.15486375991E+04  0.18102345197E+04  0.89561847503E+03 0.  0.
         23    2    4    4    0    0 -0.25581664544E+03 -0.28187264465E+03  0.23398103600E+03  0.45634042188E+03  0.92763740505E+02 0.  0.
         23    2    4    4    0    0  0.31019711161E+03  0.10614621597E+02  0.13146565631E+04  0.13538940979E+04  0.91500988759E+02 0.  0.
          2    1    3    3  502    0 -0.61847666076E+02  0.25553601854E+03  0.76726208994E+03  0.81105789265E+03  0.00000000000E+00 0. -1.
         -1    1    3    3    0  502  0.74671999148E+01  0.15722004512E+02  0.13029963795E+03  0.13145697452E+03  0.00000000000E+00 0.  1.
         11    1    5    5    0    0 -0.11428839633E+02  0.49884877603E+01 -0.53144858552E+00  0.12481419113E+02  0.00000000000E+00 0.  1.
        -11    1    5    5    0    0 -0.24438780581E+03 -0.28686113241E+03  0.23451248458E+03  0.44385900277E+03  0.00000000000E+00 0. -1.
          3    1    6    6  503    0  0.26489138458E+03 -0.67691292222E+00  0.94926270975E+03  0.98552909442E+03  0.00000000000E+00 0. -1.
         -3    1    6    6    0  503  0.45305727030E+02  0.11291534520E+02  0.36539385339E+03  0.36836500343E+03  0.00000000000E+00 0.  1.
<mgrwt>
<rscale>  0 0.12624334E+04</rscale>
<asrwt>0</asrwt>
<pdfrwt beam="1">  1        2 0.39991910E+00 0.12624334E+04</pdfrwt>
<pdfrwt beam="2">  1       -1 0.23580776E-01 0.12624334E+04</pdfrwt>
<totfact> 0.53112686E+01</totfact>
</mgrwt>
</event>
<event>
12    6  0.1556619E-007  0.1397995E+04  0.7818608E-02  0.8955271E-01
          2   -1    0    0  501    0  0.00000000000E+00  0.00000000000E+00  0.79895030698E+03  0.79895030698E+03  0.00000000000E+00 0. -1.
         -1   -1    0    0    0  501 -0.00000000000E+00 -0.00000000000E+00 -0.61154965520E+03  0.61154965520E+03  0.00000000000E+00 0.  1.
         24    2    1    2    0    0 -0.32032559769E+03  0.20930735301E+03 -0.77293945569E+02  0.39863367872E+03  0.80724217107E+02 0.  0.
        254    2    1    2    0    0  0.32032559769E+03 -0.20930735301E+03  0.26469459735E+03  0.10118662835E+04  0.89854999259E+03 0.  0.
         23    2    4    4    0    0  0.22477367431E+03  0.29988642763E+03 -0.63805232729E+02  0.39142795744E+03  0.93218367313E+02 0.  0.
         23    2    4    4    0    0  0.95551923379E+02 -0.50919378064E+03  0.32849983008E+03  0.62043832602E+03  0.92860657601E+02 0.  0.
          4    1    3    3  502    0 -0.91564944528E+02  0.77075048118E+02  0.10638148298E+02  0.12015769766E+03  0.00000000000E+00 0. -1.
         -3    1    3    3    0  502 -0.22876065316E+03  0.13223230489E+03 -0.87932093866E+02  0.27847598105E+03  0.00000000000E+00 0.  1.
         11    1    5    5    0    0  0.15174268258E+03  0.26341882535E+03 -0.58890122142E+02  0.30965039279E+03  0.00000000000E+00 0.  1.
        -11    1    5    5    0    0  0.73030991731E+02  0.36467602276E+02 -0.49151105878E+01  0.81777564656E+02  0.00000000000E+00 0. -1.
          2    1    6    6  503    0  0.71668660926E+02 -0.44407304072E+03  0.24613189954E+03  0.51275547235E+03  0.00000000000E+00 0.  1.
         -2    1    6    6    0  503  0.23883262454E+02 -0.65120739917E+02  0.82367930545E+02  0.10768285367E+03  0.00000000000E+00 0. -1.
<mgrwt>
<rscale>  0 0.13979954E+04</rscale>
<asrwt>0</asrwt>
<pdfrwt beam="1">  1        2 0.12291543E+00 0.13979954E+04</pdfrwt>
<pdfrwt beam="2">  1       -1 0.94084562E-01 0.13979954E+04</pdfrwt>
<totfact> 0.41984760E+01</totfact>
</mgrwt>
</event>
<event>
12    6  0.1556619E-007  0.1887617E+04  0.7818608E-02  0.8661045E-01
          2   -1    0    0  501    0  0.00000000000E+00  0.00000000000E+00  0.96702120693E+03  0.96702120693E+03  0.00000000000E+00 0. -1.
         -1   -1    0    0    0  501 -0.00000000000E+00 -0.00000000000E+00 -0.92115310401E+03  0.92115310401E+03  0.00000000000E+00 0.  1.
         24    2    1    2    0    0 -0.34291567021E+03 -0.63650636943E+03 -0.92393180419E+02  0.73244903382E+03  0.72205070117E+02 0.  0.
        254    2    1    2    0    0  0.34291567021E+03  0.63650636943E+03  0.13826128334E+03  0.11557252771E+04  0.89098440980E+03 0.  0.
         23    2    4    4    0    0  0.48441520896E+03  0.15365935649E+03 -0.18863601978E+03  0.54908634492E+03  0.87424102579E+02 0.  0.
         23    2    4    4    0    0 -0.14149953875E+03  0.48284701294E+03  0.32689730312E+03  0.60663893220E+03  0.89362127917E+02 0.  0.
          2    1    3    3  502    0 -0.17926730433E+03 -0.39128151624E+03 -0.77046297791E+02  0.43723463192E+03  0.00000000000E+00 0. -1.
         -1    1    3    3    0  502 -0.16364836588E+03 -0.24522485319E+03 -0.15346882628E+02  0.29521440189E+03  0.00000000000E+00 0.  1.
         11    1    5    5    0    0  0.48582522066E+03  0.15731890823E+03 -0.18351332506E+03  0.54263479835E+03  0.00000000000E+00 0.  1.
        -11    1    5    5    0    0 -0.14100116958E+01 -0.36595517369E+01 -0.51226947210E+01  0.64515465667E+01  0.00000000000E+00 0. -1.
          1    1    6    6  503    0  0.12477553612E+02  0.41018222488E+02  0.32979125509E+02  0.54090726003E+02  0.00000000000E+00 0. -1.
         -1    1    6    6    0  503 -0.15397709236E+03  0.44182879045E+03  0.29391817761E+03  0.55254820619E+03  0.00000000000E+00 0.  1.
<mgrwt>
<rscale>  0 0.18876171E+04</rscale>
<asrwt>0</asrwt>
<pdfrwt beam="1">  1        2 0.14877249E+00 0.18876171E+04</pdfrwt>
<pdfrwt beam="2">  1       -1 0.14171586E+00 0.18876171E+04</pdfrwt>
<totfact> 0.11490198E+01</totfact>
</mgrwt>
</event>
<event>
12    6  0.1556619E-007  0.1571821E+04  0.7818608E-02  0.8838049E-01
         -1   -1    0    0    0  501 -0.00000000000E+00  0.00000000000E+00  0.38906796158E+03  0.38906796158E+03  0.00000000000E+00 0.  1.
          2   -1    0    0  501    0  0.00000000000E+00 -0.00000000000E+00 -0.15875264399E+04  0.15875264399E+04  0.00000000000E+00 0. -1.
         24    2    1    2    0    0 -0.37247789543E+03 -0.28338764664E+03 -0.11715626483E+03  0.48884548363E+03  0.78714519827E+02 0.  0.
        254    2    1    2    0    0  0.37247789543E+03  0.28338764664E+03 -0.10813022135E+04  0.14877489179E+04  0.90836888148E+03 0.  0.
         23    2    4    4    0    0  0.27022452446E+03  0.13549428311E+02 -0.11431079360E+04  0.11781198250E+04  0.89809175942E+02 0.  0.
         23    2    4    4    0    0  0.10225337096E+03  0.26983821833E+03  0.61805722475E+02  0.30962909288E+03  0.93711322055E+02 0.  0.
          4    1    3    3  502    0 -0.10456090524E+03 -0.12398275509E+03 -0.52369602321E+02  0.17043263100E+03  0.00000000000E+00 0. -1.
         -3    1    3    3    0  502 -0.26791699019E+03 -0.15940489155E+03 -0.64786662510E+02  0.31841285263E+03  0.00000000000E+00 0.  1.
         11    1    5    5    0    0  0.25104687600E+03 -0.14010685419E+02 -0.10164454669E+04  0.10470827190E+04  0.00000000000E+00 0. -1.
        -11    1    5    5    0    0  0.19177648466E+02  0.27560113730E+02 -0.12666246909E+03  0.13103710598E+03  0.00000000000E+00 0.  1.
          3    1    6    6  503    0  0.83789551607E+02  0.10274465849E+03  0.68184434659E+01  0.13275407707E+03  0.00000000000E+00 0.  1.
         -3    1    6    6    0  503  0.18463819354E+02  0.16709355984E+03  0.54987279009E+02  0.17687501581E+03  0.00000000000E+00 0. -1.
<mgrwt>
<rscale>  0 0.15718215E+04</rscale>
<asrwt>0</asrwt>
<pdfrwt beam="1">  1        2 0.24423484E+00 0.15718215E+04</pdfrwt>
<pdfrwt beam="2">  1       -1 0.59856610E-01 0.15718215E+04</pdfrwt>
<totfact> 0.35113154E+01</totfact>
</mgrwt>
</event>
<event>
12    6  0.1556619E-007  0.1441214E+04  0.7818608E-02  0.8924515E-01
          2   -1    0    0  501    0  0.00000000000E+00  0.00000000000E+00  0.35812117842E+03  0.35812117842E+03  0.00000000000E+00 0. -1.
         -1   -1    0    0    0  501 -0.00000000000E+00 -0.00000000000E+00 -0.14499957329E+04  0.14499957329E+04  0.00000000000E+00 0.  1.
         24    2    1    2    0    0  0.41435080188E+03 -0.74665150239E+01 -0.15364710186E+03  0.44917366158E+03  0.80045052810E+02 0.  0.
        254    2    1    2    0    0 -0.41435080188E+03  0.74665150239E+01 -0.93822745264E+03  0.13589432498E+04  0.89146714316E+03 0.  0.
         23    2    4    4    0    0 -0.57252873980E+03 -0.21270988798E+03 -0.36216067469E+03  0.71597935500E+03  0.91822808504E+02 0.  0.
         23    2    4    4    0    0  0.15817793791E+03  0.22017640300E+03 -0.57606677795E+03  0.64296389477E+03  0.89731426128E+02 0.  0.
          2    1    3    3  502    0  0.32048776554E+02  0.12400364022E+02 -0.33382880050E+02  0.47909391427E+02  0.00000000000E+00 0. -1.
         -1    1    3    3    0  502  0.38230202533E+03 -0.19866879046E+02 -0.12026422181E+03  0.40126427015E+03  0.00000000000E+00 0.  1.
         11    1    5    5    0    0 -0.17725608314E+03 -0.10970685409E+03 -0.10641737316E+03  0.23405121268E+03  0.00000000000E+00 0. -1.
        -11    1    5    5    0    0 -0.39527265665E+03 -0.10300303389E+03 -0.25574330153E+03  0.48192814233E+03  0.00000000000E+00 0.  1.
          1    1    6    6  503    0  0.19057538457E+02  0.60336149375E+02 -0.21694960099E+03  0.22598842905E+03  0.00000000000E+00 0. -1.
         -1    1    6    6    0  503  0.13912039946E+03  0.15984025363E+03 -0.35911717696E+03  0.41697546572E+03  0.00000000000E+00 0.  1.
<mgrwt>
<rscale>  0 0.14412136E+04</rscale>
<asrwt>0</asrwt>
<pdfrwt beam="1">  1        2 0.55095565E-01 0.14412136E+04</pdfrwt>
<pdfrwt beam="2">  1       -1 0.22307627E+00 0.14412136E+04</pdfrwt>
<totfact> 0.10500595E+01</totfact>
</mgrwt>
</event>
<event>
12    6  0.1556619E-007  0.1292144E+04  0.7818608E-02  0.9035818E-01
         -1   -1    0    0    0  501 -0.00000000000E+00  0.00000000000E+00  0.61477483545E+03  0.61477483545E+03  0.00000000000E+00 0.  1.
          2   -1    0    0  501    0  0.00000000000E+00 -0.00000000000E+00 -0.67896228086E+03  0.67896228086E+03  0.00000000000E+00 0. -1.
         24    2    1    2    0    0  0.21880223168E+03  0.12998341170E+03  0.19280954550E+03  0.32903376729E+03  0.79483301836E+02 0.  0.
        254    2    1    2    0    0 -0.21880223168E+03 -0.12998341170E+03 -0.25699699091E+03  0.96470334902E+03  0.89433494529E+03 0.  0.
         23    2    4    4    0    0 -0.51278934619E+03 -0.26791701629E+03 -0.10242617721E+03  0.59466017847E+03  0.91636045865E+02 0.  0.
         23    2    4    4    0    0  0.29398711451E+03  0.13793360458E+03 -0.15457081371E+03  0.37004317055E+03  0.87095974927E+02 0.  0.
          2    1    3    3  502    0  0.76926755361E+02  0.74587191527E+01  0.74590537667E+02  0.10741092352E+03  0.00000000000E+00 0. -1.
         -1    1    3    3    0  502  0.14187547632E+03  0.12252469255E+03  0.11821900784E+03  0.22162284377E+03  0.00000000000E+00 0.  1.
         11    1    5    5    0    0 -0.16195708369E+03 -0.13416067716E+03 -0.37014939761E+02  0.21353990264E+03  0.00000000000E+00 0. -1.
        -11    1    5    5    0    0 -0.35083226250E+03 -0.13375633913E+03 -0.65411237444E+02  0.38112027583E+03  0.00000000000E+00 0.  1.
          3    1    6    6  503    0  0.53458712378E+02  0.64833806977E+02 -0.49909809705E+02  0.97735590043E+02  0.00000000000E+00 0. -1.
         -3    1    6    6    0  503  0.24052840213E+03  0.73099797606E+02 -0.10466100400E+03  0.27230758051E+03  0.00000000000E+00 0.  1.
<mgrwt>
<rscale>  0 0.12921438E+04</rscale>
<asrwt>0</asrwt>
<pdfrwt beam="1">  1        2 0.10445574E+00 0.12921438E+04</pdfrwt>
<pdfrwt beam="2">  1       -1 0.94580744E-01 0.12921438E+04</pdfrwt>
<totfact> 0.51616930E+01</totfact>
</mgrwt>
</event>
<event>
12    6  0.1556619E-007  0.1120123E+04  0.7818608E-02  0.9185797E-01
         -1   -1    0    0    0  501 -0.00000000000E+00  0.00000000000E+00  0.24194128898E+03  0.24194128898E+03  0.00000000000E+00 0.  1.
          2   -1    0    0  501    0  0.00000000000E+00 -0.00000000000E+00 -0.12964678370E+04  0.12964678370E+04  0.00000000000E+00 0. -1.
         24    2    1    2    0    0 -0.16342771359E+03 -0.58101933976E+02 -0.14997864021E+03  0.24290536124E+03  0.80155908701E+02 0.  0.
        254    2    1    2    0    0  0.16342771359E+03  0.58101933976E+02 -0.90454790780E+03  0.12955037647E+04  0.91106456118E+03 0.  0.
         23    2    4    4    0    0 -0.28972480407E+03  0.23982830438E+03 -0.59663906239E+03  0.71115379579E+03  0.91123393390E+02 0.  0.
         23    2    4    4    0    0  0.45315251767E+03 -0.18172637040E+03 -0.30790884541E+03  0.58434996894E+03  0.91023904309E+02 0.  0.
          2    1    3    3  502    0  0.34093260364E+01 -0.17578962414E+02 -0.61489878562E+01  0.18932867592E+02  0.00000000000E+00 0. -1.
         -1    1    3    3    0  502 -0.16683703963E+03 -0.40522971562E+02 -0.14382965235E+03  0.22397249365E+03  0.00000000000E+00 0.  1.
         11    1    5    5    0    0 -0.83527959960E+02  0.36178995025E+02 -0.20170657944E+03  0.22129478974E+03  0.00000000000E+00 0. -1.
        -11    1    5    5    0    0 -0.20619684411E+03  0.20364930935E+03 -0.39493248295E+03  0.48985900606E+03  0.00000000000E+00 0.  1.
          2    1    6    6  503    0  0.11582198092E+03 -0.85918323179E+02 -0.11255066768E+03  0.18293261688E+03  0.00000000000E+00 0.  1.
         -2    1    6    6    0  503  0.33733053674E+03 -0.95808047222E+02 -0.19535817773E+03  0.40141735206E+03  0.00000000000E+00 0. -1.
<mgrwt>
<rscale>  0 0.11201234E+04</rscale>
<asrwt>0</asrwt>
<pdfrwt beam="1">  1        2 0.19945659E+00 0.11201234E+04</pdfrwt>
<pdfrwt beam="2">  1       -1 0.37221737E-01 0.11201234E+04</pdfrwt>
<totfact> 0.13026144E+02</totfact>
</mgrwt>
</event>
<event>
12    6  0.1556619E-007  0.1530020E+04  0.7818608E-02  0.8864732E-01
          2   -1    0    0  501    0  0.00000000000E+00  0.00000000000E+00  0.23601594561E+04  0.23601594561E+04  0.00000000000E+00 0. -1.
         -1   -1    0    0    0  501 -0.00000000000E+00 -0.00000000000E+00 -0.24796629307E+03  0.24796629307E+03  0.00000000000E+00 0.  1.
         24    2    1    2    0    0  0.45960883704E+03  0.19565129486E+03  0.70659311730E+03  0.86887301818E+03  0.78401377783E+02 0.  0.
        254    2    1    2    0    0 -0.45960883704E+03 -0.19565129486E+03  0.14056000457E+04  0.17392527310E+04  0.89429797126E+03 0.  0.
         23    2    4    4    0    0 -0.14034841674E+03 -0.13873595321E+03  0.13850585957E+04  0.14020744068E+04  0.92086838238E+02 0.  0.
         23    2    4    4    0    0 -0.31926042030E+03 -0.56915341652E+02  0.20541449976E+02  0.33717832417E+03  0.90003883468E+02 0.  0.
          2    1    3    3  502    0 -0.26853471230E+01  0.40345274119E+01  0.40333579259E+01  0.63052737266E+01  0.00000000000E+00 0. -1.
         -1    1    3    3    0  502  0.46229418416E+03  0.19161676745E+03  0.70255975937E+03  0.86256774445E+03  0.00000000000E+00 0.  1.
         11    1    5    5    0    0 -0.92412297537E+02 -0.13310059220E+03  0.11971406198E+04  0.12080568960E+04  0.00000000000E+00 0. -1.
        -11    1    5    5    0    0 -0.47936119205E+02 -0.56353610063E+01  0.18791797588E+03  0.19401751075E+03  0.00000000000E+00 0.  1.
          1    1    6    6  503    0 -0.32288133191E+03 -0.63043489186E+02  0.22642510325E+02  0.32975675778E+03  0.00000000000E+00 0. -1.
         -1    1    6    6    0  503  0.36209116149E+01  0.61281475346E+01 -0.21010603488E+01  0.74215663925E+01  0.00000000000E+00 0.  1.
<mgrwt>
<rscale>  0 0.15300196E+04</rscale>
<asrwt>0</asrwt>
<pdfrwt beam="1">  1        2 0.36310144E+00 0.15300196E+04</pdfrwt>
<pdfrwt beam="2">  1       -1 0.38148662E-01 0.15300196E+04</pdfrwt>
<totfact> 0.30603114E+01</totfact>
</mgrwt>
</event>
<event>
12    6  0.1556619E-007  0.1442911E+04  0.7818608E-02  0.8923330E-01
          2   -1    0    0  501    0  0.00000000000E+00  0.00000000000E+00  0.11309829200E+04  0.11309829200E+04  0.00000000000E+00 0. -1.
         -1   -1    0    0    0  501 -0.00000000000E+00 -0.00000000000E+00 -0.46021745440E+03  0.46021745440E+03  0.00000000000E+00 0.  1.
         24    2    1    2    0    0 -0.26502321758E+03 -0.36943067175E+02 -0.13159951312E+03  0.30896227515E+03  0.80852702750E+02 0.  0.
        254    2    1    2    0    0  0.26502321758E+03  0.36943067175E+02  0.80236497874E+03  0.12822380993E+04  0.96371307350E+03 0.  0.
         23    2    4    4    0    0  0.24088330101E+03  0.85063693423E+02 -0.15996915979E+03  0.31433023553E+03  0.89178294665E+02 0.  0.
         23    2    4    4    0    0  0.24139916575E+02 -0.48120626248E+02  0.96233413853E+03  0.96790786373E+03  0.88658379509E+02 0.  0.
          4    1    3    3  502    0 -0.26667667442E+02 -0.20113263996E+02  0.49218798531E+01  0.33762890526E+02  0.00000000000E+00 0. -1.
         -3    1    3    3    0  502 -0.23835555014E+03 -0.16829803179E+02 -0.13652139297E+03  0.27519938462E+03  0.00000000000E+00 0.  1.
         11    1    5    5    0    0  0.18951049581E+02  0.17378003450E+02 -0.52848917399E+02  0.58771977629E+02  0.00000000000E+00 0. -1.
        -11    1    5    5    0    0  0.22193225143E+03  0.67685689972E+02 -0.10712024239E+03  0.25555825790E+03  0.00000000000E+00 0.  1.
          4    1    6    6  503    0 -0.14321132256E+01 -0.51988540513E+02  0.26285535188E+03  0.26795110619E+03  0.00000000000E+00 0. -1.
         -4    1    6    6    0  503  0.25572029800E+02  0.38679142655E+01  0.69947878665E+03  0.69995675755E+03  0.00000000000E+00 0.  1.
<mgrwt>
<rscale>  0 0.14429111E+04</rscale>
<asrwt>0</asrwt>
<pdfrwt beam="1">  1        2 0.17399737E+00 0.14429111E+04</pdfrwt>
<pdfrwt beam="2">  1       -1 0.70802686E-01 0.14429111E+04</pdfrwt>
<totfact> 0.46505505E+01</totfact>
</mgrwt>
</event>
<event>
12    6  0.1556619E-007  0.1222526E+04  0.7818608E-02  0.9093365E-01
          2   -1    0    0  501    0  0.00000000000E+00  0.00000000000E+00  0.22059702517E+04  0.22059702517E+04  0.00000000000E+00 0. -1.
         -1   -1    0    0    0  501 -0.00000000000E+00 -0.00000000000E+00 -0.16937787964E+03  0.16937787964E+03  0.00000000000E+00 0.  1.
         24    2    1    2    0    0 -0.10084511159E+03  0.12583954976E+03  0.48246861848E+02  0.18654572089E+03  0.80412794317E+02 0.  0.
        254    2    1    2    0    0  0.10084511159E+03 -0.12583954976E+03  0.19883455102E+04  0.21888024105E+04  0.90074013745E+03 0.  0.
         23    2    4    4    0    0 -0.30444099944E+02 -0.43969901212E+03  0.56627281209E+03  0.72372270509E+03  0.94061637624E+02 0.  0.
         23    2    4    4    0    0  0.13128921153E+03  0.31385946236E+03  0.14220726981E+04  0.14650797054E+04  0.91777803067E+02 0.  0.
          4    1    3    3  502    0 -0.42026396218E+02  0.52679842372E+02  0.62121115797E+02  0.91653787697E+02  0.00000000000E+00 0. -1.
         -3    1    3    3    0  502 -0.58818715372E+02  0.73159707383E+02 -0.13874253948E+02  0.94891933193E+02  0.00000000000E+00 0.  1.
         11    1    5    5    0    0  0.96263558372E+01 -0.16316481731E+02  0.51149188690E+01  0.19622861611E+02  0.00000000000E+00 0.  1.
        -11    1    5    5    0    0 -0.40070455781E+02 -0.42338253039E+03  0.56115789322E+03  0.70409984348E+03  0.00000000000E+00 0. -1.
          1    1    6    6  503    0  0.10536925720E+03  0.13327005939E+03  0.69696387641E+03  0.71737175447E+03  0.00000000000E+00 0. -1.
         -1    1    6    6    0  503  0.25919954333E+02  0.18058940297E+03  0.72510882171E+03  0.74770795089E+03  0.00000000000E+00 0.  1.
<mgrwt>
<rscale>  0 0.12225262E+04</rscale>
<asrwt>0</asrwt>
<pdfrwt beam="1">  1        2 0.33938002E+00 0.12225262E+04</pdfrwt>
<pdfrwt beam="2">  1       -1 0.26058137E-01 0.12225262E+04</pdfrwt>
<totfact> 0.75212205E+01</totfact>
</mgrwt>
</event>
<event>
12    6  0.1556619E-007  0.2489026E+04  0.7818608E-02  0.8406905E-01
          2   -1    0    0  501    0  0.00000000000E+00  0.00000000000E+00  0.27345974047E+04  0.27345974047E+04  0.00000000000E+00 0. -1.
         -1   -1    0    0    0  501 -0.00000000000E+00 -0.00000000000E+00 -0.56637696443E+03  0.56637696443E+03  0.00000000000E+00 0.  1.
         24    2    1    2    0    0 -0.11300352937E+03 -0.68811513387E+03  0.19987262059E+04  0.21183623230E+04  0.79248029803E+02 0.  0.
        254    2    1    2    0    0  0.11300352937E+03  0.68811513387E+03  0.16949423439E+03  0.11826120462E+04  0.93998442600E+03 0.  0.
         23    2    4    4    0    0 -0.21456941984E+03  0.74941507151E+03 -0.27449590831E+02  0.78436468765E+03  0.82531799012E+02 0.  0.
         23    2    4    4    0    0  0.32757294921E+03 -0.61299937648E+02  0.19694382522E+03  0.39824735851E+03  0.93554095901E+02 0.  0.
          2    1    3    3  502    0 -0.72613179729E+02 -0.60442179155E+03  0.17203161597E+04  0.18248523407E+04  0.00000000000E+00 0. -1.
         -1    1    3    3    0  502 -0.40390349637E+02 -0.83693342318E+02  0.27841004615E+03  0.29350998227E+03  0.00000000000E+00 0.  1.
         11    1    5    5    0    0 -0.49834494907E+02  0.80336951603E+02  0.35879755941E+01  0.94606428134E+02  0.00000000000E+00 0. -1.
        -11    1    5    5    0    0 -0.16473492493E+03  0.66907811991E+03 -0.31037566425E+02  0.68975825951E+03  0.00000000000E+00 0.  1.
          4    1    6    6  503    0  0.64307020001E+02 -0.26140700149E+02  0.32025359332E+01  0.69490900570E+02  0.00000000000E+00 0. -1.
         -4    1    6    6    0  503  0.26326592921E+03 -0.35159237499E+02  0.19374128929E+03  0.32875645794E+03  0.00000000000E+00 0.  1.
<mgrwt>
<rscale>  0 0.24890263E+04</rscale>
<asrwt>0</asrwt>
<pdfrwt beam="1">  1        2 0.42070728E+00 0.24890263E+04</pdfrwt>
<pdfrwt beam="2">  1       -1 0.87134919E-01 0.24890263E+04</pdfrwt>
<totfact> 0.33339085E+00</totfact>
</mgrwt>
</event>
<event>
12    6  0.1556619E-007  0.4485401E+04  0.7818608E-02  0.7913198E-01
          2   -1    0    0  501    0  0.00000000000E+00  0.00000000000E+00  0.19839580360E+04  0.19839580360E+04  0.00000000000E+00 0. -1.
         -1   -1    0    0    0  501 -0.00000000000E+00 -0.00000000000E+00 -0.25351875664E+04  0.25351875664E+04  0.00000000000E+00 0.  1.
         24    2    1    2    0    0 -0.17000316755E+04  0.93125551809E+02  0.10597824311E+04  0.20071897315E+04  0.83016569272E+02 0.  0.
        254    2    1    2    0    0  0.17000316755E+04 -0.93125551809E+02 -0.16110119615E+04  0.25119558710E+04  0.90320689299E+03 0.  0.
         23    2    4    4    0    0  0.18563962301E+03  0.21288986110E+03 -0.58139258984E+03  0.65305838119E+03  0.93186603817E+02 0.  0.
         23    2    4    4    0    0  0.15143920525E+04 -0.30601541291E+03 -0.10296193717E+04  0.18588974898E+04  0.91406266182E+02 0.  0.
          4    1    3    3  502    0 -0.63082817038E+02  0.21571064040E+00  0.22189415406E+02  0.66871955951E+02  0.00000000000E+00 0. -1.
         -3    1    3    3    0  502 -0.16369488584E+04  0.92909841168E+02  0.10375930157E+04  0.19403177755E+04  0.00000000000E+00 0.  1.
         11    1    5    5    0    0  0.17788050510E+03  0.17033561828E+03 -0.53847468488E+03  0.59212387489E+03  0.00000000000E+00 0. -1.
        -11    1    5    5    0    0  0.77591179093E+01  0.42554242818E+02 -0.42917904956E+02  0.60934506303E+02  0.00000000000E+00 0.  1.
          1    1    6    6  503    0  0.12937582398E+04 -0.29329541248E+03 -0.87457634637E+03  0.15889356084E+04  0.00000000000E+00 0. -1.
         -1    1    6    6    0  503  0.22063381263E+03 -0.12720000426E+02 -0.15504302531E+03  0.26996188136E+03  0.00000000000E+00 0.  1.
<mgrwt>
<rscale>  0 0.44854011E+04</rscale>
<asrwt>0</asrwt>
<pdfrwt beam="1">  1        2 0.30522431E+00 0.44854011E+04</pdfrwt>
<pdfrwt beam="2">  1       -1 0.39002885E+00 0.44854011E+04</pdfrwt>
<totfact> 0.49262106E-02</totfact>
</mgrwt>
</event>
<event>
12    6  0.1556619E-007  0.1203108E+04  0.7818608E-02  0.9110140E-01
          2   -1    0    0  501    0  0.00000000000E+00  0.00000000000E+00  0.17517611652E+04  0.17517611652E+04  0.00000000000E+00 0. -1.
         -1   -1    0    0    0  501 -0.00000000000E+00 -0.00000000000E+00 -0.20657345578E+03  0.20657345578E+03  0.00000000000E+00 0.  1.
         24    2    1    2    0    0 -0.15399096536E+03 -0.17975189988E+03  0.52377704925E+03  0.58024655113E+03  0.79496539865E+02 0.  0.
        254    2    1    2    0    0  0.15399096536E+03  0.17975189988E+03  0.10214106602E+04  0.13780880698E+04  0.89432825552E+03 0.  0.
         23    2    4    4    0    0 -0.15304372905E+03  0.45540506466E+03  0.65878750652E+03  0.82085942389E+03  0.94831741114E+02 0.  0.
         23    2    4    4    0    0  0.30703469441E+03 -0.27565316478E+03  0.36262315365E+03  0.55722864596E+03  0.93558759524E+02 0.  0.
          4    1    3    3  502    0 -0.14201822020E+03 -0.12318400305E+03  0.43971806165E+03  0.47822112794E+03  0.00000000000E+00 0. -1.
         -3    1    3    3    0  502 -0.11972745166E+02 -0.56567896830E+02  0.84058987606E+02  0.10202542318E+03  0.00000000000E+00 0.  1.
         11    1    5    5    0    0 -0.15239627110E+03  0.36098476481E+03  0.56664999478E+03  0.68893166602E+03  0.00000000000E+00 0. -1.
        -11    1    5    5    0    0 -0.64745795114E+00  0.94420299847E+02  0.92137511744E+02  0.13192775787E+03  0.00000000000E+00 0.  1.
          1    1    6    6  503    0  0.28603241049E+03 -0.21495344020E+03  0.29257315823E+03  0.46218889452E+03  0.00000000000E+00 0. -1.
         -1    1    6    6    0  503  0.21002283929E+02 -0.60699724582E+02  0.70049995427E+02  0.95039751441E+02  0.00000000000E+00 0.  1.
<mgrwt>
<rscale>  0 0.12031082E+04</rscale>
<asrwt>0</asrwt>
<pdfrwt beam="1">  1        2 0.26950171E+00 0.12031082E+04</pdfrwt>
<pdfrwt beam="2">  1       -1 0.31780533E-01 0.12031082E+04</pdfrwt>
<totfact> 0.95078478E+01</totfact>
</mgrwt>
</event>
<event>
12    6  0.1556619E-007  0.1760586E+04  0.7818608E-02  0.8727545E-01
         -1   -1    0    0    0  501 -0.00000000000E+00  0.00000000000E+00  0.58010772854E+03  0.58010772854E+03  0.00000000000E+00 0.  1.
          2   -1    0    0  501    0  0.00000000000E+00 -0.00000000000E+00 -0.13358132547E+04  0.13358132547E+04  0.00000000000E+00 0. -1.
         24    2    1    2    0    0 -0.13736899370E+03  0.53821272374E+03 -0.63531399244E+03  0.84755736066E+03  0.78653888599E+02 0.  0.
        254    2    1    2    0    0  0.13736899370E+03 -0.53821272374E+03 -0.12039153374E+03  0.10683636226E+04  0.90463447439E+03 0.  0.
         23    2    4    4    0    0  0.46536518685E+03 -0.54244816934E+03 -0.77571094663E+02  0.72478090787E+03  0.92061480144E+02 0.  0.
         23    2    4    4    0    0 -0.32799619316E+03  0.42354455972E+01 -0.42820439080E+02  0.34358271473E+03  0.92822681132E+02 0.  0.
          2    1    3    3  502    0 -0.11004629818E+03  0.50947928144E+03 -0.58561910915E+03  0.78398282313E+03  0.00000000000E+00 0. -1.
         -1    1    3    3    0  502 -0.27322695523E+02  0.28733442301E+02 -0.49694883287E+02  0.63574537529E+02  0.00000000000E+00 0.  1.
         11    1    5    5    0    0  0.31065641863E+03 -0.40157600005E+03 -0.88017340725E+02  0.51528414153E+03  0.00000000000E+00 0. -1.
        -11    1    5    5    0    0  0.15470876823E+03 -0.14087216929E+03  0.10446246063E+02  0.20949676633E+03  0.00000000000E+00 0.  1.
          1    1    6    6  503    0 -0.33336827002E+02 -0.14284608255E+02 -0.31640686142E+02  0.48130313599E+02  0.00000000000E+00 0. -1.
         -1    1    6    6    0  503 -0.29465936615E+03  0.18520053853E+02 -0.11179752938E+02  0.29545240113E+03  0.00000000000E+00 0.  1.
<mgrwt>
<rscale>  0 0.17605858E+04</rscale>
<asrwt>0</asrwt>
<pdfrwt beam="1">  1        2 0.20550973E+00 0.17605858E+04</pdfrwt>
<pdfrwt beam="2">  1       -1 0.89247343E-01 0.17605858E+04</pdfrwt>
<totfact> 0.20932507E+01</totfact>
</mgrwt>
</event>
<event>
12    6  0.1556619E-007  0.1530601E+04  0.7818608E-02  0.8864355E-01
         -3   -1    0    0    0  501 -0.00000000000E+00  0.00000000000E+00  0.35957958023E+03  0.35957958023E+03  0.00000000000E+00 0.  1.
          4   -1    0    0  501    0  0.00000000000E+00 -0.00000000000E+00 -0.16288052678E+04  0.16288052678E+04  0.00000000000E+00 0. -1.
         24    2    1    2    0    0 -0.36583789624E+03 -0.28262950130E+03 -0.19014428139E+03  0.50630932744E+03  0.80482830375E+02 0.  0.
        254    2    1    2    0    0  0.36583789624E+03  0.28262950130E+03 -0.10790814061E+04  0.14820755205E+04  0.90466257036E+03 0.  0.
         23    2    4    4    0    0 -0.12215231516E+03  0.14484340650E+00 -0.85524501802E+03  0.86847367492E+03  0.88776540245E+02 0.  0.
         23    2    4    4    0    0  0.48799021139E+03  0.28248465789E+03 -0.22383638812E+03  0.61360184563E+03  0.92046009997E+02 0.  0.
          2    1    3    3  502    0 -0.19229750323E+03 -0.14916395601E+03 -0.14330823881E+03  0.28242780818E+03  0.00000000000E+00 0. -1.
         -1    1    3    3    0  502 -0.17354039301E+03 -0.13346554529E+03 -0.46836042573E+02  0.22388151927E+03  0.00000000000E+00 0.  1.
         11    1    5    5    0    0  0.33488570853E+01 -0.23122752435E+02 -0.13114145573E+03  0.13320644855E+03  0.00000000000E+00 0.  1.
        -11    1    5    5    0    0 -0.12550117224E+03  0.23267595841E+02 -0.72410356229E+03  0.73526722637E+03  0.00000000000E+00 0. -1.
          1    1    6    6  503    0  0.37330292054E+03  0.21416792956E+03 -0.21151057084E+03  0.47954112870E+03  0.00000000000E+00 0. -1.
         -1    1    6    6    0  503  0.11468729086E+03  0.68316728327E+02 -0.12325817279E+02  0.13406071693E+03  0.00000000000E+00 0.  1.
<mgrwt>
<rscale>  0 0.15306013E+04</rscale>
<asrwt>0</asrwt>
<pdfrwt beam="1">  1        4 0.25058543E+00 0.15306013E+04</pdfrwt>
<pdfrwt beam="2">  1       -3 0.55319934E-01 0.15306013E+04</pdfrwt>
<totfact> 0.44512192E-01</totfact>
</mgrwt>
</event>
<event>
12    6  0.1556619E-007  0.1163290E+04  0.7818608E-02  0.9145609E-01
         -1   -1    0    0    0  501 -0.00000000000E+00  0.00000000000E+00  0.42404843160E+03  0.42404843160E+03  0.00000000000E+00 0.  1.
          2   -1    0    0  501    0  0.00000000000E+00 -0.00000000000E+00 -0.79781254909E+03  0.79781254909E+03  0.00000000000E+00 0. -1.
         24    2    1    2    0    0 -0.58138798354E+02 -0.58208244739E+02 -0.26778942745E+03  0.29447431316E+03  0.90750338996E+02 0.  0.
        254    2    1    2    0    0  0.58138798354E+02  0.58208244739E+02 -0.10597469004E+03  0.92738666753E+03  0.91763123125E+03 0.  0.
         23    2    4    4    0    0  0.38283616171E+03  0.99344945395E+02  0.21586317060E+03  0.45955421108E+03  0.90333933905E+02 0.  0.
         23    2    4    4    0    0 -0.32469736336E+03 -0.41136700655E+02 -0.32183786064E+03  0.46783245645E+03  0.90371416145E+02 0.  0.
          2    1    3    3  502    0  0.34320963265E+01 -0.23272305018E+01 -0.15128436272E+03  0.15134118307E+03  0.00000000000E+00 0. -1.
         -1    1    3    3    0  502 -0.61570894680E+02 -0.55881014237E+02 -0.11650506472E+03  0.14313313009E+03  0.00000000000E+00 0.  1.
         11    1    5    5    0    0  0.14432982862E+03  0.50580363322E+02  0.13215270472E+03  0.20212325435E+03  0.00000000000E+00 0. -1.
        -11    1    5    5    0    0  0.23850633309E+03  0.48764582072E+02  0.83710465884E+02  0.25743095674E+03  0.00000000000E+00 0.  1.
          4    1    6    6  503    0 -0.20837448017E+03 -0.10268159091E+02 -0.25735884116E+03  0.33129885632E+03  0.00000000000E+00 0. -1.
         -4    1    6    6    0  503 -0.11632288319E+03 -0.30868541565E+02 -0.64479019481E+02  0.13653360013E+03  0.00000000000E+00 0.  1.
<mgrwt>
<rscale>  0 0.11632904E+04</rscale>
<asrwt>0</asrwt>
<pdfrwt beam="1">  1        2 0.12274039E+00 0.11632904E+04</pdfrwt>
<pdfrwt beam="2">  1       -1 0.65238221E-01 0.11632904E+04</pdfrwt>
<totfact> 0.93002821E+01</totfact>
</mgrwt>
</event>
<event>
12    6  0.1556619E-007  0.1375978E+04  0.7818608E-02  0.8971393E-01
         -3   -1    0    0    0  501 -0.00000000000E+00  0.00000000000E+00  0.61632669592E+03  0.61632669592E+03  0.00000000000E+00 0.  1.
          2   -1    0    0  501    0  0.00000000000E+00 -0.00000000000E+00 -0.76798347318E+03  0.76798347318E+03  0.00000000000E+00 0. -1.
         24    2    1    2    0    0  0.33728662715E+03  0.12294849368E+03 -0.19668476359E+03  0.41662368461E+03  0.77535781356E+02 0.  0.
        254    2    1    2    0    0 -0.33728662715E+03 -0.12294849368E+03  0.45027986323E+02  0.96768648450E+03  0.89750265279E+03 0.  0.
         23    2    4    4    0    0  0.22073132132E+03 -0.11599134580E+03 -0.21829868610E+03  0.34425169296E+03  0.93159021253E+02 0.  0.
         23    2    4    4    0    0 -0.55801794847E+03 -0.69571478847E+01  0.26332667242E+03  0.62343479154E+03  0.88868274256E+02 0.  0.
          4    1    3    3  502    0  0.80709102751E+02  0.38049237942E+02 -0.88021648015E+02  0.12533760128E+03  0.00000000000E+00 0. -1.
         -3    1    3    3    0  502  0.25657752440E+03  0.84899255743E+02 -0.10866311557E+03  0.29128608333E+03  0.00000000000E+00 0.  1.
         11    1    5    5    0    0  0.12057426243E+03 -0.81819313637E+02 -0.68933481296E+02  0.16119670496E+03  0.00000000000E+00 0. -1.
        -11    1    5    5    0    0  0.10015705889E+03 -0.34172032163E+02 -0.14936520480E+03  0.18305498800E+03  0.00000000000E+00 0.  1.
          2    1    6    6  503    0 -0.30248695480E+03 -0.43255940517E+02  0.16479804915E+03  0.34717118431E+03  0.00000000000E+00 0. -1.
         -2    1    6    6    0  503 -0.25553099367E+03  0.36298792632E+02  0.98528623275E+02  0.27626360723E+03  0.00000000000E+00 0.  1.
<mgrwt>
<rscale>  0 0.13759778E+04</rscale>
<asrwt>0</asrwt>
<pdfrwt beam="1">  1        2 0.11815130E+00 0.13759778E+04</pdfrwt>
<pdfrwt beam="2">  1       -3 0.94819491E-01 0.13759778E+04</pdfrwt>
<totfact> 0.22174743E+01</totfact>
</mgrwt>
</event>
<event>
12    6  0.1556619E-007  0.1279057E+04  0.7818608E-02  0.9046340E-01
         -1   -1    0    0    0  501 -0.00000000000E+00  0.00000000000E+00  0.70469031550E+03  0.70469031550E+03  0.00000000000E+00 0.  1.
          2   -1    0    0  501    0  0.00000000000E+00 -0.00000000000E+00 -0.58039244738E+03  0.58039244738E+03  0.00000000000E+00 0. -1.
         24    2    1    2    0    0 -0.37270542339E+02  0.31086107646E+03  0.38558571219E+02  0.32564998513E+03  0.80854481723E+02 0.  0.
        254    2    1    2    0    0  0.37270542339E+02 -0.31086107646E+03  0.85739296905E+02  0.95943277775E+03  0.90284900499E+03 0.  0.
         23    2    4    4    0    0  0.30607529193E+03  0.16329811048E+03  0.17606774778E+03  0.39969750892E+03  0.91705450286E+02 0.  0.
         23    2    4    4    0    0 -0.26880474959E+03 -0.47415918694E+03 -0.90328450872E+02  0.55973526884E+03  0.89785378442E+02 0.  0.
          4    1    3    3  502    0 -0.36938961770E+02  0.11525768218E+03 -0.17214261732E+02  0.12225036199E+03  0.00000000000E+00 0. -1.
         -3    1    3    3    0  502 -0.33158056951E+00  0.19560339428E+03  0.55772832952E+02  0.20339962314E+03  0.00000000000E+00 0.  1.
         11    1    5    5    0    0  0.31042349613E+03  0.16172621649E+03  0.16354486365E+03  0.38634833826E+03  0.00000000000E+00 0. -1.
        -11    1    5    5    0    0 -0.43482041967E+01  0.15718939883E+01  0.12522884129E+02  0.13349170662E+02  0.00000000000E+00 0.  1.
          2    1    6    6  503    0 -0.27604545164E+03 -0.46222393292E+03 -0.89329546124E+02  0.54573970292E+03  0.00000000000E+00 0. -1.
         -2    1    6    6    0  503  0.72407020462E+01 -0.11935254014E+02 -0.99890474832E+00  0.13995565912E+02  0.00000000000E+00 0.  1.
<mgrwt>
<rscale>  0 0.12790574E+04</rscale>
<asrwt>0</asrwt>
<pdfrwt beam="1">  1        2 0.89291146E-01 0.12790574E+04</pdfrwt>
<pdfrwt beam="2">  1       -1 0.10841389E+00 0.12790574E+04</pdfrwt>
<totfact> 0.45768401E+01</totfact>
</mgrwt>
</event>
<event>
12    6  0.1556619E-007  0.2289692E+04  0.7818608E-02  0.8481996E-01
          2   -1    0    0  501    0  0.00000000000E+00  0.00000000000E+00  0.12474325043E+04  0.12474325043E+04  0.00000000000E+00 0. -1.
         -3   -1    0    0    0  501 -0.00000000000E+00 -0.00000000000E+00 -0.10506964053E+04  0.10506964053E+04  0.00000000000E+00 0.  1.
         24    2    1    2    0    0  0.46951176509E+03 -0.84317231728E+03  0.10761285347E+03  0.97437157627E+03  0.80240813972E+02 0.  0.
        254    2    1    2    0    0 -0.46951176509E+03  0.84317231728E+03  0.89123245526E+02  0.13237573334E+04  0.90167048896E+03 0.  0.
         23    2    4    4    0    0 -0.56948836108E+03  0.12742948577E+03  0.72542582378E+02  0.59478587322E+03  0.89177023224E+02 0.  0.
         23    2    4    4    0    0  0.99976595993E+02  0.71574283152E+03  0.16580663147E+02  0.72897146019E+03  0.94028457183E+02 0.  0.
          2    1    3    3  502    0  0.12328049621E+03 -0.23265434205E+03 -0.60441928267E+01  0.26336790975E+03  0.00000000000E+00 0. -1.
         -1    1    3    3    0  502  0.34623126888E+03 -0.61051797524E+03  0.11365704630E+03  0.71100366652E+03  0.00000000000E+00 0.  1.
         11    1    5    5    0    0 -0.41971506825E+03  0.13097584389E+03  0.67983070599E+02  0.44490123408E+03  0.00000000000E+00 0. -1.
        -11    1    5    5    0    0 -0.14977329283E+03 -0.35463581225E+01  0.45595117790E+01  0.14988463914E+03  0.00000000000E+00 0.  1.
          4    1    6    6  503    0  0.10269692949E+03  0.42781911633E+03  0.27467759980E+02  0.44082914316E+03  0.00000000000E+00 0. -1.
         -4    1    6    6    0  503 -0.27203334956E+01  0.28792371519E+03 -0.10887096832E+02  0.28814231703E+03  0.00000000000E+00 0.  1.
<mgrwt>
<rscale>  0 0.22896924E+04</rscale>
<asrwt>0</asrwt>
<pdfrwt beam="1">  1        2 0.19191269E+00 0.22896924E+04</pdfrwt>
<pdfrwt beam="2">  1       -3 0.16164560E+00 0.22896924E+04</pdfrwt>
<totfact> 0.26971255E+00</totfact>
</mgrwt>
</event>
<event>
12    6  0.1556619E-007  0.1765747E+04  0.7818608E-02  0.8724730E-01
         -1   -1    0    0    0  501 -0.00000000000E+00  0.00000000000E+00  0.44036823719E+03  0.44036823719E+03  0.00000000000E+00 0.  1.
          2   -1    0    0  501    0  0.00000000000E+00 -0.00000000000E+00 -0.17700320427E+04  0.17700320427E+04  0.00000000000E+00 0. -1.
         24    2    1    2    0    0 -0.13459222013E+03 -0.30008583754E+03 -0.11976114624E+04  0.12445163615E+04  0.79882311484E+02 0.  0.
        254    2    1    2    0    0  0.13459222013E+03  0.30008583754E+03 -0.13205234308E+03  0.96588391830E+03  0.89851396579E+03 0.  0.
         23    2    4    4    0    0  0.46045972169E+03  0.38531196359E+03 -0.75687992519E+02  0.61186791282E+03  0.90361529137E+02 0.  0.
         23    2    4    4    0    0 -0.32586750156E+03 -0.85226126052E+02 -0.56364350560E+02  0.35401600548E+03  0.93259160361E+02 0.  0.
          2    1    3    3  502    0 -0.90363201626E+02 -0.10789857932E+03 -0.53233119028E+03  0.55062156493E+03  0.00000000000E+00 0. -1.
         -1    1    3    3    0  502 -0.44229018504E+02 -0.19218725821E+03 -0.66528027211E+03  0.69389479661E+03  0.00000000000E+00 0.  1.
         11    1    5    5    0    0  0.38444436980E+03  0.27422536241E+03 -0.50395759825E+02  0.47490710194E+03  0.00000000000E+00 0. -1.
        -11    1    5    5    0    0  0.76015351883E+02  0.11108660118E+03 -0.25292232695E+02  0.13696081088E+03  0.00000000000E+00 0.  1.
          1    1    6    6  503    0 -0.14265122529E+03  0.94642828880E+01 -0.30253291081E+02  0.14613078508E+03  0.00000000000E+00 0. -1.
         -1    1    6    6    0  503 -0.18321627627E+03 -0.94690408940E+02 -0.26111059479E+02  0.20788522041E+03  0.00000000000E+00 0.  1.
<mgrwt>
<rscale>  0 0.17657473E+04</rscale>
<asrwt>0</asrwt>
<pdfrwt beam="1">  1        2 0.27231262E+00 0.17657473E+04</pdfrwt>
<pdfrwt beam="2">  1       -1 0.67748959E-01 0.17657473E+04</pdfrwt>
<totfact> 0.21327029E+01</totfact>
</mgrwt>
</event>
<event>
12    6  0.1556619E-007  0.2030213E+04  0.7818608E-02  0.8592624E-01
         -1   -1    0    0    0  501 -0.00000000000E+00  0.00000000000E+00  0.10726224754E+04  0.10726224754E+04  0.00000000000E+00 0.  1.
          2   -1    0    0  501    0  0.00000000000E+00 -0.00000000000E+00 -0.96067477093E+03  0.96067477093E+03  0.00000000000E+00 0. -1.
         24    2    1    2    0    0  0.22795934611E+03 -0.17626486059E+03 -0.71645103723E+03  0.77641798396E+03  0.80548324113E+02 0.  0.
        254    2    1    2    0    0 -0.22795934611E+03  0.17626486059E+03  0.82839874166E+03  0.12568792623E+04  0.90025898514E+03 0.  0.
         23    2    4    4    0    0  0.71647429045E+01 -0.24350587674E+03  0.70490145160E+03  0.75252370041E+03  0.10029664834E+03 0.  0.
         23    2    4    4    0    0 -0.23512408902E+03  0.41977073732E+03  0.12349729006E+03  0.50435556192E+03  0.87362137322E+02 0.  0.
          4    1    3    3  502    0  0.22827039305E+03 -0.16600114723E+03 -0.71059453263E+03  0.76459685000E+03  0.00000000000E+00 0. -1.
         -3    1    3    3    0  502 -0.31104693774E+00 -0.10263713360E+02 -0.58565046019E+01  0.11821133967E+02  0.00000000000E+00 0.  1.
         11    1    5    5    0    0 -0.41223245643E+02 -0.54665998795E+02  0.17737059117E+03  0.19012641589E+03  0.00000000000E+00 0.  1.
        -11    1    5    5    0    0  0.48387988548E+02 -0.18883987794E+03  0.52753086042E+03  0.56239728452E+03  0.00000000000E+00 0. -1.
          3    1    6    6  503    0 -0.21462730343E+03  0.35671381443E+03  0.13375060895E+03  0.43726290739E+03  0.00000000000E+00 0. -1.
         -3    1    6    6    0  503 -0.20496785585E+02  0.63056922891E+02 -0.10253318883E+02  0.67092654530E+02  0.00000000000E+00 0.  1.
<mgrwt>
<rscale>  0 0.20302131E+04</rscale>
<asrwt>0</asrwt>
<pdfrwt beam="1">  1        2 0.14779612E+00 0.20302131E+04</pdfrwt>
<pdfrwt beam="2">  1       -1 0.16501884E+00 0.20302131E+04</pdfrwt>
<totfact> 0.75667460E+00</totfact>
</mgrwt>
</event>
<event>
12    6  0.1556619E-007  0.1515497E+04  0.7818608E-02  0.8874212E-01
          2   -1    0    0  501    0  0.00000000000E+00  0.00000000000E+00  0.13412941696E+04  0.13412941696E+04  0.00000000000E+00 0. -1.
         -1   -1    0    0    0  501 -0.00000000000E+00 -0.00000000000E+00 -0.42808142751E+03  0.42808142751E+03  0.00000000000E+00 0.  1.
         24    2    1    2    0    0  0.11664766268E+03  0.46995757734E+03  0.23492653137E+03  0.54401240066E+03  0.79323484719E+02 0.  0.
        254    2    1    2    0    0 -0.11664766268E+03 -0.46995757734E+03  0.67828621073E+03  0.12253631965E+04  0.89831841675E+03 0.  0.
         23    2    4    4    0    0 -0.15218470741E+03 -0.27012787360E+03  0.87226324104E+03  0.93011040040E+03  0.90182825362E+02 0.  0.
         23    2    4    4    0    0  0.35537044723E+02 -0.19982970374E+03 -0.19397703031E+03  0.29525279607E+03  0.91391100512E+02 0.  0.
          2    1    3    3  502    0  0.61016007431E+01  0.11954550503E+03  0.86717917581E+02  0.14781188901E+03  0.00000000000E+00 0. -1.
         -1    1    3    3    0  502  0.11054606194E+03  0.35041207231E+03  0.14820861379E+03  0.39620051165E+03  0.00000000000E+00 0.  1.
         11    1    5    5    0    0 -0.73941818568E+01 -0.67873140286E+02  0.12354539426E+03  0.14115559337E+03  0.00000000000E+00 0. -1.
        -11    1    5    5    0    0 -0.14479052555E+03 -0.20225473331E+03  0.74871784678E+03  0.78895480702E+03  0.00000000000E+00 0.  1.
          1    1    6    6  503    0 -0.97519209307E+01 -0.12123099967E+03 -0.65969857330E+02  0.13836212386E+03  0.00000000000E+00 0. -1.
         -1    1    6    6    0  503  0.45288965653E+02 -0.78598704071E+02 -0.12800717298E+03  0.15689067221E+03  0.00000000000E+00 0.  1.
<mgrwt>
<rscale>  0 0.15154974E+04</rscale>
<asrwt>0</asrwt>
<pdfrwt beam="1">  1        2 0.20635295E+00 0.15154974E+04</pdfrwt>
<pdfrwt beam="2">  1       -1 0.65858682E-01 0.15154974E+04</pdfrwt>
<totfact> 0.40209907E+01</totfact>
</mgrwt>
</event>
<event>
12    6  0.1556619E-007  0.2865512E+04  0.7818608E-02  0.8283213E-01
         -1   -1    0    0    0  501 -0.00000000000E+00  0.00000000000E+00  0.12499282964E+04  0.12499282964E+04  0.00000000000E+00 0.  1.
          2   -1    0    0  501    0  0.00000000000E+00 -0.00000000000E+00 -0.16423254619E+04  0.16423254619E+04  0.00000000000E+00 0. -1.
         24    2    1    2    0    0 -0.35654974086E+03  0.77609170161E+03  0.79647050801E+03  0.11704979204E+04  0.79082642951E+02 0.  0.
        254    2    1    2    0    0  0.35654974086E+03 -0.77609170161E+03 -0.11888676735E+04  0.17217558380E+04  0.90641644588E+03 0.  0.
         23    2    4    4    0    0  0.48966161875E+03 -0.24235124648E+03 -0.20568817093E+03  0.59072428032E+03  0.90249233552E+02 0.  0.
         23    2    4    4    0    0 -0.13311187790E+03 -0.53374045513E+03 -0.98317950261E+03  0.11310315576E+04  0.99964016250E+02 0.  0.
          4    1    3    3  502    0 -0.26351319574E+03  0.51732133961E+03  0.57865860238E+03  0.81969893916E+03  0.00000000000E+00 0. -1.
         -3    1    3    3    0  502 -0.93036545113E+02  0.25877036200E+03  0.21781190562E+03  0.35079898119E+03  0.00000000000E+00 0.  1.
         11    1    5    5    0    0  0.43147063565E+03 -0.21113488634E+03 -0.14691855023E+03  0.50232450673E+03  0.00000000000E+00 0. -1.
        -11    1    5    5    0    0  0.58190983098E+02 -0.31216360139E+02 -0.58769620700E+02  0.88399773594E+02  0.00000000000E+00 0.  1.
          4    1    6    6  503    0 -0.67152857937E+02 -0.34945313033E+03 -0.71901781665E+03  0.80225533173E+03  0.00000000000E+00 0. -1.
         -4    1    6    6    0  503 -0.65959019958E+02 -0.18428732480E+03 -0.26416168597E+03  0.32877622591E+03  0.00000000000E+00 0.  1.
<mgrwt>
<rscale>  0 0.28655115E+04</rscale>
<asrwt>0</asrwt>
<pdfrwt beam="1">  1        2 0.25266546E+00 0.28655115E+04</pdfrwt>
<pdfrwt beam="2">  1       -1 0.19229666E+00 0.28655115E+04</pdfrwt>
<totfact> 0.17717348E+00</totfact>
</mgrwt>
</event>
<event>
12    6  0.1556619E-007  0.1996322E+04  0.7818608E-02  0.8608342E-01
         -1   -1    0    0    0  501 -0.00000000000E+00  0.00000000000E+00  0.75387804054E+03  0.75387804054E+03  0.00000000000E+00 0.  1.
          2   -1    0    0  501    0  0.00000000000E+00 -0.00000000000E+00 -0.13216003132E+04  0.13216003132E+04  0.00000000000E+00 0. -1.
         24    2    1    2    0    0 -0.23860752625E+03  0.85829841435E+02 -0.10024927442E+04  0.10371033965E+04  0.79318595972E+02 0.  0.
        254    2    1    2    0    0  0.23860752625E+03 -0.85829841435E+02  0.43477047145E+03  0.10383749573E+04  0.90823833646E+03 0.  0.
         23    2    4    4    0    0 -0.12224388288E+03  0.26229465062E+03 -0.78652065943E+02  0.31362633043E+03  0.91832875469E+02 0.  0.
         23    2    4    4    0    0  0.36085140914E+03 -0.34812449206E+03  0.51342253740E+03  0.72474862686E+03  0.10125941330E+03 0.  0.
          4    1    3    3  502    0 -0.13396311488E+03  0.71134524039E+01 -0.54192718644E+03  0.55828468791E+03  0.00000000000E+00 0. -1.
         -1    1    3    3    0  502 -0.10464441137E+03  0.78716389031E+02 -0.46056555771E+03  0.47881870857E+03  0.00000000000E+00 0.  1.
         11    1    5    5    0    0 -0.31855145733E+01 -0.34933836132E+01  0.84170893521E+01  0.96539435117E+01  0.00000000000E+00 0.  1.
        -11    1    5    5    0    0 -0.11905836831E+03  0.26578803424E+03 -0.87069155295E+02  0.30397238692E+03  0.00000000000E+00 0. -1.
          3    1    6    6  503    0  0.36476457199E+03 -0.34460191541E+03  0.49225365137E+03  0.70293479810E+03  0.00000000000E+00 0. -1.
         -3    1    6    6    0  503 -0.39131628577E+01 -0.35225766505E+01  0.21168886024E+02  0.21813828763E+02  0.00000000000E+00 0.  1.
<mgrwt>
<rscale>  0 0.19963221E+04</rscale>
<asrwt>0</asrwt>
<pdfrwt beam="1">  1        2 0.20332312E+00 0.19963221E+04</pdfrwt>
<pdfrwt beam="2">  1       -1 0.11598124E+00 0.19963221E+04</pdfrwt>
<totfact> 0.11441133E+01</totfact>
</mgrwt>
</event>
<event>
12    6  0.1556619E-007  0.2566715E+04  0.7818608E-02  0.8379596E-01
         -1   -1    0    0    0  501 -0.00000000000E+00  0.00000000000E+00  0.10740122335E+04  0.10740122335E+04  0.00000000000E+00 0.  1.
          2   -1    0    0  501    0  0.00000000000E+00 -0.00000000000E+00 -0.15335084351E+04  0.15335084351E+04  0.00000000000E+00 0. -1.
         24    2    1    2    0    0 -0.78515026366E+03  0.35293302062E+03  0.53323657917E+03  0.10157959619E+04  0.80483124259E+02 0.  0.
        254    2    1    2    0    0  0.78515026366E+03 -0.35293302062E+03 -0.99273278071E+03  0.15917247067E+04  0.89835767630E+03 0.  0.
         23    2    4    4    0    0  0.20403825780E+03  0.12685426242E+02  0.13943222565E+03  0.26419232821E+03  0.92540315806E+02 0.  0.
         23    2    4    4    0    0  0.58111200586E+03 -0.36561844686E+03 -0.11321650064E+04  0.13275323785E+04  0.95794584250E+02 0.  0.
          4    1    3    3  502    0 -0.80306680858E+02  0.25786124560E+02  0.79787624606E+02  0.11610405786E+03  0.00000000000E+00 0. -1.
         -3    1    3    3    0  502 -0.70484358280E+03  0.32714689606E+03  0.45344895456E+03  0.89969190405E+03  0.00000000000E+00 0.  1.
         11    1    5    5    0    0  0.37700915694E+02 -0.21170426689E+02 -0.19434657020E+01  0.43281902330E+02  0.00000000000E+00 0. -1.
        -11    1    5    5    0    0  0.16633734210E+03  0.33855852931E+02  0.14137569135E+03  0.22091042588E+03  0.00000000000E+00 0.  1.
          3    1    6    6  503    0  0.13404714151E+03 -0.78909739149E+02 -0.18571657234E+03  0.24225199343E+03  0.00000000000E+00 0. -1.
         -3    1    6    6    0  503  0.44706486435E+03 -0.28670870772E+03 -0.94644843403E+03  0.10852803851E+04  0.00000000000E+00 0.  1.
<mgrwt>
<rscale>  0 0.25667153E+04</rscale>
<asrwt>0</asrwt>
<pdfrwt beam="1">  1        2 0.23592438E+00 0.25667153E+04</pdfrwt>
<pdfrwt beam="2">  1       -1 0.16523265E+00 0.25667153E+04</pdfrwt>
<totfact> 0.32769630E+00</totfact>
</mgrwt>
</event>
<event>
12    6  0.1556619E-007  0.2066619E+04  0.7818608E-02  0.8576092E-01
          2   -1    0    0  501    0  0.00000000000E+00  0.00000000000E+00  0.89932406623E+03  0.89932406623E+03  0.00000000000E+00 0. -1.
         -1   -1    0    0    0  501 -0.00000000000E+00 -0.00000000000E+00 -0.11872569104E+04  0.11872569104E+04  0.00000000000E+00 0.  1.
         24    2    1    2    0    0 -0.75476903491E+01  0.78256836232E+03 -0.44821787482E+02  0.78773376585E+03  0.77751423809E+02 0.  0.
        254    2    1    2    0    0  0.75476903491E+01 -0.78256836232E+03 -0.24311105666E+03  0.12988472108E+04  0.10076859043E+04 0.  0.
         23    2    4    4    0    0 -0.53673413629E+02 -0.21434974758E+02 -0.48147780049E+03  0.49353191093E+03  0.91720124659E+02 0.  0.
         23    2    4    4    0    0  0.61221103978E+02 -0.76113338756E+03  0.23836674382E+03  0.80531529983E+03  0.92962198496E+02 0.  0.
          4    1    3    3  502    0 -0.33635456995E+02  0.65653534674E+03 -0.46248453065E+02  0.65902118698E+03  0.00000000000E+00 0. -1.
         -3    1    3    3    0  502  0.26087766646E+02  0.12603301558E+03  0.14266655835E+01  0.12871257887E+03  0.00000000000E+00 0.  1.
         11    1    5    5    0    0 -0.57019598289E+02 -0.23421026307E+02 -0.48462357583E+03  0.48852818681E+03  0.00000000000E+00 0.  1.
        -11    1    5    5    0    0  0.33461846598E+01  0.19860515488E+01  0.31457753396E+01  0.50037241151E+01  0.00000000000E+00 0. -1.
          3    1    6    6  503    0 -0.18294953192E+02 -0.32539845849E+03  0.88450778666E+02  0.33770164695E+03  0.00000000000E+00 0. -1.
         -3    1    6    6    0  503  0.79516057170E+02 -0.43573492906E+03  0.14991596516E+03  0.46761365288E+03  0.00000000000E+00 0.  1.
<mgrwt>
<rscale>  0 0.20666192E+04</rscale>
<asrwt>0</asrwt>
<pdfrwt beam="1">  1        2 0.13835755E+00 0.20666192E+04</pdfrwt>
<pdfrwt beam="2">  1       -1 0.18265491E+00 0.20666192E+04</pdfrwt>
<totfact> 0.61636544E+00</totfact>
</mgrwt>
</event>
<event>
12    6  0.1556619E-007  0.2643675E+04  0.7818608E-02  0.8353515E-01
          2   -1    0    0  501    0  0.00000000000E+00  0.00000000000E+00  0.47277429994E+04  0.47277429994E+04  0.00000000000E+00 0. -1.
         -1   -1    0    0    0  501 -0.00000000000E+00 -0.00000000000E+00 -0.36957470574E+03  0.36957470574E+03  0.00000000000E+00 0.  1.
         24    2    1    2    0    0 -0.10908459916E+04  0.21686417290E+03  0.25770918324E+04  0.28080209268E+04  0.81266020623E+02 0.  0.
        254    2    1    2    0    0  0.10908459916E+04 -0.21686417290E+03  0.17810764613E+04  0.22892967783E+04  0.91196015891E+03 0.  0.
         23    2    4    4    0    0  0.22385602293E+03  0.15062913911E+03  0.14658424676E+02  0.28530744291E+03  0.91568613687E+02 0.  0.
         23    2    4    4    0    0  0.86698996867E+03 -0.36749331200E+03  0.17664180366E+04  0.20039893354E+04  0.94961235627E+02 0.  0.
          4    1    3    3  502    0 -0.27895887376E+03  0.35890873558E+02  0.72826466365E+03  0.78068920088E+03  0.00000000000E+00 0. -1.
         -3    1    3    3    0  502 -0.81188711784E+03  0.18097329934E+03  0.18488271687E+04  0.20273317259E+04  0.00000000000E+00 0.  1.
         11    1    5    5    0    0  0.11196673151E+03  0.22595371759E+02  0.15497968446E+02  0.11527049413E+03  0.00000000000E+00 0.  1.
        -11    1    5    5    0    0  0.11188929142E+03  0.12803376735E+03 -0.83954376986E+00  0.17003694878E+03  0.00000000000E+00 0. -1.
          4    1    6    6  503    0  0.30785072561E+02 -0.17884017334E+02  0.11266863460E+03  0.11815997627E+03  0.00000000000E+00 0. -1.
         -4    1    6    6    0  503  0.83620489610E+03 -0.34960929467E+03  0.16537494020E+04  0.18858293592E+04  0.00000000000E+00 0.  1.
<mgrwt>
<rscale>  0 0.26436749E+04</rscale>
<asrwt>0</asrwt>
<pdfrwt beam="1">  1        2 0.72734503E+00 0.26436749E+04</pdfrwt>
<pdfrwt beam="2">  1       -1 0.56857650E-01 0.26436749E+04</pdfrwt>
<totfact> 0.22577648E-01</totfact>
</mgrwt>
</event>
<event>
12    6  0.1556619E-007  0.1913509E+04  0.7818608E-02  0.8648161E-01
          2   -1    0    0  501    0  0.00000000000E+00  0.00000000000E+00  0.71872883230E+03  0.71872883230E+03  0.00000000000E+00 0. -1.
         -1   -1    0    0    0  501 -0.00000000000E+00 -0.00000000000E+00 -0.12736082555E+04  0.12736082555E+04  0.00000000000E+00 0.  1.
         24    2    1    2    0    0  0.29101952739E+03  0.10627199588E+03  0.48315702525E+03  0.57991658778E+03  0.82924274545E+02 0.  0.
        254    2    1    2    0    0 -0.29101952739E+03 -0.10627199588E+03 -0.10380364484E+04  0.14124205000E+04  0.90632549237E+03 0.  0.
         23    2    4    4    0    0 -0.37247210821E+03 -0.10708300653E+03 -0.11681468630E+04  0.12341931889E+04  0.91997240725E+02 0.  0.
         23    2    4    4    0    0  0.81452580826E+02  0.81101065241E+00  0.13011041460E+03  0.17822731108E+03  0.90559780061E+02 0.  0.
          2    1    3    3  502    0  0.95634331432E+02  0.69734718268E+02  0.22357229909E+03  0.25296922580E+03  0.00000000000E+00 0. -1.
         -3    1    3    3    0  502  0.19538519595E+03  0.36537277610E+02  0.25958472616E+03  0.32694736199E+03  0.00000000000E+00 0.  1.
         11    1    5    5    0    0 -0.13335059638E+02 -0.26399716802E+02 -0.69770536053E+02  0.75780581707E+02  0.00000000000E+00 0. -1.
        -11    1    5    5    0    0 -0.35913704857E+03 -0.80683289728E+02 -0.10983763270E+04  0.11584126072E+04  0.00000000000E+00 0.  1.
          1    1    6    6  503    0  0.26076907673E+02 -0.43486634664E+02  0.59114618831E+02  0.77882158854E+02  0.00000000000E+00 0. -1.
         -1    1    6    6    0  503  0.55375673152E+02  0.44297645317E+02  0.70995795771E+02  0.10034515222E+03  0.00000000000E+00 0.  1.
<mgrwt>
<rscale>  0 0.19135088E+04</rscale>
<asrwt>0</asrwt>
<pdfrwt beam="1">  1        2 0.11057367E+00 0.19135088E+04</pdfrwt>
<pdfrwt beam="2">  1       -1 0.19593973E+00 0.19135088E+04</pdfrwt>
<totfact> 0.67938234E+00</totfact>
</mgrwt>
</event>
<event>
12    6  0.1556619E-007  0.1503443E+04  0.7818608E-02  0.8882167E-01
         -1   -1    0    0    0  501 -0.00000000000E+00  0.00000000000E+00  0.26281260916E+03  0.26281260916E+03  0.00000000000E+00 0.  1.
          2   -1    0    0  501    0  0.00000000000E+00 -0.00000000000E+00 -0.21501442967E+04  0.21501442967E+04  0.00000000000E+00 0. -1.
         24    2    1    2    0    0  0.45892935239E+03 -0.85481455418E+02 -0.42850588748E+03  0.63857894080E+03  0.79009735597E+02 0.  0.
        254    2    1    2    0    0 -0.45892935239E+03  0.85481455418E+02 -0.14588258001E+04  0.17743779651E+04  0.89572385157E+03 0.  0.
         23    2    4    4    0    0 -0.89508408051E+02 -0.36358398794E+03 -0.35454278117E+03  0.52354384283E+03  0.90512431696E+02 0.  0.
         23    2    4    4    0    0 -0.36942094434E+03  0.44906544336E+03 -0.11042830189E+04  0.12508341222E+04  0.83746098284E+02 0.  0.
          4    1    3    3  502    0  0.79650263360E+02 -0.31852150242E+02 -0.11570257090E+03  0.14403405445E+03  0.00000000000E+00 0. -1.
         -3    1    3    3    0  502  0.37927908903E+03 -0.53629305176E+02 -0.31280331658E+03  0.49454488635E+03  0.00000000000E+00 0.  1.
         11    1    5    5    0    0 -0.12954275411E+02 -0.23082370525E+03 -0.22943330890E+03  0.32571005417E+03  0.00000000000E+00 0.  1.
        -11    1    5    5    0    0 -0.76554132640E+02 -0.13276028270E+03 -0.12510947226E+03  0.19783378866E+03  0.00000000000E+00 0. -1.
          3    1    6    6  503    0 -0.31612481663E+03  0.42273402954E+03 -0.10016291498E+04  0.11322101895E+04  0.00000000000E+00 0. -1.
         -3    1    6    6    0  503 -0.53296127708E+02  0.26331413827E+02 -0.10265386911E+03  0.11862393277E+03  0.00000000000E+00 0.  1.
<mgrwt>
<rscale>  0 0.15034428E+04</rscale>
<asrwt>0</asrwt>
<pdfrwt beam="1">  1        2 0.33079144E+00 0.15034428E+04</pdfrwt>
<pdfrwt beam="2">  1       -1 0.40432708E-01 0.15034428E+04</pdfrwt>
<totfact> 0.36219889E+01</totfact>
</mgrwt>
</event>
<event>
12    6  0.1556619E-007  0.1818404E+04  0.7818608E-02  0.8696573E-01
          2   -1    0    0  501    0  0.00000000000E+00  0.00000000000E+00  0.31440284209E+04  0.31440284209E+04  0.00000000000E+00 0. -1.
         -1   -1    0    0    0  501 -0.00000000000E+00 -0.00000000000E+00 -0.26292651513E+03  0.26292651513E+03  0.00000000000E+00 0.  1.
         24    2    1    2    0    0 -0.55697676165E+03  0.33047521126E+03  0.15029440061E+04  0.16384950736E+04  0.79927732427E+02 0.  0.
        254    2    1    2    0    0  0.55697676165E+03 -0.33047521126E+03  0.13781578996E+04  0.17684598624E+04  0.89927421309E+03 0.  0.
         23    2    4    4    0    0  0.49003705070E+02  0.17185255214E+03  0.85585133254E+03  0.87883575940E+03  0.89084935879E+02 0.  0.
         23    2    4    4    0    0  0.50797305658E+03 -0.50232776340E+03  0.52230656707E+03  0.88962410299E+03  0.90868512266E+02 0.  0.
          4    1    3    3  502    0 -0.51162581669E+03  0.27549095906E+03  0.13509510416E+04  0.14706206042E+04  0.00000000000E+00 0. -1.
         -3    1    3    3    0  502 -0.45350944956E+02  0.54984252199E+02  0.15199296456E+03  0.16787446939E+03  0.00000000000E+00 0.  1.
         11    1    5    5    0    0  0.37068342975E+02  0.18037149152E+03  0.76785524724E+03  0.78962625192E+03  0.00000000000E+00 0.  1.
        -11    1    5    5    0    0  0.11935362094E+02 -0.85189393872E+01  0.87996085308E+02  0.89209507487E+02  0.00000000000E+00 0. -1.
          1    1    6    6  503    0  0.36117463202E+01  0.35536041802E+01  0.76989355399E+01  0.92166383567E+01  0.00000000000E+00 0. -1.
         -1    1    6    6    0  503  0.50436131026E+03 -0.50588136758E+03  0.51460763153E+03  0.88040746463E+03  0.00000000000E+00 0.  1.
<mgrwt>
<rscale>  0 0.18184042E+04</rscale>
<asrwt>0</asrwt>
<pdfrwt beam="1">  1        2 0.48369665E+00 0.18184042E+04</pdfrwt>
<pdfrwt beam="2">  1       -1 0.40450235E-01 0.18184042E+04</pdfrwt>
<totfact> 0.90719611E+00</totfact>
</mgrwt>
</event>
<event>
12    6  0.1556619E-007  0.1540609E+04  0.7818608E-02  0.8857889E-01
         -1   -1    0    0    0  501 -0.00000000000E+00  0.00000000000E+00  0.45510794301E+03  0.45510794301E+03  0.00000000000E+00 0.  1.
          2   -1    0    0  501    0  0.00000000000E+00 -0.00000000000E+00 -0.13037985451E+04  0.13037985451E+04  0.00000000000E+00 0. -1.
         24    2    1    2    0    0 -0.34648571861E+03  0.44299320733E+02 -0.68600046407E+03  0.77382723125E+03  0.78722068684E+02 0.  0.
        254    2    1    2    0    0  0.34648571861E+03 -0.44299320733E+02 -0.16269013804E+03  0.98507925687E+03  0.90658605675E+03 0.  0.
         23    2    4    4    0    0 -0.23952084196E+03 -0.10586476957E+01  0.16615172059E+03  0.30555128837E+03  0.91563317433E+02 0.  0.
         23    2    4    4    0    0  0.58600656058E+03 -0.43240673037E+02 -0.32884185862E+03  0.67952796851E+03  0.91366553819E+02 0.  0.
          4    1    3    3  502    0 -0.29756168716E+03  0.16929232634E+02 -0.52991463036E+03  0.60797949970E+03  0.00000000000E+00 0. -1.
         -3    1    3    3    0  502 -0.48924031458E+02  0.27370088098E+02 -0.15608583371E+03  0.16584773155E+03  0.00000000000E+00 0.  1.
         11    1    5    5    0    0 -0.23643263659E+03 -0.19940857262E+02  0.15267426063E+03  0.28214793866E+03  0.00000000000E+00 0.  1.
        -11    1    5    5    0    0 -0.30882053754E+01  0.18882209567E+02  0.13477459954E+02  0.23403349704E+02  0.00000000000E+00 0. -1.
          3    1    6    6  503    0  0.10244761067E+03 -0.40912826152E+02 -0.74908154773E+02  0.13334393097E+03  0.00000000000E+00 0. -1.
         -3    1    6    6    0  503  0.48355894991E+03 -0.23278468854E+01 -0.25393370385E+03  0.54618403754E+03  0.00000000000E+00 0.  1.
<mgrwt>
<rscale>  0 0.15406091E+04</rscale>
<asrwt>0</asrwt>
<pdfrwt beam="1">  1        2 0.20058439E+00 0.15406091E+04</pdfrwt>
<pdfrwt beam="2">  1       -1 0.70016606E-01 0.15406091E+04</pdfrwt>
<totfact> 0.37245602E+01</totfact>
</mgrwt>
</event>
<event>
12    6  0.1556619E-007  0.2766177E+04  0.7818608E-02  0.8313847E-01
         -1   -1    0    0    0  501 -0.00000000000E+00  0.00000000000E+00  0.95856719281E+03  0.95856719281E+03  0.00000000000E+00 0.  1.
          2   -1    0    0  501    0  0.00000000000E+00 -0.00000000000E+00 -0.19956182215E+04  0.19956182215E+04  0.00000000000E+00 0. -1.
         24    2    1    2    0    0 -0.97713849573E+02  0.92822477752E+03  0.39979961309E+03  0.10184375407E+04  0.78905384514E+02 0.  0.
        254    2    1    2    0    0  0.97713849573E+02 -0.92822477752E+03 -0.14368506418E+04  0.19357478736E+04  0.90079455443E+03 0.  0.
         23    2    4    4    0    0  0.48843735914E+03 -0.46788189563E+03 -0.67824494538E+03  0.96209907525E+03  0.90188151112E+02 0.  0.
         23    2    4    4    0    0 -0.39072350957E+03 -0.46034288189E+03 -0.75860569641E+03  0.97364879835E+03  0.89044651999E+02 0.  0.
          4    1    3    3  502    0 -0.45441832869E+02  0.26011517253E+03  0.14681317590E+03  0.30212409995E+03  0.00000000000E+00 0. -1.
         -3    1    3    3    0  502 -0.52272016704E+02  0.66810960499E+03  0.25298643719E+03  0.71631344076E+03  0.00000000000E+00 0.  1.
         11    1    5    5    0    0  0.46996191531E+03 -0.41827729373E+03 -0.63283456516E+03  0.89235625350E+03  0.00000000000E+00 0.  1.
        -11    1    5    5    0    0  0.18475443825E+02 -0.49604601897E+02 -0.45410380220E+02  0.69742821750E+02  0.00000000000E+00 0. -1.
          1    1    6    6  503    0 -0.17670995197E+03 -0.14670033771E+03 -0.31274383822E+03  0.38801559834E+03  0.00000000000E+00 0. -1.
         -1    1    6    6    0  503 -0.21401355759E+03 -0.31364254419E+03 -0.44586185819E+03  0.58563320001E+03  0.00000000000E+00 0.  1.
<mgrwt>
<rscale>  0 0.27661773E+04</rscale>
<asrwt>0</asrwt>
<pdfrwt beam="1">  1        2 0.30701819E+00 0.27661773E+04</pdfrwt>
<pdfrwt beam="2">  1       -1 0.14747187E+00 0.27661773E+04</pdfrwt>
<totfact> 0.24358777E+00</totfact>
</mgrwt>
</event>
<event>
12    6  0.1556619E-007  0.2204732E+04  0.7818608E-02  0.8516461E-01
          2   -1    0    0  501    0  0.00000000000E+00  0.00000000000E+00  0.19868850928E+04  0.19868850928E+04  0.00000000000E+00 0. -1.
         -1   -1    0    0    0  501 -0.00000000000E+00 -0.00000000000E+00 -0.61161621667E+03  0.61161621667E+03  0.00000000000E+00 0.  1.
         24    2    1    2    0    0  0.14178376960E+03 -0.64764411308E+03  0.13184925343E+04  0.14779196095E+04  0.79235563621E+02 0.  0.
        254    2    1    2    0    0 -0.14178376960E+03  0.64764411308E+03  0.56776341793E+02  0.11205817000E+04  0.90162867011E+03 0.  0.
         23    2    4    4    0    0 -0.17275788067E+03  0.10236943481E+03  0.40725240391E+03  0.46516968939E+03  0.10101253841E+03 0.  0.
         23    2    4    4    0    0  0.30974111074E+02  0.54527467828E+03 -0.35047606212E+03  0.65541201057E+03  0.91910625902E+02 0.  0.
          4    1    3    3  502    0  0.81908346437E+02 -0.49973764855E+03  0.10462129761E+04  0.11623288201E+04  0.00000000000E+00 0. -1.
         -3    1    3    3    0  502  0.59875423161E+02 -0.14790646454E+03  0.27227955824E+03  0.31559078945E+03  0.00000000000E+00 0.  1.
         11    1    5    5    0    0 -0.13182249441E+03  0.51937014925E+02  0.35357204681E+03  0.38090394568E+03  0.00000000000E+00 0.  1.
        -11    1    5    5    0    0 -0.40935386261E+02  0.50432419882E+02  0.53680357101E+02  0.84265743704E+02  0.00000000000E+00 0. -1.
          1    1    6    6  503    0  0.33752115379E+02  0.91227172194E+02 -0.86678599513E+02  0.13028730503E+03  0.00000000000E+00 0. -1.
         -1    1    6    6    0  503 -0.27780043051E+01  0.45404750608E+03 -0.26379746261E+03  0.52512470554E+03  0.00000000000E+00 0.  1.
<mgrwt>
<rscale>  0 0.22047323E+04</rscale>
<asrwt>0</asrwt>
<pdfrwt beam="1">  1        2 0.30567463E+00 0.22047323E+04</pdfrwt>
<pdfrwt beam="2">  1       -1 0.94094803E-01 0.22047323E+04</pdfrwt>
<totfact> 0.77301910E+00</totfact>
</mgrwt>
</event>
<event>
12    6  0.1556619E-007  0.1465145E+04  0.7818608E-02  0.8907968E-01
          2   -1    0    0  501    0  0.00000000000E+00  0.00000000000E+00  0.75807233443E+03  0.75807233443E+03  0.00000000000E+00 0. -1.
         -1   -1    0    0    0  501 -0.00000000000E+00 -0.00000000000E+00 -0.70793036580E+03  0.70793036580E+03  0.00000000000E+00 0.  1.
         24    2    1    2    0    0  0.32048666081E+03 -0.65903478824E+02  0.33007113195E+03  0.47160251577E+03  0.80043815820E+02 0.  0.
        254    2    1    2    0    0 -0.32048666081E+03  0.65903478824E+02 -0.27992916332E+03  0.99440018446E+03  0.89633499435E+03 0.  0.
         23    2    4    4    0    0 -0.50945289461E+03  0.25710967796E+03  0.23165161786E+02  0.57926349525E+03  0.96757086968E+02 0.  0.
         23    2    4    4    0    0  0.18896623380E+03 -0.19120619914E+03 -0.30309432510E+03  0.41513668921E+03  0.90577329993E+02 0.  0.
          4    1    3    3  502    0  0.22436874835E+03 -0.13735031229E+02  0.19319814633E+03  0.29640430170E+03  0.00000000000E+00 0. -1.
         -3    1    3    3    0  502  0.96117912460E+02 -0.52168447594E+02  0.13687298562E+03  0.17519821407E+03  0.00000000000E+00 0.  1.
         11    1    5    5    0    0 -0.41198641050E+03  0.16345556622E+03  0.85925683137E+01  0.44331067751E+03  0.00000000000E+00 0.  1.
        -11    1    5    5    0    0 -0.97466484119E+02  0.93654111739E+02  0.14572593472E+02  0.13595281774E+03  0.00000000000E+00 0. -1.
          3    1    6    6  503    0  0.40748501303E+02 -0.10394465821E+03 -0.11623352425E+03  0.16116812491E+03  0.00000000000E+00 0. -1.
         -3    1    6    6    0  503  0.14821773250E+03 -0.87261540927E+02 -0.18686080086E+03  0.25396856429E+03  0.00000000000E+00 0.  1.
<mgrwt>
<rscale>  0 0.14651449E+04</rscale>
<asrwt>0</asrwt>
<pdfrwt beam="1">  1        2 0.11662651E+00 0.14651449E+04</pdfrwt>
<pdfrwt beam="2">  1       -1 0.10891236E+00 0.14651449E+04</pdfrwt>
<totfact> 0.31973287E+01</totfact>
</mgrwt>
</event>
<event>
12    6  0.1556619E-007  0.1226864E+04  0.7818608E-02  0.9089662E-01
          2   -1    0    0  501    0  0.00000000000E+00  0.00000000000E+00  0.20158085532E+04  0.20158085532E+04  0.00000000000E+00 0. -1.
         -1   -1    0    0    0  501 -0.00000000000E+00 -0.00000000000E+00 -0.18667401476E+03  0.18667401476E+03  0.00000000000E+00 0.  1.
         24    2    1    2    0    0  0.48799613647E+02  0.23891634052E+03  0.75897773781E+03  0.80130618588E+03  0.81129384197E+02 0.  0.
        254    2    1    2    0    0 -0.48799613647E+02 -0.23891634052E+03  0.10701568006E+04  0.14011763820E+04  0.87097488810E+03 0.  0.
         23    2    4    4    0    0  0.29504064238E+03 -0.21958909435E+03  0.13804488760E+03  0.40343875942E+03  0.91859080117E+02 0.  0.
         23    2    4    4    0    0 -0.34384025603E+03 -0.19327246165E+02  0.93211191299E+03  0.99773762263E+03  0.89711098229E+02 0.  0.
          2    1    3    3  502    0  0.62256999273E+01  0.16287211300E+02  0.15878791373E+03  0.15974239931E+03  0.00000000000E+00 0. -1.
         -1    1    3    3    0  502  0.42573913720E+02  0.22262912922E+03  0.60018982408E+03  0.64156378657E+03  0.00000000000E+00 0.  1.
         11    1    5    5    0    0  0.24531575957E+03 -0.13342453663E+03  0.94085985451E+02  0.29467626563E+03  0.00000000000E+00 0. -1.
        -11    1    5    5    0    0  0.49724882808E+02 -0.86164557723E+02  0.43958902148E+02  0.10876249379E+03  0.00000000000E+00 0.  1.
          4    1    6    6  503    0 -0.13923377292E+03 -0.47649507169E+02  0.44281678095E+03  0.46662963959E+03  0.00000000000E+00 0. -1.
         -4    1    6    6    0  503 -0.20460648311E+03  0.28322261004E+02  0.48929513204E+03  0.53110798303E+03  0.00000000000E+00 0.  1.
<mgrwt>
<rscale>  0 0.12268644E+04</rscale>
<asrwt>0</asrwt>
<pdfrwt beam="1">  1        2 0.31012438E+00 0.12268644E+04</pdfrwt>
<pdfrwt beam="2">  1       -1 0.28719081E-01 0.12268644E+04</pdfrwt>
<totfact> 0.81026000E+01</totfact>
</mgrwt>
</event>
<event>
12    6  0.1556619E-007  0.2113372E+04  0.7818608E-02  0.8555376E-01
         -1   -1    0    0    0  501 -0.00000000000E+00  0.00000000000E+00  0.48625673639E+03  0.48625673639E+03  0.00000000000E+00 0.  1.
          2   -1    0    0  501    0  0.00000000000E+00 -0.00000000000E+00 -0.22962882143E+04  0.22962882143E+04  0.00000000000E+00 0. -1.
         24    2    1    2    0    0 -0.47510266371E+03 -0.69445279368E+03 -0.48384361008E+03  0.97384844386E+03  0.79302767196E+02 0.  0.
        254    2    1    2    0    0  0.47510266371E+03  0.69445279368E+03 -0.13261878678E+04  0.18086965068E+04  0.89700700630E+03 0.  0.
         23    2    4    4    0    0  0.50301803493E+03  0.87989674019E+03 -0.10578702124E+04  0.14679106211E+04  0.91797540135E+02 0.  0.
         23    2    4    4    0    0 -0.27915371222E+02 -0.18544394651E+03 -0.26831765540E+03  0.34078588572E+03  0.94720274795E+02 0.  0.
          2    1    3    3  502    0 -0.12839660291E+03 -0.20449871275E+03 -0.17954302163E+03  0.30090049480E+03  0.00000000000E+00 0. -1.
         -1    1    3    3    0  502 -0.34670606080E+03 -0.48995408093E+03 -0.30430058844E+03  0.67294794906E+03  0.00000000000E+00 0.  1.
         11    1    5    5    0    0  0.30708850576E+03  0.62184369609E+03 -0.73221176981E+03  0.10085271482E+04  0.00000000000E+00 0. -1.
        -11    1    5    5    0    0  0.19592952918E+03  0.25805304410E+03 -0.32565844264E+03  0.45938347297E+03  0.00000000000E+00 0.  1.
          3    1    6    6  503    0  0.33755112296E+02 -0.58990160916E+02 -0.69345505583E+02  0.97098124779E+02  0.00000000000E+00 0. -1.
         -3    1    6    6    0  503 -0.61670483519E+02 -0.12645378560E+03 -0.19897214982E+03  0.24368776094E+03  0.00000000000E+00 0.  1.
<mgrwt>
<rscale>  0 0.21133723E+04</rscale>
<asrwt>0</asrwt>
<pdfrwt beam="1">  1        2 0.35327510E+00 0.21133723E+04</pdfrwt>
<pdfrwt beam="2">  1       -1 0.74808731E-01 0.21133723E+04</pdfrwt>
<totfact> 0.85800381E+00</totfact>
</mgrwt>
</event>
<event>
12    6  0.1556619E-007  0.1370521E+04  0.7818608E-02  0.8975438E-01
          2   -1    0    0  501    0  0.00000000000E+00  0.00000000000E+00  0.17931702224E+04  0.17931702224E+04  0.00000000000E+00 0. -1.
         -1   -1    0    0    0  501 -0.00000000000E+00 -0.00000000000E+00 -0.26187230712E+03  0.26187230712E+03  0.00000000000E+00 0.  1.
         24    2    1    2    0    0  0.30753247365E+03  0.13677361305E+03  0.16624585070E+03  0.38374106013E+03  0.79600720970E+02 0.  0.
        254    2    1    2    0    0 -0.30753247365E+03 -0.13677361305E+03  0.13650520646E+04  0.16713014694E+04  0.90365824237E+03 0.  0.
         23    2    4    4    0    0 -0.46482124983E+03 -0.32128471724E+03  0.12742106193E+04  0.13967761747E+04  0.89935066048E+02 0.  0.
         23    2    4    4    0    0  0.15728877617E+03  0.18451110419E+03  0.90841445316E+02  0.27452529470E+03  0.91257123358E+02 0.  0.
          4    1    3    3  502    0  0.59297579334E+02  0.63617128008E+02  0.37781345551E+02  0.94819681303E+02  0.00000000000E+00 0. -1.
         -3    1    3    3    0  502  0.24823489432E+03  0.73156485040E+02  0.12846450515E+03  0.28892137883E+03  0.00000000000E+00 0.  1.
         11    1    5    5    0    0 -0.14427139115E+03 -0.56445034654E+02  0.30327144974E+03  0.34054933339E+03  0.00000000000E+00 0. -1.
        -11    1    5    5    0    0 -0.32054985868E+03 -0.26483968259E+03  0.97093916956E+03  0.10562268413E+04  0.00000000000E+00 0.  1.
          1    1    6    6  503    0  0.70796707667E+02  0.61713150861E+02 -0.87215804987E+01  0.94322599477E+02  0.00000000000E+00 0. -1.
         -1    1    6    6    0  503  0.86492068506E+02  0.12279795333E+03  0.99563025815E+02  0.18020269523E+03  0.00000000000E+00 0.  1.
<mgrwt>
<rscale>  0 0.13705205E+04</rscale>
<asrwt>0</asrwt>
<pdfrwt beam="1">  1        2 0.27587233E+00 0.13705205E+04</pdfrwt>
<pdfrwt beam="2">  1       -1 0.40288049E-01 0.13705205E+04</pdfrwt>
<totfact> 0.58145554E+01</totfact>
</mgrwt>
</event>
<event>
12    6  0.1556619E-007  0.1695102E+04  0.7818608E-02  0.8764163E-01
          2   -1    0    0  501    0  0.00000000000E+00  0.00000000000E+00  0.21500737438E+04  0.21500737438E+04  0.00000000000E+00 0. -1.
         -1   -1    0    0    0  501 -0.00000000000E+00 -0.00000000000E+00 -0.33410155898E+03  0.33410155898E+03  0.00000000000E+00 0.  1.
         24    2    1    2    0    0 -0.30264747696E+03 -0.51953593973E+03  0.77985000237E+03  0.98803886364E+03  0.80880664503E+02 0.  0.
        254    2    1    2    0    0  0.30264747696E+03  0.51953593973E+03  0.10361221824E+04  0.14961364391E+04  0.89630462432E+03 0.  0.
         23    2    4    4    0    0 -0.73033990001E+02 -0.30584482401E+02  0.75996903226E+03  0.76939990889E+03  0.90299033991E+02 0.  0.
         23    2    4    4    0    0  0.37568146696E+03  0.55012042213E+03  0.27615315016E+03  0.72673653023E+03  0.90090946106E+02 0.  0.
          4    1    3    3  502    0 -0.25345420559E+03 -0.44754225223E+03  0.70774506870E+03  0.87489209857E+03  0.00000000000E+00 0. -1.
         -3    1    3    3    0  502 -0.49193271370E+02 -0.71993687500E+02  0.72104933669E+02  0.11314676508E+03  0.00000000000E+00 0.  1.
         11    1    5    5    0    0 -0.87088791005E+02 -0.40106996143E+02  0.71375776812E+03  0.72016885535E+03  0.00000000000E+00 0. -1.
        -11    1    5    5    0    0  0.14054801004E+02  0.95225137415E+01  0.46211264142E+02  0.49231053542E+02  0.00000000000E+00 0.  1.
          3    1    6    6  503    0  0.23945244697E+03  0.27938320313E+03  0.17287108580E+03  0.40654256955E+03  0.00000000000E+00 0. -1.
         -3    1    6    6    0  503  0.13622901999E+03  0.27073721900E+03  0.10328206436E+03  0.32019396068E+03  0.00000000000E+00 0.  1.
<mgrwt>
<rscale>  0 0.16951023E+04</rscale>
<asrwt>0</asrwt>
<pdfrwt beam="1">  1        2 0.33078057E+00 0.16951023E+04</pdfrwt>
<pdfrwt beam="2">  1       -1 0.51400241E-01 0.16951023E+04</pdfrwt>
<totfact> 0.22745814E+01</totfact>
</mgrwt>
</event>
<event>
12    6  0.1556619E-007  0.2421899E+04  0.7818608E-02  0.8431350E-01
          2   -1    0    0  501    0  0.00000000000E+00  0.00000000000E+00  0.19704099709E+04  0.19704099709E+04  0.00000000000E+00 0. -1.
         -1   -1    0    0    0  501 -0.00000000000E+00 -0.00000000000E+00 -0.74420976374E+03  0.74420976374E+03  0.00000000000E+00 0.  1.
         24    2    1    2    0    0 -0.20190335945E+03  0.30461287055E+03 -0.56208835655E+03  0.67525945181E+03  0.80486267335E+02 0.  0.
        254    2    1    2    0    0  0.20190335945E+03 -0.30461287055E+03  0.17882885637E+04  0.20393602828E+04  0.90964850829E+03 0.  0.
         23    2    4    4    0    0  0.16901253577E+03 -0.15033096810E+03  0.18325481405E+04  0.18486644748E+04  0.90349411454E+02 0.  0.
         23    2    4    4    0    0  0.32890823682E+02 -0.15428190245E+03 -0.44259576761E+02  0.19069580800E+03  0.97576991895E+02 0.  0.
          4    1    3    3  502    0 -0.75048682477E+02  0.83751507257E+02 -0.23656823672E+03  0.26193730229E+03  0.00000000000E+00 0. -1.
         -3    1    3    3    0  502 -0.12685467697E+03  0.22086136330E+03 -0.32552011983E+03  0.41332214952E+03  0.00000000000E+00 0.  1.
         11    1    5    5    0    0  0.30720868667E+02 -0.33220740488E+02  0.72306020007E+03  0.72447459741E+03  0.00000000000E+00 0. -1.
        -11    1    5    5    0    0  0.13829166710E+03 -0.11711022761E+03  0.11094879404E+04  0.11241898774E+04  0.00000000000E+00 0.  1.
          3    1    6    6  503    0 -0.24848810023E+02 -0.10338341115E+03 -0.40014593866E+02  0.11360792571E+03  0.00000000000E+00 0. -1.
         -3    1    6    6    0  503  0.57739633705E+02 -0.50898491302E+02 -0.42449828947E+01  0.77087882296E+02  0.00000000000E+00 0.  1.
<mgrwt>
<rscale>  0 0.24218987E+04</rscale>
<asrwt>0</asrwt>
<pdfrwt beam="1">  1        2 0.30313999E+00 0.24218987E+04</pdfrwt>
<pdfrwt beam="2">  1       -1 0.11449381E+00 0.24218987E+04</pdfrwt>
<totfact> 0.49171622E+00</totfact>
</mgrwt>
</event>
<event>
12    6  0.1670126E-007  0.1688696E+04  0.7818608E-02  0.8767838E-01
         -1   -1    0    0    0  501 -0.00000000000E+00  0.00000000000E+00  0.38739833527E+03  0.38739833527E+03  0.00000000000E+00 0.  1.
          2   -1    0    0  501    0  0.00000000000E+00 -0.00000000000E+00 -0.18402846885E+04  0.18402846885E+04  0.00000000000E+00 0. -1.
         24    2    1    2    0    0  0.42740971521E+03 -0.95612324290E+02 -0.10738675212E+04  0.11624927635E+04  0.79857315641E+02 0.  0.
        254    2    1    2    0    0 -0.42740971521E+03  0.95612324290E+02 -0.37901883199E+03  0.10651902602E+04  0.89395426857E+03 0.  0.
         23    2    4    4    0    0 -0.65000569284E+02 -0.23892443524E+03 -0.48500881026E+03  0.55187902494E+03  0.89593260785E+02 0.  0.
         23    2    4    4    0    0 -0.36240914592E+03  0.33453675953E+03  0.10598997827E+03  0.51331123529E+03  0.94864726087E+02 0.  0.
          2    1    3    3  502    0  0.34912290398E+03 -0.83763092481E+02 -0.94892151655E+03  0.10145713885E+04  0.00000000000E+00 0. -1.
         -1    1    3    3    0  502  0.78286811233E+02 -0.11849231809E+02 -0.12494600466E+03  0.14792137502E+03  0.00000000000E+00 0.  1.
         11    1    5    5    0    0 -0.50502705786E+02 -0.16476565216E+03 -0.41294722987E+03  0.44746358297E+03  0.00000000000E+00 0. -1.
        -11    1    5    5    0    0 -0.14497863497E+02 -0.74158783088E+02 -0.72061580388E+02  0.10441544198E+03  0.00000000000E+00 0.  1.
          3    1    6    6  503    0 -0.25231062876E+03  0.25192087919E+03  0.11692749615E+03  0.37522902622E+03  0.00000000000E+00 0. -1.
         -3    1    6    6    0  503 -0.11009851716E+03  0.82615880342E+02 -0.10937517882E+02  0.13808220908E+03  0.00000000000E+00 0.  1.
<mgrwt>
<rscale>  0 0.16886956E+04</rscale>
<asrwt>0</asrwt>
<pdfrwt beam="1">  1        2 0.28312072E+00 0.16886956E+04</pdfrwt>
<pdfrwt beam="2">  1       -1 0.59599743E-01 0.16886956E+04</pdfrwt>
<totfact> 0.25375334E+01</totfact>
</mgrwt>
</event>
<event>
12    6  0.1556619E-007  0.2636897E+04  0.7818608E-02  0.8355775E-01
          2   -1    0    0  501    0  0.00000000000E+00  0.00000000000E+00  0.28353542544E+04  0.28353542544E+04  0.00000000000E+00 0. -1.
         -1   -1    0    0    0  501 -0.00000000000E+00 -0.00000000000E+00 -0.61308278762E+03  0.61308278762E+03  0.00000000000E+00 0.  1.
         24    2    1    2    0    0  0.60562680523E+03 -0.28766088336E+03 -0.26168713388E+03  0.72495685999E+03  0.86888904815E+02 0.  0.
        254    2    1    2    0    0 -0.60562680523E+03  0.28766088336E+03  0.24839586006E+04  0.27234801820E+04  0.89317487711E+03 0.  0.
         23    2    4    4    0    0 -0.70331545389E+03  0.49265455681E+03  0.17794693245E+04  0.19778927417E+04  0.90484699490E+02 0.  0.
         23    2    4    4    0    0  0.97688648667E+02 -0.20499367344E+03  0.70448927610E+03  0.74558744027E+03  0.89610338216E+02 0.  0.
          4    1    3    3  502    0  0.12416088445E+02  0.29465957447E+01  0.33622924685E+01  0.13196465034E+02  0.00000000000E+00 0. -1.
         -3    1    3    3    0  502  0.59321071678E+03 -0.29060747911E+03 -0.26504942634E+03  0.71176039495E+03  0.00000000000E+00 0.  1.
         11    1    5    5    0    0 -0.27509088049E+03  0.14624127211E+03  0.59542399799E+03  0.67200538657E+03  0.00000000000E+00 0. -1.
        -11    1    5    5    0    0 -0.42822457340E+03  0.34641328469E+03  0.11840453265E+04  0.13058873552E+04  0.00000000000E+00 0.  1.
          4    1    6    6  503    0  0.53073927837E+00 -0.80104758692E+01  0.40342315210E+00  0.80381688258E+01  0.00000000000E+00 0. -1.
         -4    1    6    6    0  503  0.97157909388E+02 -0.19698319757E+03  0.70408585295E+03  0.73754927144E+03  0.00000000000E+00 0.  1.
<mgrwt>
<rscale>  0 0.26368973E+04</rscale>
<asrwt>0</asrwt>
<pdfrwt beam="1">  1        2 0.43620834E+00 0.26368973E+04</pdfrwt>
<pdfrwt beam="2">  1       -1 0.94320430E-01 0.26368973E+04</pdfrwt>
<totfact> 0.24006603E+00</totfact>
</mgrwt>
</event>
<event>
12    6  0.1556619E-007  0.1930968E+04  0.7818608E-02  0.8639593E-01
          2   -1    0    0  501    0  0.00000000000E+00  0.00000000000E+00  0.24009284417E+04  0.24009284417E+04  0.00000000000E+00 0. -1.
         -1   -1    0    0    0  501 -0.00000000000E+00 -0.00000000000E+00 -0.38824942054E+03  0.38824942054E+03  0.00000000000E+00 0.  1.
         24    2    1    2    0    0  0.18540435737E+03  0.23806222830E+03 -0.21057681790E+03  0.37684979695E+03  0.81392708198E+02 0.  0.
        254    2    1    2    0    0 -0.18540435737E+03 -0.23806222830E+03  0.22232558391E+04  0.24123280653E+04  0.88623460124E+03 0.  0.
         23    2    4    4    0    0  0.18725388357E+03  0.16495451501E+03  0.13582249876E+04  0.13838647376E+04  0.89624137105E+02 0.  0.
         23    2    4    4    0    0 -0.37265824094E+03 -0.40301674331E+03  0.86503085141E+03  0.10284633277E+04  0.90342584651E+02 0.  0.
          2    1    3    3  502    0  0.34017791122E+02  0.95795077282E+02 -0.94912961051E+02  0.13907687486E+03  0.00000000000E+00 0. -1.
         -1    1    3    3    0  502  0.15138656624E+03  0.14226715102E+03 -0.11566385685E+03  0.23777292209E+03  0.00000000000E+00 0.  1.
         11    1    5    5    0    0  0.16938385758E+03  0.10713049504E+03  0.11360791309E+04  0.11536219596E+04  0.00000000000E+00 0.  1.
        -11    1    5    5    0    0  0.17870025994E+02  0.57824019974E+02  0.22214585680E+03  0.23024277797E+03  0.00000000000E+00 0. -1.
          3    1    6    6  503    0 -0.11122943378E+03 -0.70895858153E+02  0.17271133535E+03  0.21731869455E+03  0.00000000000E+00 0. -1.
         -3    1    6    6    0  503 -0.26142880716E+03 -0.33212088516E+03  0.69231951606E+03  0.81114463315E+03  0.00000000000E+00 0.  1.
<mgrwt>
<rscale>  0 0.19309677E+04</rscale>
<asrwt>0</asrwt>
<pdfrwt beam="1">  1        2 0.36937360E+00 0.19309677E+04</pdfrwt>
<pdfrwt beam="2">  1       -1 0.59730681E-01 0.19309677E+04</pdfrwt>
<totfact> 0.12006907E+01</totfact>
</mgrwt>
</event>
<event>
12    6  0.1556619E-007  0.1545039E+04  0.7818608E-02  0.8855043E-01
          2   -1    0    0  501    0  0.00000000000E+00  0.00000000000E+00  0.29013324352E+04  0.29013324352E+04  0.00000000000E+00 0. -1.
         -1   -1    0    0    0  501 -0.00000000000E+00 -0.00000000000E+00 -0.20569378060E+03  0.20569378060E+03  0.00000000000E+00 0.  1.
         24    2    1    2    0    0 -0.25165093710E+03 -0.43892321224E+03  0.91554457621E+03  0.10493471585E+04  0.83221437758E+02 0.  0.
        254    2    1    2    0    0  0.25165093710E+03  0.43892321224E+03  0.17800940784E+04  0.20576790572E+04  0.89962569683E+03 0.  0.
         23    2    4    4    0    0  0.81348418069E+01 -0.22944321273E+03  0.83736745606E+03  0.87305085812E+03  0.91231468712E+02 0.  0.
         23    2    4    4    0    0  0.24351609529E+03  0.66836642497E+03  0.94272662231E+03  0.11846281991E+04  0.92718493542E+02 0.  0.
          4    1    3    3  502    0 -0.25611732800E+03 -0.42444194546E+03  0.86969037562E+03  0.10010536450E+04  0.00000000000E+00 0. -1.
         -3    1    3    3    0  502  0.44663909019E+01 -0.14481266784E+02  0.45854200581E+02  0.48293513501E+02  0.00000000000E+00 0.  1.
         11    1    5    5    0    0  0.66477304257E+01 -0.37648946183E+02  0.51637658435E+02  0.64250161378E+02  0.00000000000E+00 0. -1.
        -11    1    5    5    0    0  0.14871113812E+01 -0.19179426655E+03  0.78572979762E+03  0.80880069674E+03  0.00000000000E+00 0.  1.
          3    1    6    6  503    0  0.11462682631E+02  0.88346485831E+02  0.16035828074E+03  0.18344283265E+03  0.00000000000E+00 0. -1.
         -3    1    6    6    0  503  0.23205341266E+03  0.58001993914E+03  0.78236834157E+03  0.10011853665E+04  0.00000000000E+00 0.  1.
<mgrwt>
<rscale>  0 0.15450386E+04</rscale>
<asrwt>0</asrwt>
<pdfrwt beam="1">  1        2 0.44635881E+00 0.15450386E+04</pdfrwt>
<pdfrwt beam="2">  1       -1 0.31645199E-01 0.15450386E+04</pdfrwt>
<totfact> 0.20536097E+01</totfact>
</mgrwt>
</event>
<event>
12    6  0.1556619E-007  0.2198327E+04  0.7818608E-02  0.8519125E-01
          2   -1    0    0  501    0  0.00000000000E+00  0.00000000000E+00  0.28017597012E+04  0.28017597012E+04  0.00000000000E+00 0. -1.
         -1   -1    0    0    0  501 -0.00000000000E+00 -0.00000000000E+00 -0.43121491800E+03  0.43121491800E+03  0.00000000000E+00 0.  1.
         24    2    1    2    0    0  0.35192466309E+03  0.82066834753E+03  0.74090626063E+03  0.11633200193E+04  0.83808562324E+02 0.  0.
        254    2    1    2    0    0 -0.35192466309E+03 -0.82066834753E+03  0.16296385225E+04  0.20696545999E+04  0.91126337771E+03 0.  0.
         23    2    4    4    0    0  0.25083874566E+03 -0.52053937420E+02  0.20807681953E+03  0.34250460095E+03  0.91562820636E+02 0.  0.
         23    2    4    4    0    0 -0.60276340875E+03 -0.76861441011E+03  0.14215617030E+04  0.17271499989E+04  0.90097752389E+02 0.  0.
          2    1    3    3  502    0  0.26342195343E+03  0.59994122824E+03  0.58967567135E+03  0.88149758949E+03  0.00000000000E+00 0. -1.
         -1    1    3    3    0  502  0.88502709658E+02  0.22072711929E+03  0.15123058927E+03  0.28182242980E+03  0.00000000000E+00 0.  1.
         11    1    5    5    0    0  0.58204136477E+02 -0.18208734853E+02  0.60044231579E+01  0.61280768806E+02  0.00000000000E+00 0.  1.
        -11    1    5    5    0    0  0.19263460919E+03 -0.33845202567E+02  0.20207239637E+03  0.28122383215E+03  0.00000000000E+00 0. -1.
          1    1    6    6  503    0 -0.54735691562E+03 -0.71834859377E+03  0.13452591532E+04  0.16202920985E+04  0.00000000000E+00 0. -1.
         -1    1    6    6    0  503 -0.55406493125E+02 -0.50265816339E+02  0.76302549800E+02  0.10685790040E+03  0.00000000000E+00 0.  1.
<mgrwt>
<rscale>  0 0.21983272E+04</rscale>
<asrwt>0</asrwt>
<pdfrwt beam="1">  1        2 0.43103994E+00 0.21983272E+04</pdfrwt>
<pdfrwt beam="2">  1       -1 0.66340758E-01 0.21983272E+04</pdfrwt>
<totfact> 0.55286080E+00</totfact>
</mgrwt>
</event>
<event>
12    6  0.1556619E-007  0.1708168E+04  0.7818608E-02  0.8756719E-01
         -1   -1    0    0    0  501 -0.00000000000E+00  0.00000000000E+00  0.51397965089E+03  0.51397965089E+03  0.00000000000E+00 0.  1.
          2   -1    0    0  501    0  0.00000000000E+00 -0.00000000000E+00 -0.14192387870E+04  0.14192387870E+04  0.00000000000E+00 0. -1.
         24    2    1    2    0    0 -0.43010900893E+03  0.13595337276E+03  0.11404028290E+03  0.47176422161E+03  0.77969324342E+02 0.  0.
        254    2    1    2    0    0  0.43010900893E+03 -0.13595337276E+03 -0.10192994190E+04  0.14614542163E+04  0.94519841386E+03 0.  0.
         23    2    4    4    0    0  0.58965280911E+03  0.47345491212E+02 -0.24788774471E+03  0.64805526315E+03  0.92710621236E+02 0.  0.
         23    2    4    4    0    0 -0.15954380018E+03 -0.18329886397E+03 -0.77141167430E+03  0.81339895314E+03  0.86540094760E+02 0.  0.
          4    1    3    3  502    0 -0.20450142002E+03  0.39845070115E+02  0.84246919313E+02  0.22473540846E+03  0.00000000000E+00 0. -1.
         -3    1    3    3    0  502 -0.22560758891E+03  0.96108302644E+02  0.29793363588E+02  0.24702881315E+03  0.00000000000E+00 0.  1.
         11    1    5    5    0    0  0.46823183245E+03  0.39554206313E+02 -0.23591749902E+03  0.52579715718E+03  0.00000000000E+00 0.  1.
        -11    1    5    5    0    0  0.12142097666E+03  0.77912848999E+01 -0.11970245693E+02  0.12225810597E+03  0.00000000000E+00 0. -1.
          1    1    6    6  503    0 -0.19944268714E+02 -0.54803600006E+02 -0.29279271328E+03  0.29854443786E+03  0.00000000000E+00 0. -1.
         -1    1    6    6    0  503 -0.13959953146E+03 -0.12849526397E+03 -0.47861896103E+03  0.51485451528E+03  0.00000000000E+00 0.  1.
<mgrwt>
<rscale>  0 0.17081684E+04</rscale>
<asrwt>0</asrwt>
<pdfrwt beam="1">  1        2 0.21834443E+00 0.17081684E+04</pdfrwt>
<pdfrwt beam="2">  1       -1 0.79073793E-01 0.17081684E+04</pdfrwt>
<totfact> 0.24450708E+01</totfact>
</mgrwt>
</event>
<event>
12    6  0.1556619E-007  0.2268446E+04  0.7818608E-02  0.8490467E-01
          2   -1    0    0  501    0  0.00000000000E+00  0.00000000000E+00  0.98396733463E+03  0.98396733463E+03  0.00000000000E+00 0. -1.
         -1   -1    0    0    0  501 -0.00000000000E+00 -0.00000000000E+00 -0.13074235939E+04  0.13074235939E+04  0.00000000000E+00 0.  1.
         24    2    1    2    0    0  0.82908468165E+02 -0.75256902954E+03 -0.72262122543E+03  0.10496143519E+04  0.79214227896E+02 0.  0.
        254    2    1    2    0    0 -0.82908468165E+02  0.75256902954E+03  0.39916496616E+03  0.12417765767E+04  0.89969018991E+03 0.  0.
         23    2    4    4    0    0  0.17705107151E+03  0.31354673387E+03  0.58506302780E+03  0.69258220548E+03  0.87822141859E+02 0.  0.
         23    2    4    4    0    0 -0.25995953968E+03  0.43902229567E+03 -0.18589806164E+03  0.54919437118E+03  0.82078192310E+02 0.  0.
          4    1    3    3  502    0  0.29168985982E+02 -0.17075954656E+03 -0.12346432171E+03  0.21272773966E+03  0.00000000000E+00 0. -1.
         -3    1    3    3    0  502  0.53739482183E+02 -0.58180948298E+03 -0.59915690372E+03  0.83688661222E+03  0.00000000000E+00 0.  1.
         11    1    5    5    0    0  0.16452441666E+02  0.40409402536E+02  0.28399895069E+02  0.52059165283E+02  0.00000000000E+00 0. -1.
        -11    1    5    5    0    0  0.16059862985E+03  0.27313733134E+03  0.55666313273E+03  0.64052304020E+03  0.00000000000E+00 0.  1.
          1    1    6    6  503    0 -0.10363920687E+03  0.11252700141E+03 -0.34514018474E+02  0.15682674745E+03  0.00000000000E+00 0. -1.
         -1    1    6    6    0  503 -0.15632033281E+03  0.32649529426E+03 -0.15138404317E+03  0.39236762373E+03  0.00000000000E+00 0.  1.
<mgrwt>
<rscale>  0 0.22684463E+04</rscale>
<asrwt>0</asrwt>
<pdfrwt beam="1">  1        2 0.15137959E+00 0.22684463E+04</pdfrwt>
<pdfrwt beam="2">  1       -1 0.20114209E+00 0.22684463E+04</pdfrwt>
<totfact> 0.39519818E+00</totfact>
</mgrwt>
</event>
<event>
12    6  0.1556619E-007  0.1357143E+04  0.7818608E-02  0.8985439E-01
         -1   -1    0    0    0  501 -0.00000000000E+00  0.00000000000E+00  0.28976988552E+03  0.28976988552E+03  0.00000000000E+00 0.  1.
          2   -1    0    0  501    0  0.00000000000E+00 -0.00000000000E+00 -0.15890515235E+04  0.15890515235E+04  0.00000000000E+00 0. -1.
         24    2    1    2    0    0 -0.21286617525E+03 -0.35098478047E+03 -0.27605052992E+03  0.50204723212E+03  0.85704162745E+02 0.  0.
        254    2    1    2    0    0  0.21286617525E+03  0.35098478047E+03 -0.10232311081E+04  0.13767741769E+04  0.82462288896E+03 0.  0.
         23    2    4    4    0    0  0.19813291091E+03  0.55736710329E+03 -0.41433063502E+03  0.72697500554E+03  0.83114651789E+02 0.  0.
         23    2    4    4    0    0  0.14733264346E+02 -0.20638232281E+03 -0.60890047303E+03  0.64979917136E+03  0.93104483273E+02 0.  0.
          2    1    3    3  502    0 -0.29914226597E+02 -0.50208693013E+02 -0.67997129761E+01  0.58838846892E+02  0.00000000000E+00 0. -1.
         -1    1    3    3    0  502 -0.18295194866E+03 -0.30077608746E+03 -0.26925081695E+03  0.44320838522E+03  0.00000000000E+00 0.  1.
         11    1    5    5    0    0  0.91479033150E+01  0.40939984752E+02 -0.67724465909E+01  0.42492734901E+02  0.00000000000E+00 0. -1.
        -11    1    5    5    0    0  0.18898500759E+03  0.51642711853E+03 -0.40755818843E+03  0.68448227063E+03  0.00000000000E+00 0.  1.
          3    1    6    6  503    0  0.31172384213E+02 -0.18596472031E+02 -0.13470848248E+03  0.13951315909E+03  0.00000000000E+00 0. -1.
         -3    1    6    6    0  503 -0.16439119867E+02 -0.18778585078E+03 -0.47419199055E+03  0.51028601227E+03  0.00000000000E+00 0.  1.
<mgrwt>
<rscale>  0 0.13571430E+04</rscale>
<asrwt>0</asrwt>
<pdfrwt beam="1">  1        2 0.24446946E+00 0.13571430E+04</pdfrwt>
<pdfrwt beam="2">  1       -1 0.44579983E-01 0.13571430E+04</pdfrwt>
<totfact> 0.62694770E+01</totfact>
</mgrwt>
</event>
<event>
12    6  0.1556619E-007  0.1730922E+04  0.7818608E-02  0.8743922E-01
          2   -1    0    0  501    0  0.00000000000E+00  0.00000000000E+00  0.11892139803E+04  0.11892139803E+04  0.00000000000E+00 0. -1.
         -1   -1    0    0    0  501 -0.00000000000E+00 -0.00000000000E+00 -0.62984717884E+03  0.62984717884E+03  0.00000000000E+00 0.  1.
         24    2    1    2    0    0 -0.11680142913E+03  0.40478723099E+03 -0.28492099945E+03  0.51464172341E+03  0.78618390506E+02 0.  0.
        254    2    1    2    0    0  0.11680142913E+03 -0.40478723099E+03  0.84428780095E+03  0.13044194358E+04  0.90066247696E+03 0.  0.
         23    2    4    4    0    0  0.56250566164E+02  0.51910995593E+02  0.82581141545E+03  0.83438185611E+03  0.91486120556E+02 0.  0.
         23    2    4    4    0    0  0.60550862968E+02 -0.45669822658E+03  0.18476385493E+02  0.47003757967E+03  0.91401708481E+02 0.  0.
          4    1    3    3  502    0 -0.19412692758E+02  0.20513209523E+03 -0.12622389878E+03  0.24163712827E+03  0.00000000000E+00 0. -1.
         -3    1    3    3    0  502 -0.97388736374E+02  0.19965513576E+03 -0.15869710066E+03  0.27300459514E+03  0.00000000000E+00 0.  1.
         11    1    5    5    0    0  0.22361176317E+02  0.27401759837E+02  0.80850460446E+02  0.88247807920E+02  0.00000000000E+00 0.  1.
        -11    1    5    5    0    0  0.33889389848E+02  0.24509235756E+02  0.74496095501E+03  0.74613404819E+03  0.00000000000E+00 0. -1.
          3    1    6    6  503    0  0.55755704530E+02 -0.45821807447E+03  0.11891141754E+02  0.46175090862E+03  0.00000000000E+00 0. -1.
         -3    1    6    6    0  503  0.47951584386E+01  0.15198478859E+01  0.65852437398E+01  0.82866710542E+01  0.00000000000E+00 0.  1.
<mgrwt>
<rscale>  0 0.17309224E+04</rscale>
<asrwt>0</asrwt>
<pdfrwt beam="1">  1        2 0.18295600E+00 0.17309224E+04</pdfrwt>
<pdfrwt beam="2">  1       -1 0.96899566E-01 0.17309224E+04</pdfrwt>
<totfact> 0.21311070E+01</totfact>
</mgrwt>
</event>
<event>
12    6  0.1556619E-007  0.2549193E+04  0.7818608E-02  0.8385667E-01
          2   -1    0    0  501    0  0.00000000000E+00  0.00000000000E+00  0.10581186184E+04  0.10581186184E+04  0.00000000000E+00 0. -1.
         -1   -1    0    0    0  501 -0.00000000000E+00 -0.00000000000E+00 -0.15353635900E+04  0.15353635900E+04  0.00000000000E+00 0.  1.
         24    2    1    2    0    0 -0.53609288846E+02  0.85212565931E+03 -0.93898475464E+03  0.12716571734E+04  0.80171703972E+02 0.  0.
        254    2    1    2    0    0  0.53609288846E+02 -0.85212565931E+03  0.46173978306E+03  0.13218250350E+04  0.89723224463E+03 0.  0.
         23    2    4    4    0    0 -0.42310505024E+00 -0.75465607773E+03  0.70621265531E+03  0.10377754096E+04  0.93463958811E+02 0.  0.
         23    2    4    4    0    0  0.54032393896E+02 -0.97469581580E+02 -0.24447287225E+03  0.28404962540E+03  0.92181264369E+02 0.  0.
          2    1    3    3  502    0  0.16455566966E+02  0.77655473374E+02 -0.10072237867E+03  0.12824256624E+03  0.00000000000E+00 0. -1.
         -3    1    3    3    0  502 -0.70064855812E+02  0.77447018593E+03 -0.83826237597E+03  0.11434146072E+04  0.00000000000E+00 0.  1.
         11    1    5    5    0    0  0.31219562976E+02 -0.32903048517E+03  0.26204639934E+03  0.42178671943E+03  0.00000000000E+00 0.  1.
        -11    1    5    5    0    0 -0.31642668026E+02 -0.42562559256E+03  0.44416625597E+03  0.61598869017E+03  0.00000000000E+00 0. -1.
          4    1    6    6  503    0  0.18293396535E+02  0.15834554477E+02 -0.59234173845E+02  0.63984910904E+02  0.00000000000E+00 0.  1.
         -4    1    6    6    0  503  0.35738997362E+02 -0.11330413606E+03 -0.18523869840E+03  0.22006471450E+03  0.00000000000E+00 0. -1.
<mgrwt>
<rscale>  0 0.25491934E+04</rscale>
<asrwt>0</asrwt>
<pdfrwt beam="1">  1        2 0.16278748E+00 0.25491934E+04</pdfrwt>
<pdfrwt beam="2">  1       -1 0.23620978E+00 0.25491934E+04</pdfrwt>
<totfact> 0.20114969E+00</totfact>
</mgrwt>
</event>
<event>
12    6  0.1556619E-007  0.2668456E+04  0.7818608E-02  0.8345313E-01
          2   -1    0    0  501    0  0.00000000000E+00  0.00000000000E+00  0.11937957099E+04  0.11937957099E+04  0.00000000000E+00 0. -1.
         -1   -1    0    0    0  501 -0.00000000000E+00 -0.00000000000E+00 -0.14911805260E+04  0.14911805260E+04  0.00000000000E+00 0.  1.
         24    2    1    2    0    0 -0.45187649966E+03 -0.49326734705E+03 -0.11059930243E+04  0.12950345025E+04  0.79929632813E+02 0.  0.
        254    2    1    2    0    0  0.45187649966E+03  0.49326734705E+03  0.80860820820E+03  0.13899417334E+04  0.91136476844E+03 0.  0.
         23    2    4    4    0    0  0.12420960164E+02 -0.21145093187E+03  0.39375116837E+03  0.45674925388E+03  0.93349458921E+02 0.  0.
         23    2    4    4    0    0  0.43945553950E+03  0.70471827893E+03  0.41485703983E+03  0.93319247948E+03  0.94830461454E+02 0.  0.
          4    1    3    3  502    0 -0.83066680551E+02 -0.10089857524E+03 -0.16084066443E+03  0.20724457831E+03  0.00000000000E+00 0. -1.
         -3    1    3    3    0  502 -0.36880981911E+03 -0.39236877181E+03 -0.94515235988E+03  0.10877899242E+04  0.00000000000E+00 0.  1.
         11    1    5    5    0    0  0.25821974051E+02 -0.31328466815E+02  0.13658578000E+03  0.14249183301E+03  0.00000000000E+00 0. -1.
        -11    1    5    5    0    0 -0.13401013887E+02 -0.18012246506E+03  0.25716538837E+03  0.31425742086E+03  0.00000000000E+00 0.  1.
          2    1    6    6  503    0  0.30250877923E+02  0.76210335374E+02  0.15271664610E+02  0.83404763490E+02  0.00000000000E+00 0. -1.
         -2    1    6    6    0  503  0.40920466157E+03  0.62850794355E+03  0.39958537522E+03  0.84978771599E+03  0.00000000000E+00 0.  1.
<mgrwt>
<rscale>  0 0.26684564E+04</rscale>
<asrwt>0</asrwt>
<pdfrwt beam="1">  1        2 0.18366088E+00 0.26684564E+04</pdfrwt>
<pdfrwt beam="2">  1       -1 0.22941239E+00 0.26684564E+04</pdfrwt>
<totfact> 0.18236672E+00</totfact>
</mgrwt>
</event>
<event>
12    6  0.1556619E-007  0.1665752E+04  0.7818608E-02  0.8781142E-01
         -1   -1    0    0    0  501 -0.00000000000E+00  0.00000000000E+00  0.58305077100E+03  0.58305077100E+03  0.00000000000E+00 0.  1.
          2   -1    0    0  501    0  0.00000000000E+00 -0.00000000000E+00 -0.11897460445E+04  0.11897460445E+04  0.00000000000E+00 0. -1.
         24    2    1    2    0    0  0.26680146127E+03  0.44356726437E+03  0.82979088189E+02  0.53028505987E+03  0.79886030620E+02 0.  0.
        254    2    1    2    0    0 -0.26680146127E+03 -0.44356726437E+03 -0.68967436165E+03  0.12425117556E+04  0.89456682248E+03 0.  0.
         23    2    4    4    0    0  0.16672315689E+03 -0.47742160320E+03 -0.13551921277E+03  0.53149788601E+03  0.91632677314E+02 0.  0.
         23    2    4    4    0    0 -0.43352461816E+03  0.33854338833E+02 -0.55415514888E+03  0.71101386957E+03  0.96763024372E+02 0.  0.
          4    1    3    3  502    0  0.16092659089E+03  0.29803339677E+03  0.18848833642E+02  0.33922934981E+03  0.00000000000E+00 0. -1.
         -3    1    3    3    0  502  0.10587487039E+03  0.14553386760E+03  0.64130254546E+02  0.19105571006E+03  0.00000000000E+00 0.  1.
         11    1    5    5    0    0  0.59338589083E+02 -0.25949177129E+03 -0.34632724447E+02  0.26843336813E+03  0.00000000000E+00 0. -1.
        -11    1    5    5    0    0  0.10738456781E+03 -0.21792983191E+03 -0.10088648832E+03  0.26306451788E+03  0.00000000000E+00 0.  1.
          3    1    6    6  503    0 -0.41782334438E+03  0.13528687974E+02 -0.50522740422E+03  0.65575460538E+03  0.00000000000E+00 0. -1.
         -3    1    6    6    0  503 -0.15701273780E+02  0.20325650859E+02 -0.48927744660E+02  0.55259264189E+02  0.00000000000E+00 0.  1.
<mgrwt>
<rscale>  0 0.16657519E+04</rscale>
<asrwt>0</asrwt>
<pdfrwt beam="1">  1        2 0.18303785E+00 0.16657519E+04</pdfrwt>
<pdfrwt beam="2">  1       -1 0.89700119E-01 0.16657519E+04</pdfrwt>
<totfact> 0.25436739E+01</totfact>
</mgrwt>
</event>
<event>
12    6  0.1556619E-007  0.1936852E+04  0.7818608E-02  0.8636727E-01
          2   -1    0    0  501    0  0.00000000000E+00  0.00000000000E+00  0.15102018711E+04  0.15102018711E+04  0.00000000000E+00 0. -1.
         -1   -1    0    0    0  501 -0.00000000000E+00 -0.00000000000E+00 -0.62100891950E+03  0.62100891950E+03  0.00000000000E+00 0.  1.
         24    2    1    2    0    0 -0.56177665123E+03  0.29075301286E+03 -0.11088596548E+03  0.64715260126E+03  0.79877854401E+02 0.  0.
        254    2    1    2    0    0  0.56177665123E+03 -0.29075301286E+03  0.10000789171E+04  0.14840581893E+04  0.89562299468E+03 0.  0.
         23    2    4    4    0    0 -0.17076461507E+02  0.15649538615E+03 -0.65191979894E+02  0.18856939298E+03  0.80783725475E+02 0.  0.
         23    2    4    4    0    0  0.57885311274E+03 -0.44724839901E+03  0.10652708970E+04  0.12954887964E+04  0.91581007929E+02 0.  0.
          4    1    3    3  502    0 -0.14173714898E+02  0.45507740924E+01 -0.16293380101E+02  0.22069843089E+02  0.00000000000E+00 0. -1.
         -1    1    3    3    0  502 -0.54760293633E+03  0.28620223877E+03 -0.94592585379E+02  0.62508275817E+03  0.00000000000E+00 0.  1.
         11    1    5    5    0    0 -0.12843973448E+02  0.15091247633E+02 -0.40327399433E+02  0.44933423574E+02  0.00000000000E+00 0.  1.
        -11    1    5    5    0    0 -0.42324880581E+01  0.14140413852E+03 -0.24864580461E+02  0.14363596940E+03  0.00000000000E+00 0. -1.
          4    1    6    6  503    0  0.56248732676E+03 -0.42903982981E+03  0.10517088058E+04  0.12675009194E+04  0.00000000000E+00 0. -1.
         -4    1    6    6    0  503  0.16365785972E+02 -0.18208569199E+02  0.13562091162E+02  0.27987877009E+02  0.00000000000E+00 0.  1.
<mgrwt>
<rscale>  0 0.19368519E+04</rscale>
<asrwt>0</asrwt>
<pdfrwt beam="1">  1        2 0.23233875E+00 0.19368519E+04</pdfrwt>
<pdfrwt beam="2">  1       -1 0.95539834E-01 0.19368519E+04</pdfrwt>
<totfact> 0.14089943E+01</totfact>
</mgrwt>
</event>
<event>
12    6  0.1556619E-007  0.3395757E+04  0.7818608E-02  0.8138949E-01
         -1   -1    0    0    0  501 -0.00000000000E+00  0.00000000000E+00  0.10094855182E+04  0.10094855182E+04  0.00000000000E+00 0.  1.
          2   -1    0    0  501    0  0.00000000000E+00 -0.00000000000E+00 -0.28557027459E+04  0.28557027459E+04  0.00000000000E+00 0. -1.
         24    2    1    2    0    0 -0.40807144748E+03 -0.12031316038E+04  0.21641671486E+03  0.12912782457E+04  0.80717725006E+02 0.  0.
        254    2    1    2    0    0  0.40807144748E+03  0.12031316038E+04 -0.20626339426E+04  0.25739100184E+04  0.86977355643E+03 0.  0.
         23    2    4    4    0    0 -0.96374885465E+02  0.40555593692E+02  0.14661722487E+02  0.13881359038E+03  0.90118655340E+02 0.  0.
         23    2    4    4    0    0  0.50444633295E+03  0.11625760101E+04 -0.20772956651E+04  0.24350964280E+04  0.92131707795E+02 0.  0.
          4    1    3    3  502    0 -0.20833712134E+03 -0.66478518566E+03  0.81327284436E+02  0.70139705331E+03  0.00000000000E+00 0. -1.
         -3    1    3    3    0  502 -0.19973432614E+03 -0.53834641811E+03  0.13508943042E+03  0.58988119240E+03  0.00000000000E+00 0.  1.
         11    1    5    5    0    0 -0.62435101519E+02 -0.49187242545E+01  0.42421887576E+02  0.75643587272E+02  0.00000000000E+00 0. -1.
        -11    1    5    5    0    0 -0.33939783946E+02  0.45474317947E+02 -0.27760165089E+02  0.63170003109E+02  0.00000000000E+00 0.  1.
          3    1    6    6  503    0  0.29831649126E+03  0.79611215359E+03 -0.13958363349E+04  0.16343642079E+04  0.00000000000E+00 0. -1.
         -3    1    6    6    0  503  0.20612984169E+03  0.36646385648E+03 -0.68145933013E+03  0.80073222013E+03  0.00000000000E+00 0.  1.
<mgrwt>
<rscale>  0 0.33957565E+04</rscale>
<asrwt>0</asrwt>
<pdfrwt beam="1">  1        2 0.43933888E+00 0.33957565E+04</pdfrwt>
<pdfrwt beam="2">  1       -1 0.15530547E+00 0.33957565E+04</pdfrwt>
<totfact> 0.63869847E-01</totfact>
</mgrwt>
</event>
<event>
12    6  0.1556619E-007  0.1324234E+04  0.7818608E-02  0.9010565E-01
          2   -1    0    0  501    0  0.00000000000E+00  0.00000000000E+00  0.94040762839E+03  0.94040762839E+03  0.00000000000E+00 0. -1.
         -1   -1    0    0    0  501 -0.00000000000E+00 -0.00000000000E+00 -0.46617978086E+03  0.46617978086E+03  0.00000000000E+00 0.  1.
         24    2    1    2    0    0 -0.30027483243E+03  0.11846096370E+03 -0.47021164247E+01  0.33224991867E+03  0.78548861524E+02 0.  0.
        254    2    1    2    0    0  0.30027483243E+03 -0.11846096370E+03  0.47892996395E+03  0.10743374906E+04  0.90588584181E+03 0.  0.
         23    2    4    4    0    0  0.43804439484E+03 -0.26326981211E+03 -0.29534960747E+02  0.52064314577E+03  0.94884590466E+02 0.  0.
         23    2    4    4    0    0 -0.13776956241E+03  0.14480884840E+03  0.50846492470E+03  0.55369434481E+03  0.89948835047E+02 0.  0.
          2    1    3    3  502    0 -0.32755479749E+02 -0.10548794043E+02  0.65720188805E+01  0.35034125385E+02  0.00000000000E+00 0. -1.
         -1    1    3    3    0  502 -0.26751935268E+03  0.12900975775E+03 -0.11274135305E+02  0.29721579328E+03  0.00000000000E+00 0.  1.
         11    1    5    5    0    0  0.11150453673E+03 -0.35796591614E+02  0.22637880238E+02  0.11927753898E+03  0.00000000000E+00 0. -1.
        -11    1    5    5    0    0  0.32653985811E+03 -0.22747322050E+03 -0.52172840985E+02  0.40136560679E+03  0.00000000000E+00 0.  1.
          2    1    6    6  503    0 -0.23891555488E+02  0.86450830061E+02  0.24231069302E+03  0.25837767782E+03  0.00000000000E+00 0.  1.
         -2    1    6    6    0  503 -0.11387800693E+03  0.58358018343E+02  0.26615423168E+03  0.29531666700E+03  0.00000000000E+00 0. -1.
<mgrwt>
<rscale>  0 0.13242342E+04</rscale>
<asrwt>0</asrwt>
<pdfrwt beam="1">  1        2 0.14467810E+00 0.13242342E+04</pdfrwt>
<pdfrwt beam="2">  1       -1 0.71719966E-01 0.13242342E+04</pdfrwt>
<totfact> 0.60380199E+01</totfact>
</mgrwt>
</event>
<event>
12    6  0.1556619E-007  0.1277167E+04  0.7818608E-02  0.9047871E-01
          2   -1    0    0  501    0  0.00000000000E+00  0.00000000000E+00  0.15786699478E+04  0.15786699478E+04  0.00000000000E+00 0. -1.
         -1   -1    0    0    0  501 -0.00000000000E+00 -0.00000000000E+00 -0.25831160100E+03  0.25831160100E+03  0.00000000000E+00 0.  1.
         24    2    1    2    0    0  0.24596490820E+03  0.28740906309E+02  0.56527401739E+03  0.62253934483E+03  0.81827534275E+02 0.  0.
        254    2    1    2    0    0 -0.24596490820E+03 -0.28740906309E+02  0.75508432944E+03  0.12144422040E+04  0.91836416878E+03 0.  0.
         23    2    4    4    0    0 -0.46535441588E+03 -0.26455387544E+03  0.22558926826E+03  0.58818705177E+03  0.92358023573E+02 0.  0.
         23    2    4    4    0    0  0.21938950768E+03  0.23581296913E+03  0.52949506118E+03  0.62625515222E+03  0.89949893725E+02 0.  0.
          4    1    3    3  502    0  0.22288451733E+03  0.48853801169E+02  0.52030428115E+03  0.56813796470E+03  0.00000000000E+00 0. -1.
         -3    1    3    3    0  502  0.23080390874E+02 -0.20112894860E+02  0.44969736240E+02  0.54401380130E+02  0.00000000000E+00 0.  1.
         11    1    5    5    0    0 -0.11558522520E+02  0.30853844349E+01  0.18658246595E+02  0.22164142347E+02  0.00000000000E+00 0. -1.
        -11    1    5    5    0    0 -0.45379589336E+03 -0.26763925988E+03  0.20693102166E+03  0.56602290942E+03  0.00000000000E+00 0.  1.
          2    1    6    6  503    0  0.15040767928E+03  0.13013643814E+03  0.39235052262E+03  0.43988281976E+03  0.00000000000E+00 0.  1.
         -2    1    6    6    0  503  0.68981828396E+02  0.10567653099E+03  0.13714453856E+03  0.18637233246E+03  0.00000000000E+00 0. -1.
<mgrwt>
<rscale>  0 0.12771668E+04</rscale>
<asrwt>0</asrwt>
<pdfrwt beam="1">  1        2 0.24287229E+00 0.12771668E+04</pdfrwt>
<pdfrwt beam="2">  1       -1 0.39740247E-01 0.12771668E+04</pdfrwt>
<totfact> 0.79011653E+01</totfact>
</mgrwt>
</event>
<event>
12    6  0.1556619E-007  0.1289078E+04  0.7818608E-02  0.9038271E-01
          2   -1    0    0  501    0  0.00000000000E+00  0.00000000000E+00  0.11650335385E+04  0.11650335385E+04  0.00000000000E+00 0. -1.
         -1   -1    0    0    0  501 -0.00000000000E+00 -0.00000000000E+00 -0.35658261303E+03  0.35658261303E+03  0.00000000000E+00 0.  1.
         24    2    1    2    0    0 -0.19595237117E+03 -0.24880416815E+03  0.13107331108E+03  0.35441244455E+03  0.90150552524E+02 0.  0.
        254    2    1    2    0    0  0.19595237117E+03  0.24880416815E+03  0.67737761438E+03  0.11672037070E+04  0.89622721184E+03 0.  0.
         23    2    4    4    0    0  0.60546346822E+02  0.56905703501E+01 -0.20813806630E+03  0.23450782891E+03  0.89298513254E+02 0.  0.
         23    2    4    4    0    0  0.13540602434E+03  0.24311359780E+03  0.88551568069E+03  0.93269587806E+03  0.91348603433E+02 0.  0.
          4    1    3    3  502    0 -0.83242598897E+02 -0.13367663781E+03  0.10962648451E+03  0.19187688728E+03  0.00000000000E+00 0. -1.
         -3    1    3    3    0  502 -0.11270977227E+03 -0.11512753034E+03  0.21446826575E+02  0.16253555727E+03  0.00000000000E+00 0.  1.
         11    1    5    5    0    0  0.53969627751E+02 -0.25263194170E+02 -0.18746679779E+03  0.19670981158E+03  0.00000000000E+00 0.  1.
        -11    1    5    5    0    0  0.65767190709E+01  0.30953764520E+02 -0.20671268515E+02  0.37798017325E+02  0.00000000000E+00 0. -1.
          4    1    6    6  503    0  0.35230498968E+02  0.91713283329E+01  0.15160666818E+03  0.15591626970E+03  0.00000000000E+00 0. -1.
         -4    1    6    6    0  503  0.10017552538E+03  0.23394226946E+03  0.73390901251E+03  0.77677960836E+03  0.00000000000E+00 0.  1.
<mgrwt>
<rscale>  0 0.12890783E+04</rscale>
<asrwt>0</asrwt>
<pdfrwt beam="1">  1        2 0.17923593E+00 0.12890783E+04</pdfrwt>
<pdfrwt beam="2">  1       -1 0.54858864E-01 0.12890783E+04</pdfrwt>
<totfact> 0.74652792E+01</totfact>
</mgrwt>
</event>
<event>
12    6  0.1556619E-007  0.3693060E+04  0.7818608E-02  0.8069501E-01
          2   -1    0    0  501    0  0.00000000000E+00  0.00000000000E+00  0.25582949291E+04  0.25582949291E+04  0.00000000000E+00 0. -1.
         -1   -1    0    0    0  501 -0.00000000000E+00 -0.00000000000E+00 -0.13327914086E+04  0.13327914086E+04  0.00000000000E+00 0.  1.
         24    2    1    2    0    0  0.60404096922E+03  0.70534626184E+03  0.21219283291E+04  0.23176351407E+04  0.80460983020E+02 0.  0.
        254    2    1    2    0    0 -0.60404096922E+03 -0.70534626184E+03 -0.89642480865E+03  0.15734511970E+04  0.89988465377E+03 0.  0.
         23    2    4    4    0    0 -0.41674256270E+03 -0.84516850564E+03 -0.92174042829E+03  0.13211967325E+04  0.89281702326E+02 0.  0.
         23    2    4    4    0    0 -0.18729840652E+03  0.13982224380E+03  0.25315619639E+02  0.25225446445E+03  0.91435667503E+02 0.  0.
          4    1    3    3  502    0  0.13942050952E+03  0.12028249978E+03  0.38069869171E+03  0.42289177351E+03  0.00000000000E+00 0. -1.
         -3    1    3    3    0  502  0.46462045970E+03  0.58506376206E+03  0.17412296374E+04  0.18947433672E+04  0.00000000000E+00 0.  1.
         11    1    5    5    0    0 -0.49460493115E+00 -0.39456198928E+02 -0.33075772622E+02  0.51488280243E+02  0.00000000000E+00 0. -1.
        -11    1    5    5    0    0 -0.41624795777E+03 -0.80571230671E+03 -0.88866465567E+03  0.12697084523E+04  0.00000000000E+00 0.  1.
          3    1    6    6  503    0 -0.12106639074E+03  0.11395671485E+03 -0.20720931886E+02  0.16754868201E+03  0.00000000000E+00 0. -1.
         -3    1    6    6    0  503 -0.66232015782E+02  0.25865528951E+02  0.46036551525E+02  0.84705782439E+02  0.00000000000E+00 0.  1.
<mgrwt>
<rscale>  0 0.36930602E+04</rscale>
<asrwt>0</asrwt>
<pdfrwt beam="1">  1        2 0.39358384E+00 0.36930602E+04</pdfrwt>
<pdfrwt beam="2">  1       -1 0.20504483E+00 0.36930602E+04</pdfrwt>
<totfact> 0.41113093E-01</totfact>
</mgrwt>
</event>
<event>
12    6  0.1556619E-007  0.1626686E+04  0.7818608E-02  0.8804320E-01
         -1   -1    0    0    0  501 -0.00000000000E+00  0.00000000000E+00  0.30335550032E+03  0.30335550032E+03  0.00000000000E+00 0.  1.
          2   -1    0    0  501    0  0.00000000000E+00 -0.00000000000E+00 -0.21806972047E+04  0.21806972047E+04  0.00000000000E+00 0. -1.
         24    2    1    2    0    0  0.36110084919E+02  0.37299490887E+03 -0.12840330710E+04  0.13399815452E+04  0.79877867944E+02 0.  0.
        254    2    1    2    0    0 -0.36110084919E+02 -0.37299490887E+03 -0.59330863332E+03  0.11440711598E+04  0.90357874253E+03 0.  0.
         23    2    4    4    0    0  0.36872570750E+03 -0.38739589996E+03 -0.21746229423E+03  0.58430310773E+03  0.89922419945E+02 0.  0.
         23    2    4    4    0    0 -0.40483579242E+03  0.14400991096E+02 -0.37584633909E+03  0.55976805203E+03  0.89333051574E+02 0.  0.
          4    1    3    3  502    0  0.26805287265E+01  0.29951097781E+03 -0.10734333405E+04  0.11144384898E+04  0.00000000000E+00 0. -1.
         -3    1    3    3    0  502  0.33429556192E+02  0.73483931059E+02 -0.21059973049E+03  0.22554305539E+03  0.00000000000E+00 0.  1.
         11    1    5    5    0    0  0.30331901954E+03 -0.36112944528E+03 -0.18334507567E+03  0.50599636425E+03  0.00000000000E+00 0.  1.
        -11    1    5    5    0    0  0.65406687959E+02 -0.26266454682E+02 -0.34117218566E+02  0.78306743477E+02  0.00000000000E+00 0. -1.
          1    1    6    6  503    0 -0.14439349763E+02  0.19356703409E+02 -0.26634652052E+02  0.35952489182E+02  0.00000000000E+00 0. -1.
         -1    1    6    6    0  503 -0.39039644266E+03 -0.49557123129E+01 -0.34921168703E+03  0.52381556285E+03  0.00000000000E+00 0.  1.
<mgrwt>
<rscale>  0 0.16266856E+04</rscale>
<asrwt>0</asrwt>
<pdfrwt beam="1">  1        2 0.33549189E+00 0.16266856E+04</pdfrwt>
<pdfrwt beam="2">  1       -1 0.46670075E-01 0.16266856E+04</pdfrwt>
<totfact> 0.26409940E+01</totfact>
</mgrwt>
</event>
<event>
12    6  0.1556619E-007  0.1564618E+04  0.7818608E-02  0.8842584E-01
          2   -1    0    0  501    0  0.00000000000E+00  0.00000000000E+00  0.24730707679E+04  0.24730707679E+04  0.00000000000E+00 0. -1.
         -1   -1    0    0    0  501 -0.00000000000E+00 -0.00000000000E+00 -0.24746870597E+03  0.24746870597E+03  0.00000000000E+00 0.  1.
         24    2    1    2    0    0 -0.42526493985E+03  0.16927212977E+03  0.31856261381E+03  0.56326914704E+03  0.79288524450E+02 0.  0.
        254    2    1    2    0    0  0.42526493985E+03 -0.16927212977E+03  0.19070394481E+04  0.21572703268E+04  0.89861698368E+03 0.  0.
         23    2    4    4    0    0 -0.10128562416E+03 -0.38842147749E+03  0.59208643089E+03  0.72086781180E+03  0.89185417065E+02 0.  0.
         23    2    4    4    0    0  0.52655056400E+03  0.21914934772E+03  0.13149530173E+04  0.14364025150E+04  0.94174383935E+02 0.  0.
          4    1    3    3  502    0 -0.25589721971E+02  0.11953370610E+02  0.47819651292E+02  0.55537698810E+02  0.00000000000E+00 0. -1.
         -3    1    3    3    0  502 -0.39967521787E+03  0.15731875916E+03  0.27074296252E+03  0.50773144823E+03  0.00000000000E+00 0.  1.
         11    1    5    5    0    0 -0.10597774486E+03 -0.38917301507E+03  0.56998928334E+03  0.69826549477E+03  0.00000000000E+00 0. -1.
        -11    1    5    5    0    0  0.46921207018E+01  0.75153758316E+00  0.22097147555E+02  0.22602317038E+02  0.00000000000E+00 0.  1.
          3    1    6    6  503    0  0.38031169507E+03  0.11383569937E+03  0.86732410783E+03  0.95385882596E+03  0.00000000000E+00 0. -1.
         -3    1    6    6    0  503  0.14623886893E+03  0.10531364835E+03  0.44762890943E+03  0.48254368908E+03  0.00000000000E+00 0.  1.
<mgrwt>
<rscale>  0 0.15646183E+04</rscale>
<asrwt>0</asrwt>
<pdfrwt beam="1">  1        2 0.38047241E+00 0.15646183E+04</pdfrwt>
<pdfrwt beam="2">  1       -1 0.38072110E-01 0.15646183E+04</pdfrwt>
<totfact> 0.26395181E+01</totfact>
</mgrwt>
</event>
<event>
12    6  0.1556619E-007  0.1672163E+04  0.7818608E-02  0.8777402E-01
          2   -1    0    0  501    0  0.00000000000E+00  0.00000000000E+00  0.12440847708E+04  0.12440847708E+04  0.00000000000E+00 0. -1.
         -1   -1    0    0    0  501 -0.00000000000E+00 -0.00000000000E+00 -0.56188485425E+03  0.56188485425E+03  0.00000000000E+00 0.  1.
         24    2    1    2    0    0  0.13368382094E+03  0.58242514729E+03  0.15979824544E+03  0.62495585116E+03  0.89128673704E+02 0.  0.
        254    2    1    2    0    0 -0.13368382094E+03 -0.58242514729E+03  0.52240167115E+03  0.11810137739E+04  0.87452822255E+03 0.  0.
         23    2    4    4    0    0 -0.13780488094E+03 -0.20516609571E+03 -0.21979590378E+03  0.34336788965E+03  0.92238583475E+02 0.  0.
         23    2    4    4    0    0  0.41210599984E+01 -0.37725905158E+03  0.74219757494E+03  0.83764588429E+03  0.91934825291E+02 0.  0.
          2    1    3    3  502    0  0.14574812657E+03  0.52182742585E+03  0.15173158637E+03  0.56264451750E+03  0.00000000000E+00 0. -1.
         -1    1    3    3    0  502 -0.12064305634E+02  0.60597721436E+02  0.80666590736E+01  0.62311333658E+02  0.00000000000E+00 0.  1.
         11    1    5    5    0    0  0.54551152157E+01 -0.57672153559E+02 -0.42165480696E+02  0.71650284999E+02  0.00000000000E+00 0.  1.
        -11    1    5    5    0    0 -0.14325999615E+03 -0.14749394215E+03 -0.17763042309E+03  0.27171760465E+03  0.00000000000E+00 0. -1.
          4    1    6    6  503    0  0.19702671881E+02 -0.16167374193E+02  0.69084973286E+02  0.73636355162E+02  0.00000000000E+00 0. -1.
         -4    1    6    6    0  503 -0.15581611883E+02 -0.36109167739E+03  0.67311260165E+03  0.76400952913E+03  0.00000000000E+00 0.  1.
<mgrwt>
<rscale>  0 0.16721631E+04</rscale>
<asrwt>0</asrwt>
<pdfrwt beam="1">  1        2 0.19139766E+00 0.16721631E+04</pdfrwt>
<pdfrwt beam="2">  1       -1 0.86443824E-01 0.16721631E+04</pdfrwt>
<totfact> 0.25588846E+01</totfact>
</mgrwt>
</event>
<event>
12    6  0.1556619E-007  0.1431440E+04  0.7818608E-02  0.8931370E-01
         -1   -1    0    0    0  501 -0.00000000000E+00  0.00000000000E+00  0.45960105352E+03  0.45960105352E+03  0.00000000000E+00 0.  1.
          2   -1    0    0  501    0  0.00000000000E+00 -0.00000000000E+00 -0.11145651129E+04  0.11145651129E+04  0.00000000000E+00 0. -1.
         24    2    1    2    0    0  0.20553280505E+03 -0.13733213878E+02 -0.61718451901E+03  0.65525424295E+03  0.77518109360E+02 0.  0.
        254    2    1    2    0    0 -0.20553280505E+03  0.13733213878E+02 -0.37779540395E+02  0.91891192350E+03  0.89472872669E+03 0.  0.
         23    2    4    4    0    0  0.19895011016E+03 -0.29028570892E+03  0.11610852072E+03  0.38148127951E+03  0.90552961855E+02 0.  0.
         23    2    4    4    0    0 -0.40448291521E+03  0.30401892279E+03 -0.15388806111E+03  0.53743064399E+03  0.95478938150E+02 0.  0.
          2    1    3    3  502    0  0.20445613368E+03 -0.90713864872E+01 -0.61742864543E+03  0.65046347542E+03  0.00000000000E+00 0. -1.
         -1    1    3    3    0  502  0.10766713779E+01 -0.46618273907E+01  0.24412641731E+00  0.47907675360E+01  0.00000000000E+00 0.  1.
         11    1    5    5    0    0  0.18151642523E+02 -0.89665599238E+02  0.46319514714E+02  0.10254218281E+03  0.00000000000E+00 0. -1.
        -11    1    5    5    0    0  0.18079846764E+03 -0.20062010968E+03  0.69789006003E+02  0.27893909670E+03  0.00000000000E+00 0.  1.
          3    1    6    6  503    0 -0.35056015273E+03  0.29862015374E+03 -0.14254628140E+03  0.48206416507E+03  0.00000000000E+00 0. -1.
         -3    1    6    6    0  503 -0.53922762484E+02  0.53987690548E+01 -0.11341779707E+02  0.55366478922E+02  0.00000000000E+00 0.  1.
<mgrwt>
<rscale>  0 0.14314403E+04</rscale>
<asrwt>0</asrwt>
<pdfrwt beam="1">  1        2 0.17147155E+00 0.14314403E+04</pdfrwt>
<pdfrwt beam="2">  1       -1 0.70707855E-01 0.14314403E+04</pdfrwt>
<totfact> 0.47770133E+01</totfact>
</mgrwt>
</event>
<event>
12    6  0.1556619E-007  0.2209097E+04  0.7818608E-02  0.8514651E-01
          2   -1    0    0  501    0  0.00000000000E+00  0.00000000000E+00  0.15925535654E+04  0.15925535654E+04  0.00000000000E+00 0. -1.
         -1   -1    0    0    0  501 -0.00000000000E+00 -0.00000000000E+00 -0.76608248818E+03  0.76608248818E+03  0.00000000000E+00 0.  1.
         24    2    1    2    0    0  0.89870311148E+03 -0.58193957553E+02  0.13965535054E+03  0.91481053966E+03  0.79504007808E+02 0.  0.
        254    2    1    2    0    0 -0.89870311148E+03  0.58193957553E+02  0.68681572668E+03  0.14438255139E+04  0.89546772862E+03 0.  0.
         23    2    4    4    0    0 -0.77435208181E+03  0.25559362635E+03  0.81795263279E+03  0.11585002664E+04  0.90150481168E+02 0.  0.
         23    2    4    4    0    0 -0.12435102967E+03 -0.19739966880E+03 -0.13113690611E+03  0.28532524757E+03  0.98913097894E+02 0.  0.
          2    1    3    3  502    0  0.89549406509E+03 -0.60934934525E+02  0.13363536873E+03  0.90745859334E+03  0.00000000000E+00 0. -1.
         -1    1    3    3    0  502  0.32090463836E+01  0.27409769716E+01  0.60199818197E+01  0.73519463110E+01  0.00000000000E+00 0.  1.
         11    1    5    5    0    0 -0.56930290850E+03  0.22835610638E+03  0.60141829410E+03  0.85904381578E+03  0.00000000000E+00 0. -1.
        -11    1    5    5    0    0 -0.20504917331E+03  0.27237519973E+02  0.21653433869E+03  0.29945645059E+03  0.00000000000E+00 0.  1.
          4    1    6    6  503    0 -0.84529404161E+02 -0.15885007855E+03 -0.49451702394E+02  0.18661199987E+03  0.00000000000E+00 0. -1.
         -4    1    6    6    0  503 -0.39821625507E+02 -0.38549590243E+02 -0.81685203713E+02  0.98713247700E+02  0.00000000000E+00 0.  1.
<mgrwt>
<rscale>  0 0.22090970E+04</rscale>
<asrwt>0</asrwt>
<pdfrwt beam="1">  1        2 0.24500824E+00 0.22090970E+04</pdfrwt>
<pdfrwt beam="2">  1       -1 0.11785884E+00 0.22090970E+04</pdfrwt>
<totfact> 0.75776442E+00</totfact>
</mgrwt>
</event>
<event>
12    6  0.1556619E-007  0.1556927E+04  0.7818608E-02  0.8847455E-01
          2   -1    0    0  501    0  0.00000000000E+00  0.00000000000E+00  0.83163285725E+03  0.83163285725E+03  0.00000000000E+00 0. -1.
         -1   -1    0    0    0  501 -0.00000000000E+00 -0.00000000000E+00 -0.72869388509E+03  0.72869388509E+03  0.00000000000E+00 0.  1.
         24    2    1    2    0    0 -0.44153380000E+03 -0.15011798085E+02  0.31033031089E+03  0.54573026755E+03  0.79618920127E+02 0.  0.
        254    2    1    2    0    0  0.44153380000E+03  0.15011798085E+02 -0.20739133873E+03  0.10145964748E+04  0.88950401273E+03 0.  0.
         23    2    4    4    0    0  0.43927433772E+03 -0.29822862153E+02 -0.51945602317E+03  0.68727943179E+03  0.93097317221E+02 0.  0.
         23    2    4    4    0    0  0.22594622761E+01  0.44834660238E+02  0.31206468444E+03  0.32731704300E+03  0.87959237351E+02 0.  0.
          2    1    3    3  502    0 -0.41859223327E+03 -0.12983641841E+01  0.30632008629E+03  0.51870332442E+03  0.00000000000E+00 0. -1.
         -1    1    3    3    0  502 -0.22941566730E+02 -0.13713433901E+02  0.40102245919E+01  0.27026943124E+02  0.00000000000E+00 0.  1.
         11    1    5    5    0    0  0.16162042203E+03  0.15729221054E+02 -0.24714736804E+03  0.29572012232E+03  0.00000000000E+00 0.  1.
        -11    1    5    5    0    0  0.27765391569E+03 -0.45552083207E+02 -0.27230865513E+03  0.39155930948E+03  0.00000000000E+00 0. -1.
          2    1    6    6  503    0 -0.90357059646E+00  0.70667311837E+02  0.19549202138E+03  0.20787451942E+03  0.00000000000E+00 0. -1.
         -2    1    6    6    0  503  0.31630328725E+01 -0.25832651599E+02  0.11657266306E+03  0.11944252358E+03  0.00000000000E+00 0.  1.
<mgrwt>
<rscale>  0 0.15569275E+04</rscale>
<asrwt>0</asrwt>
<pdfrwt beam="1">  1        2 0.12794352E+00 0.15569275E+04</pdfrwt>
<pdfrwt beam="2">  1       -1 0.11210675E+00 0.15569275E+04</pdfrwt>
<totfact> 0.26205698E+01</totfact>
</mgrwt>
</event>
<event>
12    6  0.1556619E-007  0.2204356E+04  0.7818608E-02  0.8516617E-01
          2   -1    0    0  501    0  0.00000000000E+00  0.00000000000E+00  0.10231061706E+04  0.10231061706E+04  0.00000000000E+00 0. -1.
         -1   -1    0    0    0  501 -0.00000000000E+00 -0.00000000000E+00 -0.11873613622E+04  0.11873613622E+04  0.00000000000E+00 0.  1.
         24    2    1    2    0    0  0.92361759845E+02  0.81125652790E+03  0.34935806121E+03  0.89161309459E+03  0.79088600833E+02 0.  0.
        254    2    1    2    0    0 -0.92361759845E+02 -0.81125652790E+03 -0.51361325283E+03  0.13188544382E+04  0.89939457800E+03 0.  0.
         23    2    4    4    0    0 -0.12263853839E+03 -0.67231131341E+03  0.87388255885E+02  0.69490338225E+03  0.90616169346E+02 0.  0.
         23    2    4    4    0    0  0.30276778549E+02 -0.13894521448E+03 -0.60100150872E+03  0.62395105595E+03  0.88823706247E+02 0.  0.
          2    1    3    3  502    0  0.10182158344E+03  0.74709801150E+03  0.30673564269E+03  0.81400849390E+03  0.00000000000E+00 0. -1.
         -1    1    3    3    0  502 -0.94598235921E+01  0.64158516395E+02  0.42622418522E+02  0.77604600695E+02  0.00000000000E+00 0.  1.
         11    1    5    5    0    0 -0.12469277916E+03 -0.67450926809E+03  0.88646426876E+02  0.69164241550E+03  0.00000000000E+00 0. -1.
        -11    1    5    5    0    0  0.20542407661E+01  0.21979546785E+01 -0.12581709913E+01  0.32609667488E+01  0.00000000000E+00 0.  1.
          2    1    6    6  503    0  0.40027549883E+02 -0.13560978234E+03 -0.43022651661E+03  0.45286540319E+03  0.00000000000E+00 0. -1.
         -2    1    6    6    0  503 -0.97507713344E+01 -0.33354321448E+01 -0.17077499211E+03  0.17108565276E+03  0.00000000000E+00 0.  1.
<mgrwt>
<rscale>  0 0.22043564E+04</rscale>
<asrwt>0</asrwt>
<pdfrwt beam="1">  1        2 0.15740095E+00 0.22043564E+04</pdfrwt>
<pdfrwt beam="2">  1       -1 0.18267098E+00 0.22043564E+04</pdfrwt>
<totfact> 0.50515512E+00</totfact>
</mgrwt>
</event>
<event>
12    6  0.1556619E-007  0.1269876E+04  0.7818608E-02  0.9053801E-01
         -1   -1    0    0    0  501 -0.00000000000E+00  0.00000000000E+00  0.33227146942E+03  0.33227146942E+03  0.00000000000E+00 0.  1.
          2   -1    0    0  501    0  0.00000000000E+00 -0.00000000000E+00 -0.12133045599E+04  0.12133045599E+04  0.00000000000E+00 0. -1.
         24    2    1    2    0    0 -0.30948683130E+03  0.78336070378E+02 -0.34274474766E+03  0.47512785843E+03  0.79711235940E+02 0.  0.
        254    2    1    2    0    0  0.30948683130E+03 -0.78336070378E+02 -0.53828834277E+03  0.10704481708E+04  0.86843900641E+03 0.  0.
         23    2    4    4    0    0 -0.22638475221E+03  0.17908017800E+03 -0.77000350862E+02  0.31214696710E+03  0.90481538733E+02 0.  0.
         23    2    4    4    0    0  0.53587158350E+03 -0.25741624838E+03 -0.46128799190E+03  0.75830120375E+03  0.93875583647E+02 0.  0.
          4    1    3    3  502    0 -0.24262078521E+03  0.25938697268E+02 -0.24920968515E+03  0.34877374988E+03  0.00000000000E+00 0. -1.
         -3    1    3    3    0  502 -0.66866046091E+02  0.52397373110E+02 -0.93535062509E+02  0.12635410855E+03  0.00000000000E+00 0.  1.
         11    1    5    5    0    0 -0.10219790382E+03  0.10638642596E+03 -0.80797512499E+02  0.16819845778E+03  0.00000000000E+00 0.  1.
        -11    1    5    5    0    0 -0.12418684839E+03  0.72693752036E+02  0.37971616371E+01  0.14394850932E+03  0.00000000000E+00 0. -1.
          4    1    6    6  503    0  0.32348715305E+01  0.18909295740E+01  0.36527454062E+01  0.52328345545E+01  0.00000000000E+00 0.  1.
         -4    1    6    6    0  503  0.53263671197E+03 -0.25930717795E+03 -0.46494073731E+03  0.75306836920E+03  0.00000000000E+00 0. -1.
<mgrwt>
<rscale>  0 0.12698764E+04</rscale>
<asrwt>0</asrwt>
<pdfrwt beam="1">  1        2 0.18666224E+00 0.12698764E+04</pdfrwt>
<pdfrwt beam="2">  1       -1 0.51118688E-01 0.12698764E+04</pdfrwt>
<totfact> 0.80105990E+01</totfact>
</mgrwt>
</event>
<event>
12    6  0.1556619E-007  0.1545547E+04  0.7818608E-02  0.8854717E-01
         -1   -1    0    0    0  501 -0.00000000000E+00  0.00000000000E+00  0.29312772398E+03  0.29312772398E+03  0.00000000000E+00 0.  1.
          2   -1    0    0  501    0  0.00000000000E+00 -0.00000000000E+00 -0.20372640051E+04  0.20372640051E+04  0.00000000000E+00 0. -1.
         24    2    1    2    0    0 -0.44963810987E+03  0.68717186283E+02 -0.91027898071E+03  0.10208558922E+04  0.81501216426E+02 0.  0.
        254    2    1    2    0    0  0.44963810987E+03 -0.68717186283E+02 -0.83385730046E+03  0.13095358370E+04  0.90148190734E+03 0.  0.
         23    2    4    4    0    0  0.43157095298E+03  0.35007783416E+03 -0.59387278930E+03  0.81821919369E+03  0.89385578392E+02 0.  0.
         23    2    4    4    0    0  0.18067156883E+02 -0.41879502044E+03 -0.23998451116E+03  0.49131664329E+03  0.89909883051E+02 0.  0.
          2    1    3    3  502    0 -0.31674024031E+03  0.24509997517E+02 -0.69300495008E+03  0.76235226808E+03  0.00000000000E+00 0. -1.
         -1    1    3    3    0  502 -0.13289786956E+03  0.44207188767E+02 -0.21727403063E+03  0.25850362407E+03  0.00000000000E+00 0.  1.
         11    1    5    5    0    0  0.25827367578E+03  0.26407880510E+03 -0.38837221781E+03  0.53598123705E+03  0.00000000000E+00 0. -1.
        -11    1    5    5    0    0  0.17329727720E+03  0.85999029055E+02 -0.20550057149E+03  0.28223795664E+03  0.00000000000E+00 0.  1.
          1    1    6    6  503    0 -0.20147853800E+02 -0.27107084444E+02 -0.88520238855E+01  0.34915445961E+02  0.00000000000E+00 0.  1.
         -1    1    6    6    0  503  0.38215010683E+02 -0.39168793600E+03 -0.23113248727E+03  0.45640119733E+03  0.00000000000E+00 0. -1.
<mgrwt>
<rscale>  0 0.15455466E+04</rscale>
<asrwt>0</asrwt>
<pdfrwt beam="1">  1        2 0.31342523E+00 0.15455466E+04</pdfrwt>
<pdfrwt beam="2">  1       -1 0.45096574E-01 0.15455466E+04</pdfrwt>
<totfact> 0.34088963E+01</totfact>
</mgrwt>
</event>
<event>
12    6  0.1556619E-007  0.1880882E+04  0.7818608E-02  0.8664431E-01
          2   -1    0    0  501    0  0.00000000000E+00  0.00000000000E+00  0.14362156571E+04  0.14362156571E+04  0.00000000000E+00 0. -1.
         -1   -1    0    0    0  501 -0.00000000000E+00 -0.00000000000E+00 -0.61580549187E+03  0.61580549187E+03  0.00000000000E+00 0.  1.
         24    2    1    2    0    0  0.21515150561E+03 -0.68448227248E+03  0.34834685746E+03  0.80219522482E+03  0.85822455828E+02 0.  0.
        254    2    1    2    0    0 -0.21515150561E+03  0.68448227248E+03  0.47206330776E+03  0.12498259241E+04  0.90797297449E+03 0.  0.
         23    2    4    4    0    0 -0.20743435627E+03 -0.49220259055E+02 -0.15568794211E+03  0.27928670029E+03  0.91162928770E+02 0.  0.
         23    2    4    4    0    0 -0.77171493403E+01  0.73370253153E+03  0.62775124987E+03  0.97053922384E+03  0.97446365426E+02 0.  0.
          4    1    3    3  502    0  0.20562427104E+03 -0.58599684872E+03  0.32324789055E+03  0.70011630912E+03  0.00000000000E+00 0. -1.
         -3    1    3    3    0  502  0.95272345686E+01 -0.98485423753E+02  0.25098966909E+02  0.10207891570E+03  0.00000000000E+00 0.  1.
         11    1    5    5    0    0 -0.15181468740E+03 -0.73389329052E+02 -0.95234054705E+02  0.19365747624E+03  0.00000000000E+00 0. -1.
        -11    1    5    5    0    0 -0.55619668867E+02  0.24169069998E+02 -0.60453887405E+02  0.85629224053E+02  0.00000000000E+00 0.  1.
          4    1    6    6  503    0 -0.24422503704E+02  0.25542360861E+03  0.16652453814E+03  0.30588903269E+03  0.00000000000E+00 0. -1.
         -4    1    6    6    0  503  0.16705354364E+02  0.47827892293E+03  0.46122671173E+03  0.66465019115E+03  0.00000000000E+00 0.  1.
<mgrwt>
<rscale>  0 0.18808822E+04</rscale>
<asrwt>0</asrwt>
<pdfrwt beam="1">  1        2 0.22095625E+00 0.18808822E+04</pdfrwt>
<pdfrwt beam="2">  1       -1 0.94739307E-01 0.18808822E+04</pdfrwt>
<totfact> 0.15890088E+01</totfact>
</mgrwt>
</event>
<event>
12    6  0.1556619E-007  0.2299086E+04  0.7818608E-02  0.8478281E-01
          2   -1    0    0  501    0  0.00000000000E+00  0.00000000000E+00  0.16960137218E+04  0.16960137218E+04  0.00000000000E+00 0. -1.
         -1   -1    0    0    0  501 -0.00000000000E+00 -0.00000000000E+00 -0.77915019264E+03  0.77915019264E+03  0.00000000000E+00 0.  1.
         24    2    1    2    0    0  0.94606841692E+03  0.22689059967E+03  0.40475286024E+03  0.10566449488E+04  0.78414770747E+02 0.  0.
        254    2    1    2    0    0 -0.94606841692E+03 -0.22689059967E+03  0.51211066888E+03  0.14185189656E+04  0.89633360132E+03 0.  0.
         23    2    4    4    0    0 -0.92856133046E+03 -0.22535039463E+03  0.64955583970E+02  0.96214221811E+03  0.92138348141E+02 0.  0.
         23    2    4    4    0    0 -0.17507086455E+02 -0.15402050379E+01  0.44715508491E+03  0.45637674747E+03  0.89572291294E+02 0.  0.
          4    1    3    3  502    0  0.30589184656E+03  0.10603628960E+03  0.15483194354E+03  0.35886828677E+03  0.00000000000E+00 0. -1.
         -3    1    3    3    0  502  0.64017657035E+03  0.12085431007E+03  0.24992091670E+03  0.69777666205E+03  0.00000000000E+00 0.  1.
         11    1    5    5    0    0 -0.50045571716E+03 -0.15130687638E+03 -0.15675818931E+00  0.52282857635E+03  0.00000000000E+00 0. -1.
        -11    1    5    5    0    0 -0.42810561330E+03 -0.74043518252E+02  0.65112342159E+02  0.43931364176E+03  0.00000000000E+00 0.  1.
          3    1    6    6  503    0 -0.30985093882E+01 -0.20244427062E+02  0.41955968999E+03  0.42005924708E+03  0.00000000000E+00 0. -1.
         -3    1    6    6    0  503 -0.14408577067E+02  0.18704222024E+02  0.27595394917E+02  0.36317500399E+02  0.00000000000E+00 0.  1.
<mgrwt>
<rscale>  0 0.22990863E+04</rscale>
<asrwt>0</asrwt>
<pdfrwt beam="1">  1        2 0.26092519E+00 0.22990863E+04</pdfrwt>
<pdfrwt beam="2">  1       -1 0.11986926E+00 0.22990863E+04</pdfrwt>
<totfact> 0.63171207E+00</totfact>
</mgrwt>
</event>
<event>
12    6  0.1556619E-007  0.1128325E+04  0.7818608E-02  0.9178016E-01
         -3   -1    0    0    0  501 -0.00000000000E+00  0.00000000000E+00  0.37524772976E+03  0.37524772976E+03  0.00000000000E+00 0.  1.
          2   -1    0    0  501    0  0.00000000000E+00 -0.00000000000E+00 -0.84818385747E+03  0.84818385747E+03  0.00000000000E+00 0. -1.
         24    2    1    2    0    0 -0.62540931517E+02  0.18600297720E+03 -0.12207176946E+03  0.24493994018E+03  0.81151597338E+02 0.  0.
        254    2    1    2    0    0  0.62540931517E+02 -0.18600297720E+03 -0.35086435825E+03  0.97849164706E+03  0.89209395796E+03 0.  0.
         23    2    4    4    0    0 -0.11287226985E+03  0.28835831172E+03  0.48739968172E+02  0.32724733646E+03  0.93939179730E+02 0.  0.
         23    2    4    4    0    0  0.17541320137E+03 -0.47436128892E+03 -0.39960432642E+03  0.65124431060E+03  0.92989842169E+02 0.  0.
          2    1    3    3  502    0  0.17953472002E+02  0.21739157745E+02 -0.25846880017E+02  0.38248912965E+02  0.00000000000E+00 0. -1.
         -1    1    3    3    0  502 -0.80494403519E+02  0.16426381946E+03 -0.96224889443E+02  0.20669102721E+03  0.00000000000E+00 0.  1.
         11    1    5    5    0    0 -0.12553178131E+03  0.22225566832E+03  0.27824481421E+02  0.25676840145E+03  0.00000000000E+00 0. -1.
        -11    1    5    5    0    0  0.12659511456E+02  0.66102643396E+02  0.20915486751E+02  0.70478935011E+02  0.00000000000E+00 0.  1.
          3    1    6    6  503    0  0.17353853924E+03 -0.43597704122E+03 -0.33675685724E+03  0.57757838080E+03  0.00000000000E+00 0. -1.
         -3    1    6    6    0  503  0.18746621278E+01 -0.38384247703E+02 -0.62847469182E+02  0.73665929794E+02  0.00000000000E+00 0.  1.
<mgrwt>
<rscale>  0 0.11283245E+04</rscale>
<asrwt>0</asrwt>
<pdfrwt beam="1">  1        2 0.13048982E+00 0.11283245E+04</pdfrwt>
<pdfrwt beam="2">  1       -3 0.57730420E-01 0.11283245E+04</pdfrwt>
<totfact> 0.59058458E+01</totfact>
</mgrwt>
</event>
<event>
12    6  0.1556619E-007  0.1792600E+04  0.7818608E-02  0.8710245E-01
         -1   -1    0    0    0  501 -0.00000000000E+00  0.00000000000E+00  0.29849418973E+03  0.29849418973E+03  0.00000000000E+00 0.  1.
          2   -1    0    0  501    0  0.00000000000E+00 -0.00000000000E+00 -0.26913537473E+04  0.26913537473E+04  0.00000000000E+00 0. -1.
         24    2    1    2    0    0  0.21710768389E+03 -0.17387414008E+03  0.11496673457E+03  0.31075266452E+03  0.77342778975E+02 0.  0.
        254    2    1    2    0    0 -0.21710768389E+03  0.17387414008E+03 -0.25078262922E+04  0.26790952725E+04  0.90055027883E+03 0.  0.
         23    2    4    4    0    0 -0.48506960234E+03 -0.10699934559E+03 -0.10059824654E+04  0.11253882061E+04  0.88071077108E+02 0.  0.
         23    2    4    4    0    0  0.26796191846E+03  0.28087348566E+03 -0.15018438268E+04  0.15537070665E+04  0.88188795684E+02 0.  0.
          2    1    3    3  502    0  0.77051146439E+02 -0.10657099527E+03  0.35457191213E+02  0.13620377605E+03  0.00000000000E+00 0. -1.
         -1    1    3    3    0  502  0.14005653745E+03 -0.67303144802E+02  0.79509543353E+02  0.17454888847E+03  0.00000000000E+00 0.  1.
         11    1    5    5    0    0 -0.65782609028E+02 -0.22892839403E+02 -0.21782352972E+03  0.22868870511E+03  0.00000000000E+00 0. -1.
        -11    1    5    5    0    0 -0.41928699331E+03 -0.84106506183E+02 -0.78815893565E+03  0.89669950094E+03  0.00000000000E+00 0.  1.
          3    1    6    6  503    0  0.14305943355E+03  0.17999062190E+03 -0.10281231760E+04  0.10535178643E+04  0.00000000000E+00 0.  1.
         -3    1    6    6    0  503  0.12490248491E+03  0.10088286376E+03 -0.47372065083E+03  0.50018920216E+03  0.00000000000E+00 0. -1.
<mgrwt>
<rscale>  0 0.17925997E+04</rscale>
<asrwt>0</asrwt>
<pdfrwt beam="1">  1        2 0.41405442E+00 0.17925997E+04</pdfrwt>
<pdfrwt beam="2">  1       -1 0.45922183E-01 0.17925997E+04</pdfrwt>
<totfact> 0.13654351E+01</totfact>
</mgrwt>
</event>
<event>
12    6  0.1556619E-007  0.3571418E+04  0.7818608E-02  0.8097070E-01
          2   -1    0    0  501    0  0.00000000000E+00  0.00000000000E+00  0.26565456162E+04  0.26565456162E+04  0.00000000000E+00 0. -1.
         -1   -1    0    0    0  501 -0.00000000000E+00 -0.00000000000E+00 -0.12003396698E+04  0.12003396698E+04  0.00000000000E+00 0.  1.
         24    2    1    2    0    0  0.79447798070E+03 -0.61316666600E+03 -0.76003917757E+03  0.12614496386E+04  0.80168679587E+02 0.  0.
        254    2    1    2    0    0 -0.79447798070E+03  0.61316666600E+03  0.22162451240E+04  0.25954356474E+04  0.90408800903E+03 0.  0.
         23    2    4    4    0    0 -0.23318290852E+02  0.55772274748E+03  0.80904474900E+03  0.98716942330E+03  0.91387409782E+02 0.  0.
         23    2    4    4    0    0 -0.77115968984E+03  0.55443918522E+02  0.14072003750E+04  0.16082662241E+04  0.92444885522E+02 0.  0.
          4    1    3    3  502    0  0.26255759656E+01 -0.17033122500E+01 -0.11609392151E+02  0.12023847466E+02  0.00000000000E+00 0. -1.
         -3    1    3    3    0  502  0.79185240473E+03 -0.61146335375E+03 -0.74842978542E+03  0.12494257911E+04  0.00000000000E+00 0.  1.
         11    1    5    5    0    0 -0.56152230968E+02  0.35916719873E+03  0.49434946024E+03  0.61362491680E+03  0.00000000000E+00 0.  1.
        -11    1    5    5    0    0  0.32833940116E+02  0.19855554876E+03  0.31469528876E+03  0.37354450650E+03  0.00000000000E+00 0. -1.
          4    1    6    6  503    0 -0.17995664530E+03  0.48183829176E+02  0.37493477819E+03  0.41866712730E+03  0.00000000000E+00 0. -1.
         -4    1    6    6    0  503 -0.59120304454E+03  0.72600893460E+01  0.10322655968E+04  0.11895990968E+04  0.00000000000E+00 0.  1.
<mgrwt>
<rscale>  0 0.35714183E+04</rscale>
<asrwt>0</asrwt>
<pdfrwt beam="1">  1        2 0.40869932E+00 0.35714183E+04</pdfrwt>
<pdfrwt beam="2">  1       -1 0.18466764E+00 0.35714183E+04</pdfrwt>
<totfact> 0.50397079E-01</totfact>
</mgrwt>
</event>
<event>
12    6  0.1556619E-007  0.1181531E+04  0.7818608E-02  0.9129177E-01
          2   -1    0    0  501    0  0.00000000000E+00  0.00000000000E+00  0.18139731392E+04  0.18139731392E+04  0.00000000000E+00 0. -1.
         -1   -1    0    0    0  501 -0.00000000000E+00 -0.00000000000E+00 -0.19239764444E+03  0.19239764444E+03  0.00000000000E+00 0.  1.
         24    2    1    2    0    0 -0.35629173078E+02  0.62069506809E+00  0.73999714330E+03  0.74492281745E+03  0.77745794928E+02 0.  0.
        254    2    1    2    0    0  0.35629173078E+02 -0.62069506809E+00  0.88157835143E+03  0.12614479662E+04  0.90155463416E+03 0.  0.
         23    2    4    4    0    0 -0.14873905494E+03 -0.36373199055E+03  0.69854116086E+03  0.80611287826E+03  0.86220366925E+02 0.  0.
         23    2    4    4    0    0  0.18436822801E+03  0.36311129548E+03  0.18303719056E+03  0.45533508789E+03  0.89364269843E+02 0.  0.
          4    1    3    3  502    0 -0.10918638304E+02  0.25358288191E+02  0.59966765663E+03  0.60030288843E+03  0.00000000000E+00 0. -1.
         -3    1    3    3    0  502 -0.24710534775E+02 -0.24737593123E+02  0.14032948666E+03  0.14461992902E+03  0.00000000000E+00 0.  1.
         11    1    5    5    0    0  0.25676953421E+01 -0.29053516367E+02  0.97135143560E+02  0.10141960356E+03  0.00000000000E+00 0. -1.
        -11    1    5    5    0    0 -0.15130675028E+03 -0.33467847418E+03  0.60140601730E+03  0.70469327470E+03  0.00000000000E+00 0.  1.
          2    1    6    6  503    0  0.10768338471E+03  0.19653519503E+03  0.52302322768E+02  0.23012459060E+03  0.00000000000E+00 0. -1.
         -2    1    6    6    0  503  0.76684843303E+02  0.16657610045E+03  0.13073486780E+03  0.22521049729E+03  0.00000000000E+00 0.  1.
<mgrwt>
<rscale>  0 0.11815315E+04</rscale>
<asrwt>0</asrwt>
<pdfrwt beam="1">  1        2 0.27907278E+00 0.11815315E+04</pdfrwt>
<pdfrwt beam="2">  1       -1 0.29599639E-01 0.11815315E+04</pdfrwt>
<totfact> 0.99698281E+01</totfact>
</mgrwt>
</event>
<event>
12    6  0.1556619E-007  0.1885841E+04  0.7818608E-02  0.8661937E-01
         -1   -1    0    0    0  501 -0.00000000000E+00  0.00000000000E+00  0.48385070263E+03  0.48385070263E+03  0.00000000000E+00 0.  1.
          2   -1    0    0  501    0  0.00000000000E+00 -0.00000000000E+00 -0.18375481667E+04  0.18375481667E+04  0.00000000000E+00 0. -1.
         24    2    1    2    0    0 -0.36943307877E+03 -0.39369536871E+03  0.71411363326E+02  0.55086826137E+03  0.82942242166E+02 0.  0.
        254    2    1    2    0    0  0.36943307877E+03  0.39369536871E+03 -0.14251088274E+04  0.17705306080E+04  0.90131383036E+03 0.  0.
         23    2    4    4    0    0 -0.21753979971E+03  0.15162232404E+03 -0.98744923090E+02  0.29680945840E+03  0.89623664014E+02 0.  0.
         23    2    4    4    0    0  0.58697287848E+03  0.24207304468E+03 -0.13263639043E+04  0.14737211496E+04  0.97346294346E+02 0.  0.
          4    1    3    3  502    0 -0.20552531260E+03 -0.21758411480E+03 -0.20701170074E+01  0.29931218906E+03  0.00000000000E+00 0. -1.
         -3    1    3    3    0  502 -0.16390776617E+03 -0.17611125391E+03  0.73481480333E+02  0.25155607231E+03  0.00000000000E+00 0.  1.
         11    1    5    5    0    0 -0.83452851627E+02  0.71497875912E+02  0.37943319292E+01  0.10995781764E+03  0.00000000000E+00 0.  1.
        -11    1    5    5    0    0 -0.13408694809E+03  0.80124448125E+02 -0.10253925502E+03  0.18685164076E+03  0.00000000000E+00 0. -1.
          1    1    6    6  503    0  0.38515095944E+03  0.18552110517E+03 -0.79787268104E+03  0.90518515077E+03  0.00000000000E+00 0. -1.
         -1    1    6    6    0  503  0.20182191904E+03  0.56551939502E+02 -0.52849122327E+03  0.56853599881E+03  0.00000000000E+00 0.  1.
<mgrwt>
<rscale>  0 0.18858409E+04</rscale>
<asrwt>0</asrwt>
<pdfrwt beam="1">  1        2 0.28269972E+00 0.18858409E+04</pdfrwt>
<pdfrwt beam="2">  1       -1 0.74438568E-01 0.18858409E+04</pdfrwt>
<totfact> 0.15949702E+01</totfact>
</mgrwt>
</event>
<event>
12    6  0.1556619E-007  0.2864501E+04  0.7818608E-02  0.8283518E-01
         -1   -1    0    0    0  501 -0.00000000000E+00  0.00000000000E+00  0.98026909952E+03  0.98026909952E+03  0.00000000000E+00 0.  1.
          2   -1    0    0  501    0  0.00000000000E+00 -0.00000000000E+00 -0.20926310514E+04  0.20926310514E+04  0.00000000000E+00 0. -1.
         24    2    1    2    0    0 -0.44024683610E+03 -0.10106790857E+04  0.21458985632E+03  0.11263107953E+04  0.85074732768E+02 0.  0.
        254    2    1    2    0    0  0.44024683610E+03  0.10106790857E+04 -0.13269518082E+04  0.19465893556E+04  0.90173140534E+03 0.  0.
         23    2    4    4    0    0 -0.14226403138E+03  0.44263129752E+03 -0.12159843426E+03  0.48952713921E+03  0.93215452804E+02 0.  0.
         23    2    4    4    0    0  0.58251086748E+03  0.56804778815E+03 -0.12053533739E+04  0.14570622164E+04  0.90312491934E+02 0.  0.
          2    1    3    3  502    0 -0.11378793274E+03 -0.29220560185E+03  0.98295871608E+02  0.32862423186E+03  0.00000000000E+00 0. -1.
         -1    1    3    3    0  502 -0.32645890336E+03 -0.71847348381E+03  0.11629398472E+03  0.79768656339E+03  0.00000000000E+00 0.  1.
         11    1    5    5    0    0 -0.71909144190E+02  0.20338639370E+03 -0.90051609756E+01  0.21591211889E+03  0.00000000000E+00 0. -1.
        -11    1    5    5    0    0 -0.70354887185E+02  0.23924490382E+03 -0.11259327328E+03  0.27361502032E+03  0.00000000000E+00 0.  1.
          4    1    6    6  503    0  0.31112885437E+02  0.10470324602E+02 -0.32412639559E+02  0.46132619053E+02  0.00000000000E+00 0. -1.
         -4    1    6    6    0  503  0.55139798204E+03  0.55757746355E+03 -0.11729407343E+04  0.14109295974E+04  0.00000000000E+00 0.  1.
<mgrwt>
<rscale>  0 0.28645010E+04</rscale>
<asrwt>0</asrwt>
<pdfrwt beam="1">  1        2 0.32194324E+00 0.28645010E+04</pdfrwt>
<pdfrwt beam="2">  1       -1 0.15081063E+00 0.28645010E+04</pdfrwt>
<totfact> 0.20080202E+00</totfact>
</mgrwt>
</event>
<event>
12    6  0.1556619E-007  0.2438671E+04  0.7818608E-02  0.8425166E-01
         -1   -1    0    0    0  501 -0.00000000000E+00  0.00000000000E+00  0.87041836124E+03  0.87041836124E+03  0.00000000000E+00 0.  1.
          2   -1    0    0  501    0  0.00000000000E+00 -0.00000000000E+00 -0.17081201989E+04  0.17081201989E+04  0.00000000000E+00 0. -1.
         24    2    1    2    0    0 -0.44193180696E+03  0.93226273685E+03 -0.57884647262E+03  0.11854686467E+04  0.76518892217E+02 0.  0.
        254    2    1    2    0    0  0.44193180696E+03 -0.93226273685E+03 -0.25885536503E+03  0.13930699135E+04  0.89956664636E+03 0.  0.
         23    2    4    4    0    0  0.66562878182E+03 -0.43658327855E+03 -0.25487103962E+03  0.84091732898E+03  0.92282571686E+02 0.  0.
         23    2    4    4    0    0 -0.22369697486E+03 -0.49567945829E+03 -0.39843254059E+01  0.55215258447E+03  0.95488950963E+02 0.  0.
          4    1    3    3  502    0 -0.44293246314E+03  0.93310275391E+03 -0.57677971801E+03  0.11830235667E+04  0.00000000000E+00 0. -1.
         -3    1    3    3    0  502  0.10006561745E+01 -0.84001706736E+00 -0.20667546136E+01  0.24450799754E+01  0.00000000000E+00 0.  1.
         11    1    5    5    0    0  0.63216158458E+03 -0.43582991333E+03 -0.24235117172E+03  0.80517704439E+03  0.00000000000E+00 0.  1.
        -11    1    5    5    0    0  0.33467197241E+02 -0.75336521959E+00 -0.12519867901E+02  0.35740284590E+02  0.00000000000E+00 0. -1.
          2    1    6    6  503    0 -0.29762967935E+02 -0.11682391729E+03 -0.34664871858E+02  0.12544048490E+03  0.00000000000E+00 0. -1.
         -2    1    6    6    0  503 -0.19393400692E+03 -0.37885554100E+03  0.30680546452E+02  0.42671209957E+03  0.00000000000E+00 0.  1.
<mgrwt>
<rscale>  0 0.24386711E+04</rscale>
<asrwt>0</asrwt>
<pdfrwt beam="1">  1        2 0.26278772E+00 0.24386711E+04</pdfrwt>
<pdfrwt beam="2">  1       -1 0.13391052E+00 0.24386711E+04</pdfrwt>
<totfact> 0.46584878E+00</totfact>
</mgrwt>
</event>
<event>
12    6  0.1556619E-007  0.3190134E+04  0.7818608E-02  0.8191428E-01
          2   -1    0    0  501    0  0.00000000000E+00  0.00000000000E+00  0.37906346383E+04  0.37906346383E+04  0.00000000000E+00 0. -1.
         -1   -1    0    0    0  501 -0.00000000000E+00 -0.00000000000E+00 -0.67119078055E+03  0.67119078055E+03  0.00000000000E+00 0.  1.
         24    2    1    2    0    0  0.47458408981E+03  0.13802927633E+04  0.12802846559E+04  0.19431962250E+04  0.80278254140E+02 0.  0.
        254    2    1    2    0    0 -0.47458408981E+03 -0.13802927633E+04  0.18391592018E+04  0.25186291938E+04  0.91134421347E+03 0.  0.
         23    2    4    4    0    0 -0.48186257780E+03 -0.34655539880E+03  0.10690534365E+04  0.12262007872E+04  0.91656598883E+02 0.  0.
         23    2    4    4    0    0  0.72784879967E+01 -0.10337373645E+04  0.77010576537E+03  0.12924284066E+04  0.92964408445E+02 0.  0.
          2    1    3    3  502    0  0.97500470229E+02  0.34058066507E+03  0.27275542003E+03  0.44709847938E+03  0.00000000000E+00 0. -1.
         -1    1    3    3    0  502  0.37708361958E+03  0.10397120982E+04  0.10075292358E+04  0.14960977456E+04  0.00000000000E+00 0.  1.
         11    1    5    5    0    0 -0.47916658006E+03 -0.33811301999E+03  0.10218785435E+04  0.11782006550E+04  0.00000000000E+00 0. -1.
        -11    1    5    5    0    0 -0.26959977452E+01 -0.84423788035E+01  0.47174892986E+02  0.48000132208E+02  0.00000000000E+00 0.  1.
          4    1    6    6  503    0 -0.81479078558E+01 -0.10002812187E+04  0.75152304814E+03  0.12511657751E+04  0.00000000000E+00 0. -1.
         -4    1    6    6    0  503  0.15426395853E+02 -0.33456145813E+02  0.18582717228E+02  0.41262631536E+02  0.00000000000E+00 0.  1.
<mgrwt>
<rscale>  0 0.31901342E+04</rscale>
<asrwt>0</asrwt>
<pdfrwt beam="1">  1        2 0.58317455E+00 0.31901342E+04</pdfrwt>
<pdfrwt beam="2">  1       -1 0.10326012E+00 0.31901342E+04</pdfrwt>
<totfact> 0.42225153E-01</totfact>
</mgrwt>
</event>
<event>
12    6  0.1556619E-007  0.2417610E+04  0.7818608E-02  0.8432940E-01
         -1   -1    0    0    0  501 -0.00000000000E+00  0.00000000000E+00  0.37138972781E+03  0.37138972781E+03  0.00000000000E+00 0.  1.
          2   -1    0    0  501    0  0.00000000000E+00 -0.00000000000E+00 -0.39344369347E+04  0.39344369347E+04  0.00000000000E+00 0. -1.
         24    2    1    2    0    0 -0.70464888752E+03  0.73406164452E+03 -0.11680779457E+04  0.15512419740E+04  0.81049503093E+02 0.  0.
        254    2    1    2    0    0  0.70464888752E+03 -0.73406164452E+03 -0.23949692612E+04  0.27545846886E+04  0.90359420741E+03 0.  0.
         23    2    4    4    0    0 -0.62046810209E+02 -0.22942958596E+03 -0.12904158643E+04  0.13152741646E+04  0.91023534125E+02 0.  0.
         23    2    4    4    0    0  0.76669569773E+03 -0.50463205856E+03 -0.11045533969E+04  0.14393105239E+04  0.95397957053E+02 0.  0.
          4    1    3    3  502    0 -0.21220409595E+03  0.18400573448E+03 -0.28390352827E+03  0.39936186852E+03  0.00000000000E+00 0. -1.
         -3    1    3    3    0  502 -0.49244479156E+03  0.55005591003E+03 -0.88417441745E+03  0.11518801055E+04  0.00000000000E+00 0.  1.
         11    1    5    5    0    0 -0.31311483218E+02 -0.19461072883E+03 -0.11645267605E+04  0.11810911568E+04  0.00000000000E+00 0. -1.
        -11    1    5    5    0    0 -0.30735326991E+02 -0.34818857129E+02 -0.12588910380E+03  0.13418300784E+03  0.00000000000E+00 0.  1.
          2    1    6    6  503    0  0.51407306630E+03 -0.31543809120E+03 -0.65952461765E+03  0.89372536506E+03  0.00000000000E+00 0. -1.
         -2    1    6    6    0  503  0.25262263143E+03 -0.18919396735E+03 -0.44502877928E+03  0.54558515887E+03  0.00000000000E+00 0.  1.
<mgrwt>
<rscale>  0 0.24176099E+04</rscale>
<asrwt>0</asrwt>
<pdfrwt beam="1">  1        2 0.60529798E+00 0.24176099E+04</pdfrwt>
<pdfrwt beam="2">  1       -1 0.57136882E-01 0.24176099E+04</pdfrwt>
<totfact> 0.12281197E+00</totfact>
</mgrwt>
</event>
<event>
12    6  0.1556619E-007  0.1163090E+04  0.7818608E-02  0.9145792E-01
          2   -1    0    0  501    0  0.00000000000E+00  0.00000000000E+00  0.13406397753E+04  0.13406397753E+04  0.00000000000E+00 0. -1.
         -1   -1    0    0    0  501 -0.00000000000E+00 -0.00000000000E+00 -0.25226355148E+03  0.25226355148E+03  0.00000000000E+00 0.  1.
         24    2    1    2    0    0  0.12733651666E+03  0.15119989787E+03  0.10707941702E+03  0.23861674939E+03  0.79974708181E+02 0.  0.
        254    2    1    2    0    0 -0.12733651666E+03 -0.15119989787E+03  0.98129680685E+03  0.13542865774E+04  0.91218019771E+03 0.  0.
         23    2    4    4    0    0  0.29886475483E+02 -0.32268292335E+03  0.10426628580E+04  0.10958499120E+04  0.93400877332E+02 0.  0.
         23    2    4    4    0    0 -0.15722299214E+03  0.17148302548E+03 -0.61366051120E+02  0.25843666540E+03  0.94330379558E+02 0.  0.
          2    1    3    3  502    0  0.65391813913E+02  0.60182743608E+02  0.91271076098E+02  0.12739097804E+03  0.00000000000E+00 0. -1.
         -1    1    3    3    0  502  0.61944702744E+02  0.91017154265E+02  0.15808340921E+02  0.11122577134E+03  0.00000000000E+00 0.  1.
         11    1    5    5    0    0 -0.20605079788E+02 -0.16455312827E+03  0.61894711052E+03  0.64077907812E+03  0.00000000000E+00 0. -1.
        -11    1    5    5    0    0  0.50491555271E+02 -0.15812979508E+03  0.42371574746E+03  0.45507083392E+03  0.00000000000E+00 0.  1.
          1    1    6    6  503    0 -0.63528801244E+01  0.11725103820E+01  0.16688827923E+02  0.17895553747E+02  0.00000000000E+00 0. -1.
         -1    1    6    6    0  503 -0.15087011202E+03  0.17031051509E+03 -0.78054879043E+02  0.24054111165E+03  0.00000000000E+00 0.  1.
<mgrwt>
<rscale>  0 0.11630899E+04</rscale>
<asrwt>0</asrwt>
<pdfrwt beam="1">  1        2 0.20625227E+00 0.11630899E+04</pdfrwt>
<pdfrwt beam="2">  1       -1 0.38809778E-01 0.11630899E+04</pdfrwt>
<totfact> 0.11351461E+02</totfact>
</mgrwt>
</event>
<event>
12    6  0.1556619E-007  0.1184811E+04  0.7818608E-02  0.9126256E-01
          2   -1    0    0  501    0  0.00000000000E+00  0.00000000000E+00  0.10850744266E+04  0.10850744266E+04  0.00000000000E+00 0. -1.
         -1   -1    0    0    0  501 -0.00000000000E+00 -0.00000000000E+00 -0.32342888920E+03  0.32342888920E+03  0.00000000000E+00 0.  1.
         24    2    1    2    0    0 -0.59309380171E+02 -0.35275689825E+02 -0.11106985282E+03  0.15235475185E+03  0.78188754545E+02 0.  0.
        254    2    1    2    0    0  0.59309380171E+02  0.35275689825E+02  0.87271539024E+03  0.12561485640E+04  0.90084132093E+03 0.  0.
         23    2    4    4    0    0 -0.16404820507E+02 -0.66836802521E+00 -0.17561486089E+03  0.20043700933E+03  0.95209508405E+02 0.  0.
         23    2    4    4    0    0  0.75714200677E+02  0.35944057850E+02  0.10483302511E+04  0.10557115546E+04  0.92227738064E+02 0.  0.
          4    1    3    3  502    0 -0.30022654040E+02  0.19995761614E+02 -0.66148152119E+02  0.75344331352E+02  0.00000000000E+00 0. -1.
         -3    1    3    3    0  502 -0.29286726131E+02 -0.55271451440E+02 -0.44921700704E+02  0.77010420502E+02  0.00000000000E+00 0.  1.
         11    1    5    5    0    0 -0.11011660250E+02  0.20462291937E+01 -0.18711411012E+03  0.18744901686E+03  0.00000000000E+00 0.  1.
        -11    1    5    5    0    0 -0.53931602569E+01 -0.27145972189E+01  0.11499249227E+02  0.12987992470E+02  0.00000000000E+00 0. -1.
          1    1    6    6  503    0  0.17864364713E+02  0.32458792909E+01  0.28983315568E+02  0.34200933325E+02  0.00000000000E+00 0. -1.
         -1    1    6    6    0  503  0.57849835964E+02  0.32698178560E+02  0.10193469356E+04  0.10215106213E+04  0.00000000000E+00 0.  1.
<mgrwt>
<rscale>  0 0.11848112E+04</rscale>
<asrwt>0</asrwt>
<pdfrwt beam="1">  1        2 0.16693453E+00 0.11848112E+04</pdfrwt>
<pdfrwt beam="2">  1       -1 0.49758291E-01 0.11848112E+04</pdfrwt>
<totfact> 0.10151476E+02</totfact>
</mgrwt>
</event>
<event>
12    6  0.1556619E-007  0.1604444E+04  0.7818608E-02  0.8817822E-01
          2   -1    0    0  501    0  0.00000000000E+00  0.00000000000E+00  0.10886581808E+04  0.10886581808E+04  0.00000000000E+00 0. -1.
         -1   -1    0    0    0  501 -0.00000000000E+00 -0.00000000000E+00 -0.59114998012E+03  0.59114998012E+03  0.00000000000E+00 0.  1.
         24    2    1    2    0    0  0.26819189118E+03  0.15715938178E+03  0.63774249697E+03  0.71389671777E+03  0.79417060020E+02 0.  0.
        254    2    1    2    0    0 -0.26819189118E+03 -0.15715938178E+03 -0.14023429625E+03  0.96591144320E+03  0.90371084783E+03 0.  0.
         23    2    4    4    0    0  0.10663873925E+03 -0.41103346867E+03  0.97623212130E+02  0.44640468635E+03  0.97090264049E+02 0.  0.
         23    2    4    4    0    0 -0.37483063043E+03  0.25387408689E+03 -0.23785750838E+03  0.51950675685E+03  0.91438627586E+02 0.  0.
          4    1    3    3  502    0  0.14868491744E+03  0.80229860994E+02  0.43176514457E+03  0.46364337085E+03  0.00000000000E+00 0. -1.
         -3    1    3    3    0  502  0.11950697374E+03  0.76929520787E+02  0.20597735240E+03  0.25025334691E+03  0.00000000000E+00 0.  1.
         11    1    5    5    0    0  0.24728563681E+02 -0.18169849954E+03  0.86172726910E+02  0.20261190848E+03  0.00000000000E+00 0. -1.
        -11    1    5    5    0    0  0.81910175567E+02 -0.22933496914E+03  0.11450485221E+02  0.24379277787E+03  0.00000000000E+00 0.  1.
          3    1    6    6  503    0 -0.19516874831E+03  0.15174274533E+03 -0.17707175298E+03  0.30409062264E+03  0.00000000000E+00 0. -1.
         -3    1    6    6    0  503 -0.17966188212E+03  0.10213134157E+03 -0.60785755401E+02  0.21541613421E+03  0.00000000000E+00 0.  1.
<mgrwt>
<rscale>  0 0.16044442E+04</rscale>
<asrwt>0</asrwt>
<pdfrwt beam="1">  1        2 0.16748587E+00 0.16044442E+04</pdfrwt>
<pdfrwt beam="2">  1       -1 0.90946150E-01 0.16044442E+04</pdfrwt>
<totfact> 0.28579667E+01</totfact>
</mgrwt>
</event>
<event>
12    6  0.1556619E-007  0.1396720E+04  0.7818608E-02  0.8956196E-01
         -1   -1    0    0    0  501 -0.00000000000E+00  0.00000000000E+00  0.66621233479E+03  0.66621233479E+03  0.00000000000E+00 0.  1.
          2   -1    0    0  501    0  0.00000000000E+00 -0.00000000000E+00 -0.73205927991E+03  0.73205927991E+03  0.00000000000E+00 0. -1.
         24    2    1    2    0    0  0.29830931907E+03  0.12816490373E+03 -0.25551849763E+03  0.42135386406E+03  0.82672146040E+02 0.  0.
        254    2    1    2    0    0 -0.29830931907E+03 -0.12816490373E+03  0.18967155252E+03  0.97691775065E+03  0.90165309366E+03 0.  0.
         23    2    4    4    0    0  0.99219802273E+02 -0.12578135536E+03 -0.29207960332E+03  0.34509817199E+03  0.90092924896E+02 0.  0.
         23    2    4    4    0    0 -0.39752912134E+03 -0.23835483701E+01  0.48175115583E+03  0.63181957866E+03  0.95271822747E+02 0.  0.
          4    1    3    3  502    0  0.19937679883E+03  0.85858595665E+02 -0.11908459089E+03  0.24759633710E+03  0.00000000000E+00 0. -1.
         -3    1    3    3    0  502  0.98932520246E+02  0.42306308066E+02 -0.13643390674E+03  0.17375752695E+03  0.00000000000E+00 0.  1.
         11    1    5    5    0    0  0.82908736883E+02 -0.33402651224E+02 -0.15654809554E+03  0.18026897120E+03  0.00000000000E+00 0. -1.
        -11    1    5    5    0    0  0.16311065391E+02 -0.92378704137E+02 -0.13553150777E+03  0.16482920078E+03  0.00000000000E+00 0.  1.
          1    1    6    6  503    0 -0.16624102247E+03 -0.26420955437E+02  0.26493744630E+03  0.31388850710E+03  0.00000000000E+00 0. -1.
         -1    1    6    6    0  503 -0.23128809888E+03  0.24037407067E+02  0.21681370953E+03  0.31793107156E+03  0.00000000000E+00 0.  1.
<mgrwt>
<rscale>  0 0.13967203E+04</rscale>
<asrwt>0</asrwt>
<pdfrwt beam="1">  1        2 0.11262450E+00 0.13967203E+04</pdfrwt>
<pdfrwt beam="2">  1       -1 0.10249421E+00 0.13967203E+04</pdfrwt>
<totfact> 0.38757191E+01</totfact>
</mgrwt>
</event>
<event>
12    6  0.1556619E-007  0.2950050E+04  0.7818608E-02  0.8258140E-01
         -1   -1    0    0    0  501 -0.00000000000E+00  0.00000000000E+00  0.62197467923E+03  0.62197467923E+03  0.00000000000E+00 0.  1.
          2   -1    0    0  501    0  0.00000000000E+00 -0.00000000000E+00 -0.34980506891E+04  0.34980506891E+04  0.00000000000E+00 0. -1.
         24    2    1    2    0    0  0.16924192889E+03  0.97144688310E+03 -0.43556831304E+02  0.99019768812E+03  0.79008776946E+02 0.  0.
        254    2    1    2    0    0 -0.16924192889E+03 -0.97144688310E+03 -0.28325191786E+04  0.31298276802E+04  0.89459741431E+03 0.  0.
         23    2    4    4    0    0 -0.19970375021E+03 -0.51239993870E+02 -0.14422160885E+04  0.14599146005E+04  0.94107756257E+02 0.  0.
         23    2    4    4    0    0  0.30461821316E+02 -0.92020688923E+03 -0.13903030900E+04  0.16699130798E+04  0.89209698094E+02 0.  0.
          4    1    3    3  502    0  0.57247512285E+01  0.38831531267E+02 -0.17557298324E+02  0.42999061869E+02  0.00000000000E+00 0. -1.
         -3    1    3    3    0  502  0.16351717766E+03  0.93261535183E+03 -0.25999532980E+02  0.94719862625E+03  0.00000000000E+00 0.  1.
         11    1    5    5    0    0 -0.89098188043E+02 -0.33983225295E+01 -0.35441132501E+03  0.36545509027E+03  0.00000000000E+00 0. -1.
        -11    1    5    5    0    0 -0.11060556217E+03 -0.47841671340E+02 -0.10878047635E+04  0.10944595102E+04  0.00000000000E+00 0.  1.
          3    1    6    6  503    0 -0.22109053673E+02 -0.29961914428E+03 -0.50185922499E+03  0.58491291965E+03  0.00000000000E+00 0. -1.
         -3    1    6    6    0  503  0.52570874989E+02 -0.62058774495E+03 -0.88844386504E+03  0.10850001601E+04  0.00000000000E+00 0.  1.
<mgrwt>
<rscale>  0 0.29500501E+04</rscale>
<asrwt>0</asrwt>
<pdfrwt beam="1">  1        2 0.53816166E+00 0.29500501E+04</pdfrwt>
<pdfrwt beam="2">  1       -1 0.95688410E-01 0.29500501E+04</pdfrwt>
<totfact> 0.83847109E-01</totfact>
</mgrwt>
</event>
<event>
12    6  0.1556619E-007  0.2471135E+04  0.7818608E-02  0.8413341E-01
          2   -1    0    0  501    0  0.00000000000E+00  0.00000000000E+00  0.18176314303E+04  0.18176314303E+04  0.00000000000E+00 0. -1.
         -1   -1    0    0    0  501 -0.00000000000E+00 -0.00000000000E+00 -0.83989944697E+03  0.83989944697E+03  0.00000000000E+00 0.  1.
         24    2    1    2    0    0  0.68229531794E+03 -0.24497611496E+03 -0.41846316405E+03  0.84095152565E+03  0.80918792845E+02 0.  0.
        254    2    1    2    0    0 -0.68229531794E+03  0.24497611496E+03  0.13961951474E+04  0.18165793516E+04  0.90832783363E+03 0.  0.
         23    2    4    4    0    0  0.13697188533E+03  0.15463638454E+03  0.41083963286E+02  0.22786040011E+03  0.86941135859E+02 0.  0.
         23    2    4    4    0    0 -0.81926720327E+03  0.90339730427E+02  0.13551111841E+04  0.15887189515E+04  0.91332186931E+02 0.  0.
          2    1    3    3  502    0  0.11817667333E+03 -0.47232360590E+02 -0.39829961630E+02  0.13335309464E+03  0.00000000000E+00 0. -1.
         -1    1    3    3    0  502  0.56411864461E+03 -0.19774375437E+03 -0.37863320242E+03  0.70759843101E+03  0.00000000000E+00 0.  1.
         11    1    5    5    0    0  0.10525195279E+03  0.54738732732E+02  0.12965594003E+02  0.11934156466E+03  0.00000000000E+00 0. -1.
        -11    1    5    5    0    0  0.31719932542E+02  0.99897651803E+02  0.28118369282E+02  0.10851883545E+03  0.00000000000E+00 0.  1.
          1    1    6    6  503    0 -0.45096220256E+03  0.94674152886E+02  0.76831662726E+03  0.89590208343E+03  0.00000000000E+00 0. -1.
         -1    1    6    6    0  503 -0.36830500071E+03 -0.43344224594E+01  0.58679455682E+03  0.69281686807E+03  0.00000000000E+00 0.  1.
<mgrwt>
<rscale>  0 0.24711355E+04</rscale>
<asrwt>0</asrwt>
<pdfrwt beam="1">  1        2 0.27963560E+00 0.24711355E+04</pdfrwt>
<pdfrwt beam="2">  1       -1 0.12921530E+00 0.24711355E+04</pdfrwt>
<totfact> 0.44209464E+00</totfact>
</mgrwt>
</event>
<event>
12    6  0.1556619E-007  0.2746760E+04  0.7818608E-02  0.8319991E-01
         -1   -1    0    0    0  501 -0.00000000000E+00  0.00000000000E+00  0.65386875174E+03  0.65386875174E+03  0.00000000000E+00 0.  1.
          2   -1    0    0  501    0  0.00000000000E+00 -0.00000000000E+00 -0.28846344574E+04  0.28846344574E+04  0.00000000000E+00 0. -1.
         24    2    1    2    0    0  0.96997113377E+02  0.72451152874E+03 -0.22570862511E+04  0.23737888797E+04  0.78165883274E+02 0.  0.
        254    2    1    2    0    0 -0.96997113377E+02 -0.72451152874E+03  0.26320545398E+02  0.11647143295E+04  0.90638915640E+03 0.  0.
         23    2    4    4    0    0 -0.48493904818E+03 -0.38396926740E+03 -0.77413698719E+02  0.63020085801E+03  0.92530870130E+02 0.  0.
         23    2    4    4    0    0  0.38794193480E+03 -0.34054226134E+03  0.10373424412E+03  0.53451347145E+03  0.92064549214E+02 0.  0.
          4    1    3    3  502    0  0.54233051278E+02  0.42584876892E+03 -0.14472558066E+04  0.15095819844E+04  0.00000000000E+00 0. -1.
         -3    1    3    3    0  502  0.42764062100E+02  0.29866275982E+03 -0.80983044451E+03  0.86420689535E+03  0.00000000000E+00 0.  1.
         11    1    5    5    0    0 -0.41522799192E+03 -0.35505572131E+03 -0.45377592381E+02  0.54821344055E+03  0.00000000000E+00 0. -1.
        -11    1    5    5    0    0 -0.69711056259E+02 -0.28913546094E+02 -0.32036106338E+02  0.81987417460E+02  0.00000000000E+00 0.  1.
          3    1    6    6  503    0  0.29606776044E+03 -0.20926814782E+03  0.52808993872E+02  0.36638513384E+03  0.00000000000E+00 0. -1.
         -3    1    6    6    0  503  0.91874174358E+02 -0.13127411352E+03  0.50925250245E+02  0.16812833761E+03  0.00000000000E+00 0.  1.
<mgrwt>
<rscale>  0 0.27467598E+04</rscale>
<asrwt>0</asrwt>
<pdfrwt beam="1">  1        2 0.44378992E+00 0.27467598E+04</pdfrwt>
<pdfrwt beam="2">  1       -1 0.10059519E+00 0.27467598E+04</pdfrwt>
<totfact> 0.19171557E+00</totfact>
</mgrwt>
</event>
<event>
12    6  0.1556619E-007  0.1276517E+04  0.7818608E-02  0.9048397E-01
         -1   -1    0    0    0  501 -0.00000000000E+00  0.00000000000E+00  0.45890468661E+03  0.45890468661E+03  0.00000000000E+00 0.  1.
          2   -1    0    0  501    0  0.00000000000E+00 -0.00000000000E+00 -0.88770919235E+03  0.88770919235E+03  0.00000000000E+00 0. -1.
         24    2    1    2    0    0 -0.78959834146E+02  0.24728248398E+03 -0.31020871217E+03  0.41222763487E+03  0.79491481006E+02 0.  0.
        254    2    1    2    0    0  0.78959834146E+02 -0.24728248398E+03 -0.11859579357E+03  0.93438624410E+03  0.88973558354E+03 0.  0.
         23    2    4    4    0    0  0.11069054204E+03  0.26005288377E+02 -0.46221476972E+03  0.48494518589E+03  0.92739791053E+02 0.  0.
         23    2    4    4    0    0 -0.31730707891E+02 -0.27328777236E+03  0.34361897615E+03  0.44944105821E+03  0.90720558254E+02 0.  0.
          2    1    3    3  502    0 -0.56609163518E+02  0.22442501421E+03 -0.29950132088E+03  0.37851317758E+03  0.00000000000E+00 0. -1.
         -1    1    3    3    0  502 -0.22350670628E+02  0.22857469765E+02 -0.10707391292E+02  0.33714457283E+02  0.00000000000E+00 0.  1.
         11    1    5    5    0    0  0.25751361252E+02  0.21732099838E+02 -0.32222335262E+02  0.46622909170E+02  0.00000000000E+00 0. -1.
        -11    1    5    5    0    0  0.84939180786E+02  0.42731885381E+01 -0.42999243446E+03  0.43832227672E+03  0.00000000000E+00 0.  1.
          4    1    6    6  503    0 -0.46375883443E+02 -0.26310226629E+03  0.29674983696E+03  0.39929186171E+03  0.00000000000E+00 0.  1.
         -4    1    6    6    0  503  0.14645175552E+02 -0.10185506064E+02  0.46869139196E+02  0.50149196501E+02  0.00000000000E+00 0. -1.
<mgrwt>
<rscale>  0 0.12765170E+04</rscale>
<asrwt>0</asrwt>
<pdfrwt beam="1">  1        2 0.13657064E+00 0.12765170E+04</pdfrwt>
<pdfrwt beam="2">  1       -1 0.70600722E-01 0.12765170E+04</pdfrwt>
<totfact> 0.67912410E+01</totfact>
</mgrwt>
</event>
<event>
12    6  0.1556619E-007  0.1743498E+04  0.7818608E-02  0.8736937E-01
          2   -1    0    0  501    0  0.00000000000E+00  0.00000000000E+00  0.15797517894E+04  0.15797517894E+04  0.00000000000E+00 0. -1.
         -1   -1    0    0    0  501 -0.00000000000E+00 -0.00000000000E+00 -0.48105446741E+03  0.48105446741E+03  0.00000000000E+00 0.  1.
         24    2    1    2    0    0 -0.14672536588E+03  0.17120173926E+03 -0.29090291391E+03  0.37670122569E+03  0.80255464611E+02 0.  0.
        254    2    1    2    0    0  0.14672536588E+03 -0.17120173926E+03  0.13896002359E+04  0.16841050311E+04  0.92432817319E+03 0.  0.
         23    2    4    4    0    0  0.47174964197E+03  0.12617074091E+03  0.63895299713E+03  0.80902043210E+03  0.88240276778E+02 0.  0.
         23    2    4    4    0    0 -0.32502427609E+03 -0.29737248017E+03  0.75064723877E+03  0.87508459904E+03  0.90722689435E+02 0.  0.
          4    1    3    3  502    0 -0.12520483880E+03  0.11799910698E+03 -0.16520689426E+03  0.23852328779E+03  0.00000000000E+00 0. -1.
         -3    1    3    3    0  502 -0.21520527072E+02  0.53202632281E+02 -0.12569601964E+03  0.13817793790E+03  0.00000000000E+00 0.  1.
         11    1    5    5    0    0  0.11414351596E+03  0.68954134421E+02  0.19185557020E+03  0.23364925574E+03  0.00000000000E+00 0.  1.
        -11    1    5    5    0    0  0.35760612601E+03  0.57216606492E+02  0.44709742693E+03  0.57537117636E+03  0.00000000000E+00 0. -1.
          3    1    6    6  503    0 -0.11771797212E+03 -0.54408603361E+02  0.19498777357E+03  0.23417525259E+03  0.00000000000E+00 0. -1.
         -3    1    6    6    0  503 -0.20730630397E+03 -0.24296387681E+03  0.55565946520E+03  0.64090934645E+03  0.00000000000E+00 0.  1.
<mgrwt>
<rscale>  0 0.17434984E+04</rscale>
<asrwt>0</asrwt>
<pdfrwt beam="1">  1        2 0.24303873E+00 0.17434984E+04</pdfrwt>
<pdfrwt beam="2">  1       -1 0.74008380E-01 0.17434984E+04</pdfrwt>
<totfact> 0.22736105E+01</totfact>
</mgrwt>
</event>
<event>
12    6  0.1556619E-007  0.1779489E+04  0.7818608E-02  0.8717283E-01
         -1   -1    0    0    0  501 -0.00000000000E+00  0.00000000000E+00  0.22634855737E+03  0.22634855737E+03  0.00000000000E+00 0.  1.
          2   -1    0    0  501    0  0.00000000000E+00 -0.00000000000E+00 -0.34974627219E+04  0.34974627219E+04  0.00000000000E+00 0. -1.
         24    2    1    2    0    0  0.29429610821E+02 -0.56417883343E+03 -0.52122705674E+03  0.77258013572E+03  0.77708193588E+02 0.  0.
        254    2    1    2    0    0 -0.29429610821E+02  0.56417883343E+03 -0.27498871078E+04  0.29512311435E+04  0.91034185827E+03 0.  0.
         23    2    4    4    0    0 -0.15579082035E+03  0.77364171387E+03 -0.18355767708E+04  0.20002393601E+04  0.93931542934E+02 0.  0.
         23    2    4    4    0    0  0.12636120953E+03 -0.20946288044E+03 -0.91431033696E+03  0.95099178349E+03  0.92628971863E+02 0.  0.
          2    1    3    3  502    0  0.23529957056E+02 -0.44102341152E+02 -0.51143832433E+02  0.71514802454E+02  0.00000000000E+00 0. -1.
         -1    1    3    3    0  502  0.58996537653E+01 -0.52007649228E+03 -0.47008322430E+03  0.70106533327E+03  0.00000000000E+00 0.  1.
         11    1    5    5    0    0 -0.55498801244E+02  0.11980281126E+03 -0.26594363533E+03  0.29691555651E+03  0.00000000000E+00 0.  1.
        -11    1    5    5    0    0 -0.10029201911E+03  0.65383890261E+03 -0.15696331355E+04  0.17033238035E+04  0.00000000000E+00 0. -1.
          1    1    6    6  503    0  0.82910750014E+02 -0.17261136119E+03 -0.55297703332E+03  0.58519438981E+03  0.00000000000E+00 0. -1.
         -1    1    6    6    0  503  0.43450459516E+02 -0.36851519244E+02 -0.36133330364E+03  0.36579739368E+03  0.00000000000E+00 0.  1.
<mgrwt>
<rscale>  0 0.17794894E+04</rscale>
<asrwt>0</asrwt>
<pdfrwt beam="1">  1        2 0.53807123E+00 0.17794894E+04</pdfrwt>
<pdfrwt beam="2">  1       -1 0.34822852E-01 0.17794894E+04</pdfrwt>
<totfact> 0.69407608E+00</totfact>
</mgrwt>
</event>
<event>
12    6  0.1556619E-007  0.2757566E+04  0.7818608E-02  0.8316565E-01
          2   -1    0    0  501    0  0.00000000000E+00  0.00000000000E+00  0.18479139744E+04  0.18479139744E+04  0.00000000000E+00 0. -1.
         -1   -1    0    0    0  501 -0.00000000000E+00 -0.00000000000E+00 -0.10287503244E+04  0.10287503244E+04  0.00000000000E+00 0.  1.
         24    2    1    2    0    0 -0.75005245376E+03  0.72946622369E+03  0.90965575251E+03  0.13887310011E+04  0.80003439669E+02 0.  0.
        254    2    1    2    0    0  0.75005245376E+03 -0.72946622369E+03 -0.90492102534E+02  0.14879332977E+04  0.10540668967E+04 0.  0.
         23    2    4    4    0    0  0.37843815162E+03 -0.16250845653E+03  0.44944835182E+03  0.61647486352E+03  0.91722425606E+02 0.  0.
         23    2    4    4    0    0  0.37161430215E+03 -0.56695776716E+03 -0.53994045436E+03  0.87145843413E+03  0.91464795765E+02 0.  0.
          2    1    3    3  502    0 -0.69719272194E+03  0.67135529503E+03  0.86659685147E+03  0.12991480773E+04  0.00000000000E+00 0. -1.
         -1    1    3    3    0  502 -0.52859731824E+02  0.58110928660E+02  0.43058901037E+02  0.89582923801E+02  0.00000000000E+00 0.  1.
         11    1    5    5    0    0  0.80467564657E+02  0.36483932537E+01  0.78027245988E+02  0.11214540049E+03  0.00000000000E+00 0. -1.
        -11    1    5    5    0    0  0.29797058696E+03 -0.16615684978E+03  0.37142110584E+03  0.50432946303E+03  0.00000000000E+00 0.  1.
          1    1    6    6  503    0  0.54211143311E+02 -0.15013537700E+03 -0.11222288387E+03  0.19512420442E+03  0.00000000000E+00 0. -1.
         -1    1    6    6    0  503  0.31740315883E+03 -0.41682239016E+03 -0.42771757048E+03  0.67633422971E+03  0.00000000000E+00 0.  1.
<mgrwt>
<rscale>  0 0.27575657E+04</rscale>
<asrwt>0</asrwt>
<pdfrwt beam="1">  1        2 0.28429446E+00 0.27575657E+04</pdfrwt>
<pdfrwt beam="2">  1       -1 0.15826928E+00 0.27575657E+04</pdfrwt>
<totfact> 0.24294430E+00</totfact>
</mgrwt>
</event>
<event>
12    6  0.1556619E-007  0.1811318E+04  0.7818608E-02  0.8700304E-01
         -1   -1    0    0    0  501 -0.00000000000E+00  0.00000000000E+00  0.22472801851E+03  0.22472801851E+03  0.00000000000E+00 0.  1.
          2   -1    0    0  501    0  0.00000000000E+00 -0.00000000000E+00 -0.36498245028E+04  0.36498245028E+04  0.00000000000E+00 0. -1.
         24    2    1    2    0    0 -0.17823982771E+03 -0.63759428855E+03 -0.16326151562E+04  0.17635276347E+04  0.79382346315E+02 0.  0.
        254    2    1    2    0    0  0.17823982771E+03  0.63759428855E+03 -0.17924813281E+04  0.21110248867E+04  0.89729641011E+03 0.  0.
         23    2    4    4    0    0 -0.79315743522E+02 -0.32449759460E+02  0.48238497640E+02  0.13322114660E+03  0.89871837564E+02 0.  0.
         23    2    4    4    0    0  0.25755557123E+03  0.67004404801E+03 -0.18407198257E+04  0.19778037401E+04  0.90356288289E+02 0.  0.
          2    1    3    3  502    0 -0.15141718207E+03 -0.48965153528E+03 -0.11771710455E+04  0.12839071070E+04  0.00000000000E+00 0. -1.
         -1    1    3    3    0  502 -0.26822645643E+02 -0.14794275327E+03 -0.45544411078E+03  0.47962052772E+03  0.00000000000E+00 0.  1.
         11    1    5    5    0    0 -0.11429095387E+02 -0.42659349018E+02 -0.74955251593E+01  0.44795392368E+02  0.00000000000E+00 0.  1.
        -11    1    5    5    0    0 -0.67886648136E+02  0.10209589558E+02  0.55734022799E+02  0.88425754232E+02  0.00000000000E+00 0. -1.
          1    1    6    6  503    0  0.23605449441E+03  0.61860335717E+03 -0.17529128812E+04  0.18737917192E+04  0.00000000000E+00 0. -1.
         -1    1    6    6    0  503  0.21501076820E+02  0.51440690841E+02 -0.87806944533E+02  0.10401202088E+03  0.00000000000E+00 0.  1.
<mgrwt>
<rscale>  0 0.18113176E+04</rscale>
<asrwt>0</asrwt>
<pdfrwt beam="1">  1        2 0.56151144E+00 0.18113176E+04</pdfrwt>
<pdfrwt beam="2">  1       -1 0.34573542E-01 0.18113176E+04</pdfrwt>
<totfact> 0.54646940E+00</totfact>
</mgrwt>
</event>
<event>
12    6  0.1556619E-007  0.1220118E+04  0.7818608E-02  0.9095428E-01
         -3   -1    0    0    0  501 -0.00000000000E+00  0.00000000000E+00  0.13783892660E+04  0.13783892660E+04  0.00000000000E+00 0.  1.
          4   -1    0    0  501    0  0.00000000000E+00 -0.00000000000E+00 -0.27000487483E+03  0.27000487483E+03  0.00000000000E+00 0. -1.
         24    2    1    2    0    0 -0.84767537516E+02 -0.25308165616E+03  0.19603712603E+03  0.34048818306E+03  0.79156730081E+02 0.  0.
        254    2    1    2    0    0  0.84767537516E+02  0.25308165616E+03  0.91234726509E+03  0.13079059577E+04  0.89833434869E+03 0.  0.
         23    2    4    4    0    0 -0.22181875500E+03 -0.22942629262E+03  0.19446600788E+03  0.38558889464E+03  0.94983070248E+02 0.  0.
         23    2    4    4    0    0  0.30658629252E+03  0.48250794879E+03  0.71788125721E+03  0.92231706308E+03  0.92229008473E+02 0.  0.
          4    1    3    3  502    0 -0.63435791204E+02 -0.92154827550E+02  0.51619283028E+02  0.12321185912E+03  0.00000000000E+00 0. -1.
         -3    1    3    3    0  502 -0.21331746312E+02 -0.16092682861E+03  0.14441784301E+03  0.21727632395E+03  0.00000000000E+00 0.  1.
         11    1    5    5    0    0 -0.53059304936E+02 -0.62192104537E+02  0.10182258306E+03  0.13057942460E+03  0.00000000000E+00 0. -1.
        -11    1    5    5    0    0 -0.16875945007E+03 -0.16723418808E+03  0.92643424825E+02  0.25500947005E+03  0.00000000000E+00 0.  1.
          4    1    6    6  503    0  0.26177215269E+03  0.39195978006E+03  0.63959083627E+03  0.79450208744E+03  0.00000000000E+00 0.  1.
         -4    1    6    6    0  503  0.44814139825E+02  0.90548168721E+02  0.78290420939E+02  0.12781497564E+03  0.00000000000E+00 0. -1.
<mgrwt>
<rscale>  0 0.12201177E+04</rscale>
<asrwt>0</asrwt>
<pdfrwt beam="1">  1        4 0.41539212E-01 0.12201177E+04</pdfrwt>
<pdfrwt beam="2">  1       -3 0.21205988E+00 0.12201177E+04</pdfrwt>
<totfact> 0.15719640E+00</totfact>
</mgrwt>
</event>
<event>
12    6  0.1556619E-007  0.3342599E+04  0.7818608E-02  0.8152140E-01
          2   -1    0    0  501    0  0.00000000000E+00  0.00000000000E+00  0.24102679247E+04  0.24102679247E+04  0.00000000000E+00 0. -1.
         -1   -1    0    0    0  501 -0.00000000000E+00 -0.00000000000E+00 -0.11588928070E+04  0.11588928070E+04  0.00000000000E+00 0.  1.
         24    2    1    2    0    0  0.14251202382E+03 -0.14611863529E+04  0.10984787123E+04  0.18351950832E+04  0.76878326588E+02 0.  0.
        254    2    1    2    0    0 -0.14251202382E+03  0.14611863529E+04  0.15289640538E+03  0.17339656484E+04  0.90988148917E+03 0.  0.
         23    2    4    4    0    0 -0.24283149024E+03  0.14131892996E+04 -0.10299680609E+03  0.14406059359E+04  0.93091307383E+02 0.  0.
         23    2    4    4    0    0  0.10031946642E+03  0.47997053336E+02  0.25589321147E+03  0.29335971251E+03  0.90613866333E+02 0.  0.
          2    1    3    3  502    0  0.11419468764E+03 -0.13615279552E+04  0.10127985576E+04  0.17007526915E+04  0.00000000000E+00 0. -1.
         -1    1    3    3    0  502  0.28317336178E+02 -0.99658397686E+02  0.85680154764E+02  0.13444239167E+03  0.00000000000E+00 0.  1.
         11    1    5    5    0    0 -0.21193629683E+02  0.26705037364E+03 -0.46267935847E+02  0.27185620075E+03  0.00000000000E+00 0.  1.
        -11    1    5    5    0    0 -0.22163786056E+03  0.11461389259E+04 -0.56728870240E+02  0.11687497352E+04  0.00000000000E+00 0. -1.
          4    1    6    6  503    0 -0.60524057462E+01  0.29966201892E+02  0.29076409176E+02  0.42190549199E+02  0.00000000000E+00 0.  1.
         -4    1    6    6    0  503  0.10637187217E+03  0.18030851444E+02  0.22681680229E+03  0.25116916331E+03  0.00000000000E+00 0. -1.
<mgrwt>
<rscale>  0 0.33425991E+04</rscale>
<asrwt>0</asrwt>
<pdfrwt beam="1">  1        2 0.37081045E+00 0.33425991E+04</pdfrwt>
<pdfrwt beam="2">  1       -1 0.17829120E+00 0.33425991E+04</pdfrwt>
<totfact> 0.79423382E-01</totfact>
</mgrwt>
</event>
<event>
12    6  0.1556619E-007  0.1868270E+04  0.7818608E-02  0.8670814E-01
          2   -1    0    0  501    0  0.00000000000E+00  0.00000000000E+00  0.37721473968E+03  0.37721473968E+03  0.00000000000E+00 0. -1.
         -1   -1    0    0    0  501 -0.00000000000E+00 -0.00000000000E+00 -0.23132922551E+04  0.23132922551E+04  0.00000000000E+00 0.  1.
         24    2    1    2    0    0 -0.35264041238E+03 -0.62512981170E+03 -0.70385307558E+03  0.10086494793E+04  0.82595872690E+02 0.  0.
        254    2    1    2    0    0  0.35264041238E+03  0.62512981170E+03 -0.12322244399E+04  0.16818575155E+04  0.89169786943E+03 0.  0.
         23    2    4    4    0    0 -0.22734272024E+03  0.46876639508E+03 -0.47275555767E+03  0.70929150122E+03  0.90387890727E+02 0.  0.
         23    2    4    4    0    0  0.57998313261E+03  0.15636341662E+03 -0.75946888222E+03  0.97256601431E+03  0.90893987394E+02 0.  0.
          4    1    3    3  502    0 -0.37816443185E+02 -0.96940312148E+02 -0.13945548966E+03  0.17399810657E+03  0.00000000000E+00 0. -1.
         -3    1    3    3    0  502 -0.31482396919E+03 -0.52818949955E+03 -0.56439758592E+03  0.83465137273E+03  0.00000000000E+00 0.  1.
         11    1    5    5    0    0 -0.81402737147E+02  0.11587017372E+03 -0.17457334021E+03  0.22478468339E+03  0.00000000000E+00 0. -1.
        -11    1    5    5    0    0 -0.14593998309E+03  0.35289622136E+03 -0.29818221745E+03  0.48450681783E+03  0.00000000000E+00 0.  1.
          2    1    6    6  503    0  0.20316881708E+03  0.53419294813E+02 -0.19871645400E+03  0.28917022388E+03  0.00000000000E+00 0. -1.
         -2    1    6    6    0  503  0.37681431554E+03  0.10294412180E+03 -0.56075242822E+03  0.68339579042E+03  0.00000000000E+00 0.  1.
<mgrwt>
<rscale>  0 0.18682697E+04</rscale>
<asrwt>0</asrwt>
<pdfrwt beam="1">  1        2 0.58033036E-01 0.18682697E+04</pdfrwt>
<pdfrwt beam="2">  1       -1 0.35589112E+00 0.18682697E+04</pdfrwt>
<totfact> 0.12978856E+00</totfact>
</mgrwt>
</event>
<event>
12    6  0.1556619E-007  0.1773748E+04  0.7818608E-02  0.8720386E-01
          2   -1    0    0  501    0  0.00000000000E+00  0.00000000000E+00  0.23592790810E+04  0.23592790810E+04  0.00000000000E+00 0. -1.
         -1   -1    0    0    0  501 -0.00000000000E+00 -0.00000000000E+00 -0.33338367281E+03  0.33338367281E+03  0.00000000000E+00 0.  1.
         24    2    1    2    0    0 -0.35208971521E+03  0.85972024150E+02  0.16074872092E+04  0.16498091534E+04  0.80602472811E+02 0.  0.
        254    2    1    2    0    0  0.35208971521E+03 -0.85972024150E+02  0.41840819901E+03  0.10428536004E+04  0.88380985189E+03 0.  0.
         23    2    4    4    0    0  0.42740176304E+03 -0.12542561821E+03  0.64251017384E+03  0.78726119927E+03  0.92504160092E+02 0.  0.
         23    2    4    4    0    0 -0.75312047832E+02  0.39453594057E+02 -0.22410197483E+03  0.25559240109E+03  0.88754097041E+02 0.  0.
          2    1    3    3  502    0 -0.10301314246E+03  0.24598577247E+02  0.64913362540E+03  0.65771670280E+03  0.00000000000E+00 0. -1.
         -1    1    3    3    0  502 -0.24907657275E+03  0.61373446902E+02  0.95835358377E+03  0.99209245063E+03  0.00000000000E+00 0.  1.
         11    1    5    5    0    0  0.26710374376E+03 -0.52034896548E+02  0.32311799011E+03  0.42244203853E+03  0.00000000000E+00 0. -1.
        -11    1    5    5    0    0  0.16029801928E+03 -0.73390721659E+02  0.31939218373E+03  0.36481916074E+03  0.00000000000E+00 0.  1.
          4    1    6    6  503    0 -0.95600861387E+02  0.32912380826E+02 -0.17592092485E+03  0.20290618844E+03  0.00000000000E+00 0. -1.
         -4    1    6    6    0  503  0.20288813555E+02  0.65412132310E+01 -0.48181049980E+02  0.52686212648E+02  0.00000000000E+00 0.  1.
<mgrwt>
<rscale>  0 0.17737476E+04</rscale>
<asrwt>0</asrwt>
<pdfrwt beam="1">  1        2 0.36296600E+00 0.17737476E+04</pdfrwt>
<pdfrwt beam="2">  1       -1 0.51289798E-01 0.17737476E+04</pdfrwt>
<totfact> 0.17288836E+01</totfact>
</mgrwt>
</event>
<event>
12    6  0.1556619E-007  0.1595843E+04  0.7818608E-02  0.8823106E-01
         -1   -1    0    0    0  501 -0.00000000000E+00  0.00000000000E+00  0.28078518374E+03  0.28078518374E+03  0.00000000000E+00 0.  1.
          2   -1    0    0  501    0  0.00000000000E+00 -0.00000000000E+00 -0.22674953931E+04  0.22674953931E+04  0.00000000000E+00 0. -1.
         24    2    1    2    0    0 -0.43751781485E+03  0.25027664314E+03 -0.36386160437E+03  0.62672987809E+03  0.79591686438E+02 0.  0.
        254    2    1    2    0    0  0.43751781485E+03 -0.25027664314E+03 -0.16228486050E+04  0.19215506988E+04  0.89702801337E+03 0.  0.
         23    2    4    4    0    0  0.37942847540E+03 -0.53599487332E+03 -0.13804848769E+04  0.15312999200E+04  0.88794580843E+02 0.  0.
         23    2    4    4    0    0  0.58089339451E+02  0.28571823019E+03 -0.24236372813E+03  0.39025077875E+03  0.92445741853E+02 0.  0.
          4    1    3    3  502    0  0.14370997763E+01 -0.27184005893E+01 -0.49930349180E+01  0.58639027297E+01  0.00000000000E+00 0. -1.
         -3    1    3    3    0  502 -0.43895491462E+03  0.25299504373E+03 -0.35886856946E+03  0.62086597536E+03  0.00000000000E+00 0.  1.
         11    1    5    5    0    0  0.29238532510E+03 -0.35282917567E+03 -0.90584878729E+03  0.10151549788E+04  0.00000000000E+00 0.  1.
        -11    1    5    5    0    0  0.87043150297E+02 -0.18316569766E+03 -0.47463608959E+03  0.51614494123E+03  0.00000000000E+00 0. -1.
          1    1    6    6  503    0  0.51379321738E+02  0.72086279650E+02 -0.44893395046E+02  0.99255646363E+02  0.00000000000E+00 0. -1.
         -1    1    6    6    0  503  0.67100177123E+01  0.21363195053E+03 -0.19747033308E+03  0.29099513239E+03  0.00000000000E+00 0.  1.
<mgrwt>
<rscale>  0 0.15958435E+04</rscale>
<asrwt>0</asrwt>
<pdfrwt beam="1">  1        2 0.34884545E+00 0.15958435E+04</pdfrwt>
<pdfrwt beam="2">  1       -1 0.43197721E-01 0.15958435E+04</pdfrwt>
<totfact> 0.27338719E+01</totfact>
</mgrwt>
</event>
<event>
12    6  0.1556619E-007  0.1849410E+04  0.7818608E-02  0.8680456E-01
         -1   -1    0    0    0  501 -0.00000000000E+00  0.00000000000E+00  0.25097319420E+03  0.25097319420E+03  0.00000000000E+00 0.  1.
          2   -1    0    0  501    0  0.00000000000E+00 -0.00000000000E+00 -0.34070558921E+04  0.34070558921E+04  0.00000000000E+00 0. -1.
         24    2    1    2    0    0 -0.44716786866E+03 -0.13019243981E+03 -0.22406441316E+04  0.22898956614E+04  0.78910337938E+02 0.  0.
        254    2    1    2    0    0  0.44716786866E+03  0.13019243981E+03 -0.91543856631E+03  0.13681334249E+04  0.90379871961E+03 0.  0.
         23    2    4    4    0    0  0.68801057639E+03  0.92011290627E+02 -0.84802079497E+03  0.10997416660E+04  0.92020826046E+02 0.  0.
         23    2    4    4    0    0 -0.24084270773E+03  0.38181149185E+02 -0.67417771340E+02  0.26839175892E+03  0.89587780109E+02 0.  0.
          4    1    3    3  502    0 -0.37648568771E+03 -0.11302520269E+03 -0.20091930038E+04  0.20472842246E+04  0.00000000000E+00 0. -1.
         -3    1    3    3    0  502 -0.70682180950E+02 -0.17167237120E+02 -0.23145112774E+03  0.24261143680E+03  0.00000000000E+00 0.  1.
         11    1    5    5    0    0  0.56974737121E+03  0.40417591349E+02 -0.69282221243E+03  0.89791328464E+03  0.00000000000E+00 0. -1.
        -11    1    5    5    0    0  0.11826320518E+03  0.51593699278E+02 -0.15519858254E+03  0.20182838137E+03  0.00000000000E+00 0.  1.
          3    1    6    6  503    0 -0.23879769867E+03  0.39744062112E+02 -0.80455824069E+02  0.25510207955E+03  0.00000000000E+00 0. -1.
         -3    1    6    6    0  503 -0.20450090580E+01 -0.15629129271E+01  0.13038052728E+02  0.13289679372E+02  0.00000000000E+00 0.  1.
<mgrwt>
<rscale>  0 0.18494104E+04</rscale>
<asrwt>0</asrwt>
<pdfrwt beam="1">  1        2 0.52416241E+00 0.18494104E+04</pdfrwt>
<pdfrwt beam="2">  1       -1 0.38611263E-01 0.18494104E+04</pdfrwt>
<totfact> 0.66012392E+00</totfact>
</mgrwt>
</event>
<event>
12    6  0.1556619E-007  0.1602275E+04  0.7818608E-02  0.8819152E-01
          2   -1    0    0  501    0  0.00000000000E+00  0.00000000000E+00  0.98451316904E+03  0.98451316904E+03  0.00000000000E+00 0. -1.
         -1   -1    0    0    0  501 -0.00000000000E+00 -0.00000000000E+00 -0.65191710165E+03  0.65191710165E+03  0.00000000000E+00 0.  1.
         24    2    1    2    0    0  0.18085832761E+03  0.52210936513E+03  0.10376074050E+03  0.56783579372E+03  0.79770129345E+02 0.  0.
        254    2    1    2    0    0 -0.18085832761E+03 -0.52210936513E+03  0.22883532688E+03  0.10685944770E+04  0.88556232167E+03 0.  0.
         23    2    4    4    0    0 -0.18533521865E+03 -0.64744190296E+03  0.43766404315E+03  0.80844256906E+03  0.92192254637E+02 0.  0.
         23    2    4    4    0    0  0.44768910405E+01  0.12533253783E+03 -0.20882871627E+03  0.26015190791E+03  0.91330689566E+02 0.  0.
          2    1    3    3  502    0  0.18160171318E+03  0.52243749429E+03  0.10797728262E+03  0.56354166770E+03  0.00000000000E+00 0. -1.
         -1    1    3    3    0  502 -0.74338557918E+00 -0.32812915849E+00 -0.42165421147E+01  0.42941260192E+01  0.00000000000E+00 0.  1.
         11    1    5    5    0    0  0.81664847477E+01 -0.51698001801E+02  0.46077566953E+02  0.69731750585E+02  0.00000000000E+00 0. -1.
        -11    1    5    5    0    0 -0.19350170339E+03 -0.59574390116E+03  0.39158647620E+03  0.73871081847E+03  0.00000000000E+00 0.  1.
          4    1    6    6  503    0 -0.43753755015E+01  0.19225588357E+02  0.58094242093E+01  0.20555207810E+02  0.00000000000E+00 0. -1.
         -4    1    6    6    0  503  0.88522665420E+01  0.10610694948E+03 -0.21463814048E+03  0.23959670010E+03  0.00000000000E+00 0.  1.
<mgrwt>
<rscale>  0 0.16022746E+04</rscale>
<asrwt>0</asrwt>
<pdfrwt beam="1">  1        2 0.15146356E+00 0.16022746E+04</pdfrwt>
<pdfrwt beam="2">  1       -1 0.10029494E+00 0.16022746E+04</pdfrwt>
<totfact> 0.26699906E+01</totfact>
</mgrwt>
</event>
<event>
12    6  0.1556619E-007  0.1305397E+04  0.7818608E-02  0.9025296E-01
         -1   -1    0    0    0  501 -0.00000000000E+00  0.00000000000E+00  0.38331293583E+03  0.38331293583E+03  0.00000000000E+00 0.  1.
          2   -1    0    0  501    0  0.00000000000E+00 -0.00000000000E+00 -0.11114030357E+04  0.11114030357E+04  0.00000000000E+00 0. -1.
         24    2    1    2    0    0 -0.22604370910E+03 -0.14924162943E+02 -0.58433558323E+03  0.63176176350E+03  0.79726801802E+02 0.  0.
        254    2    1    2    0    0  0.22604370910E+03  0.14924162943E+02 -0.14375451664E+03  0.86295420803E+03  0.82018663428E+03 0.  0.
         23    2    4    4    0    0  0.52501900874E+03  0.54943967385E+02 -0.89614090734E+02  0.54307152193E+03  0.90731436575E+02 0.  0.
         23    2    4    4    0    0 -0.29897529964E+03 -0.40019804443E+02 -0.54140425905E+02  0.31988268610E+03  0.91683873207E+02 0.  0.
          2    1    3    3  502    0 -0.91163405136E+02  0.31053921927E+02 -0.26906958287E+03  0.28578585152E+03  0.00000000000E+00 0. -1.
         -1    1    3    3    0  502 -0.13488030397E+03 -0.45978084870E+02 -0.31526600036E+03  0.34597591198E+03  0.00000000000E+00 0.  1.
         11    1    5    5    0    0  0.50949223243E+03  0.69094375223E+02 -0.90431621431E+02  0.52204812589E+03  0.00000000000E+00 0.  1.
        -11    1    5    5    0    0  0.15526776317E+02 -0.14150407837E+02  0.81753069735E+00  0.21023396044E+02  0.00000000000E+00 0. -1.
          3    1    6    6  503    0 -0.14671164131E+03  0.17691016810E+02 -0.53162346138E+02  0.15704621237E+03  0.00000000000E+00 0. -1.
         -3    1    6    6    0  503 -0.15226365833E+03 -0.57710821253E+02 -0.97807976698E+00  0.16283647373E+03  0.00000000000E+00 0.  1.
<mgrwt>
<rscale>  0 0.13053967E+04</rscale>
<asrwt>0</asrwt>
<pdfrwt beam="1">  1        2 0.17098508E+00 0.13053967E+04</pdfrwt>
<pdfrwt beam="2">  1       -1 0.58971221E-01 0.13053967E+04</pdfrwt>
<totfact> 0.69809132E+01</totfact>
</mgrwt>
</event>
<event>
12    6  0.1556619E-007  0.1961611E+04  0.7818608E-02  0.8624782E-01
          2   -1    0    0  501    0  0.00000000000E+00  0.00000000000E+00  0.60231494957E+03  0.60231494957E+03  0.00000000000E+00 0. -1.
         -1   -1    0    0    0  501 -0.00000000000E+00 -0.00000000000E+00 -0.15971375558E+04  0.15971375558E+04  0.00000000000E+00 0.  1.
         24    2    1    2    0    0  0.51961945514E+03 -0.19796267472E+03 -0.96720438780E+03  0.11184334622E+04  0.78838332936E+02 0.  0.
        254    2    1    2    0    0 -0.51961945514E+03  0.19796267472E+03 -0.27618218426E+02  0.10810190432E+04  0.92663143000E+03 0.  0.
         23    2    4    4    0    0 -0.39233040964E+03  0.55766054129E+03 -0.38462282578E+02  0.68906903399E+03  0.91806082489E+02 0.  0.
         23    2    4    4    0    0 -0.12728904550E+03 -0.35969786658E+03  0.10844064153E+02  0.39195000922E+03  0.89006514810E+02 0.  0.
          2    1    3    3  502    0  0.19513361269E+02 -0.28841780091E+01 -0.13085364155E+02  0.23671005595E+02  0.00000000000E+00 0. -1.
         -1    1    3    3    0  502  0.50010609387E+03 -0.19507849671E+03 -0.95411902365E+03  0.10947624566E+04  0.00000000000E+00 0.  1.
         11    1    5    5    0    0 -0.15270891548E+02  0.30005250714E+01 -0.84535372739E+01  0.17710606195E+02  0.00000000000E+00 0.  1.
        -11    1    5    5    0    0 -0.37705951809E+03  0.55466001622E+03 -0.30008745304E+02  0.67135842780E+03  0.00000000000E+00 0. -1.
          1    1    6    6  503    0 -0.13218194893E+03 -0.32748768745E+03 -0.99539473780E+01  0.35329779807E+03  0.00000000000E+00 0. -1.
         -1    1    6    6    0  503  0.48929034265E+01 -0.32210179124E+02  0.20798011531E+02  0.38652211150E+02  0.00000000000E+00 0.  1.
<mgrwt>
<rscale>  0 0.19616114E+04</rscale>
<asrwt>0</asrwt>
<pdfrwt beam="1">  1        2 0.92663841E-01 0.19616114E+04</pdfrwt>
<pdfrwt beam="2">  1       -1 0.24571346E+00 0.19616114E+04</pdfrwt>
<totfact> 0.39072275E+00</totfact>
</mgrwt>
</event>
<event>
12    6  0.1556619E-007  0.2093457E+04  0.7818608E-02  0.8564131E-01
          2   -1    0    0  501    0  0.00000000000E+00  0.00000000000E+00  0.35528813686E+04  0.35528813686E+04  0.00000000000E+00 0. -1.
         -1   -1    0    0    0  501 -0.00000000000E+00 -0.00000000000E+00 -0.30838075830E+03  0.30838075830E+03  0.00000000000E+00 0.  1.
         24    2    1    2    0    0 -0.84545544052E+02 -0.71739521839E+03  0.21109346248E+04  0.22325642733E+04  0.80587813841E+02 0.  0.
        254    2    1    2    0    0  0.84545544052E+02  0.71739521839E+03  0.11335659855E+04  0.16286978536E+04  0.91971789509E+03 0.  0.
         23    2    4    4    0    0  0.21244386931E+03  0.89872114074E+03  0.86542029284E+03  0.12689362335E+04  0.91732191839E+02 0.  0.
         23    2    4    4    0    0 -0.12789832525E+03 -0.18132592234E+03  0.26814569269E+03  0.35976162015E+03  0.91045258570E+02 0.  0.
          2    1    3    3  502    0 -0.80766653143E+02 -0.66619291422E+03  0.20142005871E+04  0.21230497536E+04  0.00000000000E+00 0. -1.
         -3    1    3    3    0  502 -0.37788909090E+01 -0.51202304175E+02  0.96734037733E+02  0.10951451970E+03  0.00000000000E+00 0.  1.
         11    1    5    5    0    0  0.10962903970E+03  0.40870063976E+03  0.45676452041E+03  0.62264642165E+03  0.00000000000E+00 0.  1.
        -11    1    5    5    0    0  0.10281482960E+03  0.49002050097E+03  0.40865577242E+03  0.64628981184E+03  0.00000000000E+00 0. -1.
          3    1    6    6  503    0 -0.84924056176E+02 -0.17649272097E+03  0.23001073845E+03  0.30210381605E+03  0.00000000000E+00 0. -1.
         -3    1    6    6    0  503 -0.42974269079E+02 -0.48332013774E+01  0.38134954241E+02  0.57657804098E+02  0.00000000000E+00 0.  1.
<mgrwt>
<rscale>  0 0.20934567E+04</rscale>
<asrwt>0</asrwt>
<pdfrwt beam="1">  1        2 0.54659711E+00 0.20934567E+04</pdfrwt>
<pdfrwt beam="2">  1       -1 0.47443196E-01 0.20934567E+04</pdfrwt>
<totfact> 0.34887239E+00</totfact>
</mgrwt>
</event>
<event>
12    6  0.1556619E-007  0.1444574E+04  0.7818608E-02  0.8922171E-01
         -1   -1    0    0    0  501 -0.00000000000E+00  0.00000000000E+00  0.10724842123E+03  0.10724842123E+03  0.00000000000E+00 0.  1.
          2   -1    0    0  501    0  0.00000000000E+00 -0.00000000000E+00 -0.48643909477E+04  0.48643909477E+04  0.00000000000E+00 0. -1.
         24    2    1    2    0    0 -0.17594554523E+03 -0.37243493214E+03 -0.18924111705E+04  0.19383774045E+04  0.80139318126E+02 0.  0.
        254    2    1    2    0    0  0.17594554523E+03  0.37243493214E+03 -0.28647313560E+04  0.30332619645E+04  0.90792499122E+03 0.  0.
         23    2    4    4    0    0  0.30651334408E+03 -0.54366975092E+02 -0.22215347643E+04  0.22451053821E+04  0.91516499580E+02 0.  0.
         23    2    4    4    0    0 -0.13056779885E+03  0.42680190723E+03 -0.64319659166E+03  0.78815658236E+03  0.91000685027E+02 0.  0.
          2    1    3    3  502    0 -0.13530675642E+03 -0.31176859329E+03 -0.16717894416E+04  0.17059857887E+04  0.00000000000E+00 0. -1.
         -1    1    3    3    0  502 -0.40638788815E+02 -0.60666338846E+02 -0.22062172890E+03  0.23239161579E+03  0.00000000000E+00 0.  1.
         11    1    5    5    0    0  0.80617178181E+02  0.25407435066E+02 -0.53313409883E+03  0.53979314048E+03  0.00000000000E+00 0.  1.
        -11    1    5    5    0    0  0.22589616590E+03 -0.79774410157E+02 -0.16884006655E+04  0.17053122416E+04  0.00000000000E+00 0. -1.
          1    1    6    6  503    0 -0.70460382592E+02  0.35353107074E+03 -0.49839510861E+03  0.61509882765E+03  0.00000000000E+00 0. -1.
         -1    1    6    6    0  503 -0.60107416259E+02  0.73270836491E+02 -0.14480148305E+03  0.17305775470E+03  0.00000000000E+00 0.  1.
<mgrwt>
<rscale>  0 0.14445736E+04</rscale>
<asrwt>0</asrwt>
<pdfrwt beam="1">  1        2 0.74836762E+00 0.14445736E+04</pdfrwt>
<pdfrwt beam="2">  1       -1 0.16499762E-01 0.14445736E+04</pdfrwt>
<totfact> 0.16425953E+00</totfact>
</mgrwt>
</event>
<event>
12    6  0.1556619E-007  0.1582140E+04  0.7818608E-02  0.8831596E-01
         -1   -1    0    0    0  501 -0.00000000000E+00  0.00000000000E+00  0.20963052200E+03  0.20963052200E+03  0.00000000000E+00 0.  1.
          2   -1    0    0  501    0  0.00000000000E+00 -0.00000000000E+00 -0.29852142476E+04  0.29852142476E+04  0.00000000000E+00 0. -1.
         24    2    1    2    0    0 -0.39626207946E+03  0.34893897062E+03 -0.88865409207E+03  0.10364636254E+04  0.75952028627E+02 0.  0.
        254    2    1    2    0    0  0.39626207946E+03 -0.34893897062E+03 -0.18869296335E+04  0.21583811442E+04  0.90516500197E+03 0.  0.
         23    2    4    4    0    0  0.55326564742E+03 -0.12160270833E+03 -0.17401529591E+04  0.18324442134E+04  0.93964773323E+02 0.  0.
         23    2    4    4    0    0 -0.15700356796E+03 -0.22733626229E+03 -0.14677667440E+03  0.32593693081E+03  0.91430816549E+02 0.  0.
          4    1    3    3  502    0 -0.94497049921E+02  0.72612007395E+02 -0.14512488411E+03  0.18778559064E+03  0.00000000000E+00 0. -1.
         -3    1    3    3    0  502 -0.30176502954E+03  0.27632696323E+03 -0.74352920795E+03  0.84867803479E+03  0.00000000000E+00 0.  1.
         11    1    5    5    0    0 -0.15501209633E+01 -0.72924587368E+01 -0.30078136114E+02  0.30988338153E+02  0.00000000000E+00 0. -1.
        -11    1    5    5    0    0  0.55481576838E+03 -0.11431024960E+03 -0.17100748230E+04  0.18014558752E+04  0.00000000000E+00 0.  1.
          3    1    6    6  503    0 -0.11852303216E+03 -0.18495063122E+03 -0.15394603315E+03  0.26824210382E+03  0.00000000000E+00 0. -1.
         -3    1    6    6    0  503 -0.38480535792E+02 -0.42385631071E+02  0.71693587484E+01  0.57694826987E+02  0.00000000000E+00 0.  1.
<mgrwt>
<rscale>  0 0.15821403E+04</rscale>
<asrwt>0</asrwt>
<pdfrwt beam="1">  1        2 0.45926374E+00 0.15821403E+04</pdfrwt>
<pdfrwt beam="2">  1       -1 0.32250849E-01 0.15821403E+04</pdfrwt>
<totfact> 0.17570238E+01</totfact>
</mgrwt>
</event>
<event>
12    6  0.1556619E-007  0.1486373E+04  0.7818608E-02  0.8893565E-01
         -1   -1    0    0    0  501 -0.00000000000E+00  0.00000000000E+00  0.13595664282E+03  0.13595664282E+03  0.00000000000E+00 0.  1.
          2   -1    0    0  501    0  0.00000000000E+00 -0.00000000000E+00 -0.40625193162E+04  0.40625193162E+04  0.00000000000E+00 0. -1.
         24    2    1    2    0    0 -0.10798247056E+03  0.42557918978E+03 -0.81366650602E+03  0.92799968405E+03  0.79701755642E+02 0.  0.
        254    2    1    2    0    0  0.10798247056E+03 -0.42557918978E+03 -0.31128961674E+04  0.32704762750E+04  0.90172870399E+03 0.  0.
         23    2    4    4    0    0  0.92456841736E+02  0.18555002741E+02  0.11799996396E+00  0.12469143393E+03  0.81580537272E+02 0.  0.
         23    2    4    4    0    0  0.15525628829E+02 -0.44413419252E+03 -0.31130141673E+04  0.31457848410E+04  0.87228630501E+02 0.  0.
          4    1    3    3  502    0 -0.22553215635E+02  0.15529766997E+02 -0.49088210550E+02  0.56209195097E+02  0.00000000000E+00 0. -1.
         -3    1    3    3    0  502 -0.85429254930E+02  0.41004942278E+03 -0.76457829547E+03  0.87179048895E+03  0.00000000000E+00 0.  1.
         11    1    5    5    0    0  0.64716227220E+01  0.42422294967E+01 -0.31140818156E+02  0.32087832074E+02  0.00000000000E+00 0.  1.
        -11    1    5    5    0    0  0.85985219014E+02  0.14312773244E+02  0.31258818120E+02  0.92603601858E+02  0.00000000000E+00 0. -1.
          1    1    6    6  503    0  0.33043630581E+02 -0.19852531595E+03 -0.16446526822E+04  0.16569208272E+04  0.00000000000E+00 0. -1.
         -1    1    6    6    0  503 -0.17518001752E+02 -0.24560887657E+03 -0.14683614851E+04  0.14888640138E+04  0.00000000000E+00 0.  1.
<mgrwt>
<rscale>  0 0.14863734E+04</rscale>
<asrwt>0</asrwt>
<pdfrwt beam="1">  1        2 0.62500301E+00 0.14863734E+04</pdfrwt>
<pdfrwt beam="2">  1       -1 0.20916405E-01 0.14863734E+04</pdfrwt>
<totfact> 0.65190499E+00</totfact>
</mgrwt>
</event>
<event>
12    6  0.1556619E-007  0.1552855E+04  0.7818608E-02  0.8850046E-01
          2   -1    0    0  501    0  0.00000000000E+00  0.00000000000E+00  0.90353012100E+03  0.90353012100E+03  0.00000000000E+00 0. -1.
         -1   -1    0    0    0  501 -0.00000000000E+00 -0.00000000000E+00 -0.66720445917E+03  0.66720445917E+03  0.00000000000E+00 0.  1.
         24    2    1    2    0    0  0.46743129608E+03  0.16214167484E+03 -0.35500468927E+02  0.50177356826E+03  0.75726423632E+02 0.  0.
        254    2    1    2    0    0 -0.46743129608E+03 -0.16214167484E+03  0.27182613076E+03  0.10689610119E+04  0.90774790572E+03 0.  0.
         23    2    4    4    0    0 -0.47427433670E+02 -0.23290977158E+03 -0.27133006617E+03  0.37248152161E+03  0.92877101457E+02 0.  0.
         23    2    4    4    0    0 -0.42000386241E+03  0.70768096736E+02  0.54315619693E+03  0.69647949030E+03  0.93025040645E+02 0.  0.
          2    1    3    3  502    0  0.74963391091E+02  0.42916375898E+02  0.17658737941E+02  0.88165505441E+02  0.00000000000E+00 0. -1.
         -1    1    3    3    0  502  0.39246790499E+03  0.11922529894E+03 -0.53159206868E+02  0.41360806282E+03  0.00000000000E+00 0.  1.
         11    1    5    5    0    0 -0.18919615489E+02 -0.11377246717E+02 -0.13986632663E+01  0.22121253401E+02  0.00000000000E+00 0.  1.
        -11    1    5    5    0    0 -0.28507818181E+02 -0.22153252486E+03 -0.26993140290E+03  0.35036026821E+03  0.00000000000E+00 0. -1.
          1    1    6    6  503    0 -0.22290045451E+03 -0.60053356931E+01  0.30711235242E+03  0.37952427285E+03  0.00000000000E+00 0. -1.
         -1    1    6    6    0  503 -0.19710340790E+03  0.76773432429E+02  0.23604384451E+03  0.31695521744E+03  0.00000000000E+00 0.  1.
<mgrwt>
<rscale>  0 0.15528546E+04</rscale>
<asrwt>0</asrwt>
<pdfrwt beam="1">  1        2 0.13900464E+00 0.15528546E+04</pdfrwt>
<pdfrwt beam="2">  1       -1 0.10264684E+00 0.15528546E+04</pdfrwt>
<totfact> 0.28750599E+01</totfact>
</mgrwt>
</event>
<event>
12    6  0.1556619E-007  0.2670098E+04  0.7818608E-02  0.8344773E-01
         -1   -1    0    0    0  501 -0.00000000000E+00  0.00000000000E+00  0.63856674117E+03  0.63856674117E+03  0.00000000000E+00 0.  1.
          2   -1    0    0  501    0  0.00000000000E+00 -0.00000000000E+00 -0.27911825238E+04  0.27911825238E+04  0.00000000000E+00 0. -1.
         24    2    1    2    0    0 -0.74966378296E+03 -0.25741828310E+03  0.17233007770E+03  0.81501112050E+03  0.79281214030E+02 0.  0.
        254    2    1    2    0    0  0.74966378296E+03  0.25741828310E+03 -0.23249458603E+04  0.26147381445E+04  0.89622672950E+03 0.  0.
         23    2    4    4    0    0 -0.13861124794E+03 -0.14329459379E+03 -0.43056474018E+03  0.48239961162E+03  0.87045799110E+02 0.  0.
         23    2    4    4    0    0  0.88827503090E+03  0.40071287689E+03 -0.18943811202E+04  0.21323385329E+04  0.92652307185E+02 0.  0.
          2    1    3    3  502    0 -0.10938248333E+03 -0.56114070993E+02  0.50293685426E+02  0.13282609463E+03  0.00000000000E+00 0. -1.
         -1    1    3    3    0  502 -0.64028129964E+03 -0.20130421211E+03  0.12203639228E+03  0.68218502587E+03  0.00000000000E+00 0.  1.
         11    1    5    5    0    0 -0.14855159682E+03 -0.11942239286E+03 -0.36184742778E+03  0.40897780603E+03  0.00000000000E+00 0.  1.
        -11    1    5    5    0    0  0.99403488794E+01 -0.23872200936E+02 -0.68717312399E+02  0.73421805594E+02  0.00000000000E+00 0. -1.
          4    1    6    6  503    0  0.19930182916E+03  0.55210187286E+02 -0.35711520713E+03  0.41267499930E+03  0.00000000000E+00 0. -1.
         -4    1    6    6    0  503  0.68897320174E+03  0.34550268961E+03 -0.15372659130E+04  0.17196635335E+04  0.00000000000E+00 0.  1.
<mgrwt>
<rscale>  0 0.26700984E+04</rscale>
<asrwt>0</asrwt>
<pdfrwt beam="1">  1        2 0.42941268E+00 0.26700984E+04</pdfrwt>
<pdfrwt beam="2">  1       -1 0.98241040E-01 0.26700984E+04</pdfrwt>
<totfact> 0.23224447E+00</totfact>
</mgrwt>
</event>
<event>
12    6  0.1556619E-007  0.1738494E+04  0.7818608E-02  0.8739709E-01
          2   -1    0    0  501    0  0.00000000000E+00  0.00000000000E+00  0.20078887187E+04  0.20078887187E+04  0.00000000000E+00 0. -1.
         -1   -1    0    0    0  501 -0.00000000000E+00 -0.00000000000E+00 -0.37631094335E+03  0.37631094335E+03  0.00000000000E+00 0.  1.
         24    2    1    2    0    0 -0.88868644023E+02 -0.63226351090E+02  0.14512748463E+04  0.14575699472E+04  0.80101586704E+02 0.  0.
        254    2    1    2    0    0  0.88868644023E+02  0.63226351090E+02  0.18030292899E+03  0.92662971475E+03  0.90235152501E+03 0.  0.
         23    2    4    4    0    0 -0.13481162851E+03  0.24460921371E+03 -0.26058247123E+03  0.39255683526E+03  0.90497524763E+02 0.  0.
         23    2    4    4    0    0  0.22368027253E+03 -0.18138286262E+03  0.44088540021E+03  0.53407287949E+03  0.89001670283E+02 0.  0.
          2    1    3    3  502    0 -0.68386460301E+02 -0.27074072941E+02  0.12439391769E+04  0.12461117081E+04  0.00000000000E+00 0. -1.
         -3    1    3    3    0  502 -0.20482183723E+02 -0.36152278149E+02  0.20733566945E+03  0.21145823912E+03  0.00000000000E+00 0.  1.
         11    1    5    5    0    0 -0.65450830093E+01  0.99392693694E+02 -0.81130023976E+02  0.12846721941E+03  0.00000000000E+00 0.  1.
        -11    1    5    5    0    0 -0.12826654550E+03  0.14521652002E+03 -0.17945244725E+03  0.26408961586E+03  0.00000000000E+00 0. -1.
          1    1    6    6  503    0  0.30631635445E+02  0.72614046399E+01  0.48124048502E+02  0.57506079084E+02  0.00000000000E+00 0. -1.
         -1    1    6    6    0  503  0.19304863708E+03 -0.18864426726E+03  0.39276135171E+03  0.47656680040E+03  0.00000000000E+00 0.  1.
<mgrwt>
<rscale>  0 0.17384942E+04</rscale>
<asrwt>0</asrwt>
<pdfrwt beam="1">  1        2 0.30890595E+00 0.17384942E+04</pdfrwt>
<pdfrwt beam="2">  1       -1 0.57893992E-01 0.17384942E+04</pdfrwt>
<totfact> 0.21600493E+01</totfact>
</mgrwt>
</event>
<event>
12    6  0.1556619E-007  0.2057865E+04  0.7818608E-02  0.8580035E-01
         -1   -1    0    0    0  501 -0.00000000000E+00  0.00000000000E+00  0.13094241682E+04  0.13094241682E+04  0.00000000000E+00 0.  1.
          2   -1    0    0  501    0  0.00000000000E+00 -0.00000000000E+00 -0.80852519233E+03  0.80852519233E+03  0.00000000000E+00 0. -1.
         24    2    1    2    0    0  0.42168352845E+03 -0.67854146396E+03 -0.24136236656E+02  0.80363539529E+03  0.83736337117E+02 0.  0.
        254    2    1    2    0    0 -0.42168352845E+03  0.67854146396E+03  0.52503521255E+03  0.13143139653E+04  0.90195549138E+03 0.  0.
         23    2    4    4    0    0 -0.22596507041E+01 -0.15145796286E+03 -0.86275956324E+02  0.19775470934E+03  0.93374321376E+02 0.  0.
         23    2    4    4    0    0 -0.41942387775E+03  0.82999942682E+03  0.61131116888E+03  0.11165592559E+04  0.90486402676E+02 0.  0.
          2    1    3    3  502    0  0.37360556957E+03 -0.57818270966E+03 -0.47151365792E+02  0.68999972367E+03  0.00000000000E+00 0. -1.
         -1    1    3    3    0  502  0.48077958879E+02 -0.10035875431E+03  0.23015129136E+02  0.11363567162E+03  0.00000000000E+00 0.  1.
         11    1    5    5    0    0 -0.41413331544E+02 -0.50410659536E+02 -0.53980567693E+02  0.84677035334E+02  0.00000000000E+00 0.  1.
        -11    1    5    5    0    0  0.39153680840E+02 -0.10104730332E+03 -0.32295388631E+02  0.11307767401E+03  0.00000000000E+00 0. -1.
          2    1    6    6  503    0 -0.35506644890E+03  0.63155898531E+03  0.49783227709E+03  0.87907673793E+03  0.00000000000E+00 0. -1.
         -2    1    6    6    0  503 -0.64357428845E+02  0.19844044152E+03  0.11347889179E+03  0.23748251801E+03  0.00000000000E+00 0.  1.
<mgrwt>
<rscale>  0 0.20578653E+04</rscale>
<asrwt>0</asrwt>
<pdfrwt beam="1">  1        2 0.12438849E+00 0.20578653E+04</pdfrwt>
<pdfrwt beam="2">  1       -1 0.20144987E+00 0.20578653E+04</pdfrwt>
<totfact> 0.52704806E+00</totfact>
</mgrwt>
</event>
<event>
12    6  0.1556619E-007  0.1317914E+04  0.7818608E-02  0.9015479E-01
          2   -1    0    0  501    0  0.00000000000E+00  0.00000000000E+00  0.83161798672E+03  0.83161798672E+03  0.00000000000E+00 0. -1.
         -1   -1    0    0    0  501 -0.00000000000E+00 -0.00000000000E+00 -0.52214393825E+03  0.52214393825E+03  0.00000000000E+00 0.  1.
         24    2    1    2    0    0  0.59160475361E+02 -0.23450217477E+03  0.32986311395E+03  0.41688341994E+03  0.80565998188E+02 0.  0.
        254    2    1    2    0    0 -0.59160475361E+02  0.23450217477E+03 -0.20389065479E+02  0.93687850503E+03  0.90489468303E+03 0.  0.
         23    2    4    4    0    0  0.13306152328E+03  0.40242289160E+03 -0.31319395407E+03  0.53641557410E+03  0.10000831272E+03 0.  0.
         23    2    4    4    0    0 -0.19222199864E+03 -0.16792071682E+03  0.29280488859E+03  0.40046293093E+03  0.97412485683E+02 0.  0.
          4    1    3    3  502    0  0.34771316102E+02 -0.22013725600E+03  0.31196282472E+03  0.38339308798E+03  0.00000000000E+00 0. -1.
         -3    1    3    3    0  502  0.24389159260E+02 -0.14364918769E+02  0.17900289226E+02  0.33490331963E+02  0.00000000000E+00 0.  1.
         11    1    5    5    0    0  0.38671164423E+02  0.35180007836E+02 -0.16079617517E+02  0.54695941427E+02  0.00000000000E+00 0. -1.
        -11    1    5    5    0    0  0.94390358857E+02  0.36724288376E+03 -0.29711433655E+03  0.48171963267E+03  0.00000000000E+00 0.  1.
          2    1    6    6  503    0 -0.10386269056E+03 -0.27826685854E+02  0.11856073469E+03  0.16005758572E+03  0.00000000000E+00 0. -1.
         -2    1    6    6    0  503 -0.88359308082E+02 -0.14009403097E+03  0.17424415389E+03  0.24040534521E+03  0.00000000000E+00 0.  1.
<mgrwt>
<rscale>  0 0.13179139E+04</rscale>
<asrwt>0</asrwt>
<pdfrwt beam="1">  1        2 0.12794123E+00 0.13179139E+04</pdfrwt>
<pdfrwt beam="2">  1       -1 0.80329837E-01 0.13179139E+04</pdfrwt>
<totfact> 0.56523557E+01</totfact>
</mgrwt>
</event>
<event>
12    6  0.1556619E-007  0.1259509E+04  0.7818608E-02  0.9062306E-01
         -1   -1    0    0    0  501 -0.00000000000E+00  0.00000000000E+00  0.43908255632E+03  0.43908255632E+03  0.00000000000E+00 0.  1.
          2   -1    0    0  501    0  0.00000000000E+00 -0.00000000000E+00 -0.90322611130E+03  0.90322611130E+03  0.00000000000E+00 0. -1.
         24    2    1    2    0    0 -0.24762004612E+03  0.15905066157E+03 -0.11082739265E+03  0.32423648419E+03  0.78954331921E+02 0.  0.
        254    2    1    2    0    0  0.24762004612E+03 -0.15905066157E+03 -0.35331616233E+03  0.10180721834E+04  0.90830934153E+03 0.  0.
         23    2    4    4    0    0  0.46286795828E+03  0.18473018098E+03 -0.32169367222E+03  0.60044601367E+03  0.93148322700E+02 0.  0.
         23    2    4    4    0    0 -0.21524791216E+03 -0.34378084256E+03 -0.31622490116E+02  0.41762616975E+03  0.94311740437E+02 0.  0.
          2    1    3    3  502    0 -0.11763309859E+03  0.96446279579E+02 -0.94399329220E+02  0.17902699261E+03  0.00000000000E+00 0. -1.
         -1    1    3    3    0  502 -0.12998694754E+03  0.62604381994E+02 -0.16428063425E+02  0.14520949157E+03  0.00000000000E+00 0.  1.
         11    1    5    5    0    0  0.49122282989E+02  0.51432671475E+02 -0.60101563951E+02  0.93115607555E+02  0.00000000000E+00 0.  1.
        -11    1    5    5    0    0  0.41374567529E+03  0.13329750951E+03 -0.26159210827E+03  0.50733040612E+03  0.00000000000E+00 0. -1.
          4    1    6    6  503    0 -0.83837261426E+01 -0.26030402538E+01  0.13486351341E+02  0.16091748044E+02  0.00000000000E+00 0.  1.
         -4    1    6    6    0  503 -0.20686418602E+03 -0.34117780230E+03 -0.45108841458E+02  0.40153442171E+03  0.00000000000E+00 0. -1.
<mgrwt>
<rscale>  0 0.12595092E+04</rscale>
<asrwt>0</asrwt>
<pdfrwt beam="1">  1        2 0.13895786E+00 0.12595092E+04</pdfrwt>
<pdfrwt beam="2">  1       -1 0.67551163E-01 0.12595092E+04</pdfrwt>
<totfact> 0.72638350E+01</totfact>
</mgrwt>
</event>
<event>
12    6  0.1556619E-007  0.1324050E+04  0.7818608E-02  0.9010708E-01
         -3   -1    0    0    0  501 -0.00000000000E+00  0.00000000000E+00  0.21045214647E+03  0.21045214647E+03  0.00000000000E+00 0.  1.
          2   -1    0    0  501    0  0.00000000000E+00 -0.00000000000E+00 -0.20825487893E+04  0.20825487893E+04  0.00000000000E+00 0. -1.
         24    2    1    2    0    0 -0.96751087846E+02 -0.30921815658E+03 -0.66661158877E+03  0.74539974066E+03  0.79203041126E+02 0.  0.
        254    2    1    2    0    0  0.96751087846E+02  0.30921815658E+03 -0.12054850541E+04  0.15476011951E+04  0.91482162318E+03 0.  0.
         23    2    4    4    0    0  0.67894085949E+02  0.13939679118E+03  0.11434960774E+03  0.21346116773E+03  0.91917164004E+02 0.  0.
         23    2    4    4    0    0  0.28857001898E+02  0.16982136540E+03 -0.13198346618E+04  0.13341400274E+04  0.91071705272E+02 0.  0.
          4    1    3    3  502    0 -0.71437329515E+02 -0.21702965180E+03 -0.54315165010E+03  0.58925281231E+03  0.00000000000E+00 0. -1.
         -3    1    3    3    0  502 -0.25313758331E+02 -0.92188504784E+02 -0.12345993868E+03  0.15614692835E+03  0.00000000000E+00 0.  1.
         11    1    5    5    0    0  0.20807347145E+02  0.43945083993E+02  0.92947276776E+02  0.10489667470E+03  0.00000000000E+00 0.  1.
        -11    1    5    5    0    0  0.47086738803E+02  0.95451707189E+02  0.21402330967E+02  0.10856449303E+03  0.00000000000E+00 0. -1.
          1    1    6    6  503    0 -0.33138657096E+02  0.53717732100E+02 -0.44930997130E+03  0.45372151773E+03  0.00000000000E+00 0. -1.
         -1    1    6    6    0  503  0.61995658993E+02  0.11610363330E+03 -0.87052469052E+03  0.88041850969E+03  0.00000000000E+00 0.  1.
<mgrwt>
<rscale>  0 0.13240496E+04</rscale>
<asrwt>0</asrwt>
<pdfrwt beam="1">  1        2 0.32039213E+00 0.13240496E+04</pdfrwt>
<pdfrwt beam="2">  1       -3 0.32377253E-01 0.13240496E+04</pdfrwt>
<totfact> 0.35690650E+01</totfact>
</mgrwt>
</event>
<event>
12    6  0.1556619E-007  0.1591037E+04  0.7818608E-02  0.8826074E-01
          2   -1    0    0  501    0  0.00000000000E+00  0.00000000000E+00  0.16841282502E+04  0.16841282502E+04  0.00000000000E+00 0. -1.
         -1   -1    0    0    0  501 -0.00000000000E+00 -0.00000000000E+00 -0.37577263107E+03  0.37577263107E+03  0.00000000000E+00 0.  1.
         24    2    1    2    0    0 -0.53120575257E+00  0.25132454286E+03  0.10713664383E+04  0.11033547014E+04  0.80007773715E+02 0.  0.
        254    2    1    2    0    0  0.53120575257E+00 -0.25132454286E+03  0.23698918079E+03  0.95654617988E+03  0.89199350582E+03 0.  0.
         23    2    4    4    0    0  0.27773774352E+03  0.19716082756E+03  0.23013627576E+03  0.42102364615E+03  0.91036031852E+02 0.  0.
         23    2    4    4    0    0 -0.27720653777E+03 -0.44848537042E+03  0.68529050246E+01  0.53552253373E+03  0.93567247314E+02 0.  0.
          2    1    3    3  502    0  0.10080742160E+02  0.18100500007E+03  0.89527752835E+03  0.91344747205E+03  0.00000000000E+00 0. -1.
         -1    1    3    3    0  502 -0.10611947913E+02  0.70319542792E+02  0.17608890999E+03  0.18990722935E+03  0.00000000000E+00 0.  1.
         11    1    5    5    0    0  0.18460644821E+03  0.15919950029E+03  0.20200823181E+03  0.31659334695E+03  0.00000000000E+00 0. -1.
        -11    1    5    5    0    0  0.93131295316E+02  0.37961327267E+02  0.28128043954E+02  0.10443029920E+03  0.00000000000E+00 0.  1.
          3    1    6    6  503    0 -0.12570625089E+03 -0.28721910608E+03 -0.93521914249E+01  0.31366278053E+03  0.00000000000E+00 0. -1.
         -3    1    6    6    0  503 -0.15150028688E+03 -0.16126626434E+03  0.16205096449E+02  0.22185975320E+03  0.00000000000E+00 0.  1.
<mgrwt>
<rscale>  0 0.15910365E+04</rscale>
<asrwt>0</asrwt>
<pdfrwt beam="1">  1        2 0.25909665E+00 0.15910365E+04</pdfrwt>
<pdfrwt beam="2">  1       -1 0.57811175E-01 0.15910365E+04</pdfrwt>
<totfact> 0.33161241E+01</totfact>
</mgrwt>
</event>
<event>
12    6  0.1556619E-007  0.2546463E+04  0.7818608E-02  0.8386617E-01
          2   -1    0    0  501    0  0.00000000000E+00  0.00000000000E+00  0.11662603749E+04  0.11662603749E+04  0.00000000000E+00 0. -1.
         -1   -1    0    0    0  501 -0.00000000000E+00 -0.00000000000E+00 -0.13900137169E+04  0.13900137169E+04  0.00000000000E+00 0.  1.
         24    2    1    2    0    0  0.80961779898E+03 -0.75526866792E+02 -0.85361939194E+03  0.11814092665E+04  0.76658336366E+02 0.  0.
        254    2    1    2    0    0 -0.80961779898E+03  0.75526866792E+02  0.62986604992E+03  0.13748648254E+04  0.91232491972E+03 0.  0.
         23    2    4    4    0    0 -0.99395317822E+03  0.13024024497E+03  0.48934820826E+03  0.11194242092E+04  0.93506413179E+02 0.  0.
         23    2    4    4    0    0  0.18433537924E+03 -0.54713378175E+02  0.14051784167E+03  0.25544061616E+03  0.92366437452E+02 0.  0.
          4    1    3    3  502    0  0.20675002892E+03  0.13579993646E+02 -0.20763532440E+03  0.29332988021E+03  0.00000000000E+00 0. -1.
         -3    1    3    3    0  502  0.60286777006E+03 -0.89106860438E+02 -0.64598406754E+03  0.88807938625E+03  0.00000000000E+00 0.  1.
         11    1    5    5    0    0 -0.63307623947E+02  0.17882157836E+02  0.57324241739E+02  0.87256492650E+02  0.00000000000E+00 0. -1.
        -11    1    5    5    0    0 -0.93064555428E+03  0.11235808713E+03  0.43202396652E+03  0.10321677165E+04  0.00000000000E+00 0.  1.
          1    1    6    6  503    0  0.56638919091E+02  0.23970796169E+02  0.56526442128E+02  0.83533256158E+02  0.00000000000E+00 0. -1.
         -1    1    6    6    0  503  0.12769646015E+03 -0.78684174344E+02  0.83991399538E+02  0.17190736001E+03  0.00000000000E+00 0.  1.
<mgrwt>
<rscale>  0 0.25464626E+04</rscale>
<asrwt>0</asrwt>
<pdfrwt beam="1">  1        2 0.17942467E+00 0.25464626E+04</pdfrwt>
<pdfrwt beam="2">  1       -1 0.21384826E+00 0.25464626E+04</pdfrwt>
<totfact> 0.24329966E+00</totfact>
</mgrwt>
</event>
<event>
12    6  0.1556619E-007  0.2304572E+04  0.7818608E-02  0.8476121E-01
          2   -1    0    0  501    0  0.00000000000E+00  0.00000000000E+00  0.27063725509E+04  0.27063725509E+04  0.00000000000E+00 0. -1.
         -1   -1    0    0    0  501 -0.00000000000E+00 -0.00000000000E+00 -0.49060607921E+03  0.49060607921E+03  0.00000000000E+00 0.  1.
         24    2    1    2    0    0 -0.13963078564E+03  0.29458729750E+03 -0.33918413835E+03  0.47725226520E+03  0.80283328200E+02 0.  0.
        254    2    1    2    0    0  0.13963078564E+03 -0.29458729750E+03  0.25549506101E+04  0.27197263649E+04  0.87341882740E+03 0.  0.
         23    2    4    4    0    0  0.40260583247E+03 -0.32172654226E+03  0.89510061624E+03  0.10364348788E+04  0.85980930530E+02 0.  0.
         23    2    4    4    0    0 -0.26297504683E+03  0.27139244759E+02  0.16598499938E+04  0.16832914861E+04  0.92064170495E+02 0.  0.
          4    1    3    3  502    0 -0.61918187768E+02  0.75240711061E+02 -0.62699651946E+02  0.11587179524E+03  0.00000000000E+00 0. -1.
         -3    1    3    3    0  502 -0.77712597869E+02  0.21934658644E+03 -0.27648448640E+03  0.36138046996E+03  0.00000000000E+00 0.  1.
         11    1    5    5    0    0  0.31288553170E+02 -0.12438666224E+01  0.67326421431E+02  0.74252055772E+02  0.00000000000E+00 0.  1.
        -11    1    5    5    0    0  0.37131727930E+03 -0.32048267564E+03  0.82777419481E+03  0.96218282300E+03  0.00000000000E+00 0. -1.
          2    1    6    6  503    0 -0.17123363922E+02 -0.14094648862E+02  0.56832638466E+02  0.61006700563E+02  0.00000000000E+00 0.  1.
         -2    1    6    6    0  503 -0.24585168291E+03  0.41233893621E+02  0.16030173554E+04  0.16222847856E+04  0.00000000000E+00 0. -1.
<mgrwt>
<rscale>  0 0.23045718E+04</rscale>
<asrwt>0</asrwt>
<pdfrwt beam="1">  1        2 0.41636500E+00 0.23045718E+04</pdfrwt>
<pdfrwt beam="2">  1       -1 0.75477860E-01 0.23045718E+04</pdfrwt>
<totfact> 0.47894322E+00</totfact>
</mgrwt>
</event>
<event>
12    6  0.1556619E-007  0.1832583E+04  0.7818608E-02  0.8689162E-01
         -1   -1    0    0    0  501 -0.00000000000E+00  0.00000000000E+00  0.53266372218E+03  0.53266372218E+03  0.00000000000E+00 0.  1.
          2   -1    0    0  501    0  0.00000000000E+00 -0.00000000000E+00 -0.15762106602E+04  0.15762106602E+04  0.00000000000E+00 0. -1.
         24    2    1    2    0    0  0.42795932237E+03  0.47261623547E+03 -0.72605783719E+02  0.64623947245E+03  0.76410524800E+02 0.  0.
        254    2    1    2    0    0 -0.42795932237E+03 -0.47261623547E+03 -0.97094115431E+03  0.14626349099E+04  0.88885255638E+03 0.  0.
         23    2    4    4    0    0  0.95523170526E+02 -0.51391621785E+03 -0.65442162056E+03  0.84247504728E+03  0.90895504601E+02 0.  0.
         23    2    4    4    0    0 -0.52348249289E+03  0.41299982385E+02 -0.31651953375E+03  0.62015986264E+03  0.93134478468E+02 0.  0.
          2    1    3    3  502    0  0.33833274581E+02  0.35375704120E+02 -0.26796305520E+02  0.55804774889E+02  0.00000000000E+00 0. -1.
         -1    1    3    3    0  502  0.39412604779E+03  0.43724053135E+03 -0.45809478199E+02  0.59043469757E+03  0.00000000000E+00 0.  1.
         11    1    5    5    0    0  0.54113129291E+01  0.15508179256E+01 -0.16770490018E+01  0.58736562045E+01  0.00000000000E+00 0.  1.
        -11    1    5    5    0    0  0.90111857597E+02 -0.51546703578E+03 -0.65274457156E+03  0.83660139108E+03  0.00000000000E+00 0. -1.
          1    1    6    6  503    0 -0.30078555450E+03  0.13635658541E+02 -0.12838932040E+03  0.32732506560E+03  0.00000000000E+00 0. -1.
         -1    1    6    6    0  503 -0.22269693839E+03  0.27664323844E+02 -0.18813021334E+03  0.29283479704E+03  0.00000000000E+00 0.  1.
<mgrwt>
<rscale>  0 0.18325831E+04</rscale>
<asrwt>0</asrwt>
<pdfrwt beam="1">  1        2 0.24249394E+00 0.18325831E+04</pdfrwt>
<pdfrwt beam="2">  1       -1 0.81948266E-01 0.18325831E+04</pdfrwt>
<totfact> 0.18277231E+01</totfact>
</mgrwt>
</event>
<event>
12    6  0.1556619E-007  0.1261447E+04  0.7818608E-02  0.9060710E-01
         -1   -1    0    0    0  501 -0.00000000000E+00  0.00000000000E+00  0.37689596332E+03  0.37689596332E+03  0.00000000000E+00 0.  1.
          2   -1    0    0  501    0  0.00000000000E+00 -0.00000000000E+00 -0.10554952395E+04  0.10554952395E+04  0.00000000000E+00 0. -1.
         24    2    1    2    0    0 -0.10527798229E+03 -0.19748331673E+03  0.49079851180E+02  0.24295572638E+03  0.80842682084E+02 0.  0.
        254    2    1    2    0    0  0.10527798229E+03  0.19748331673E+03 -0.72767912737E+03  0.11894354764E+04  0.91386909690E+03 0.  0.
         23    2    4    4    0    0 -0.21460027184E+02 -0.35355445499E+03 -0.26397489368E+03  0.45115901574E+03  0.91653846530E+02 0.  0.
         23    2    4    4    0    0  0.12673800947E+03  0.55103777172E+03 -0.46370423370E+03  0.73827646070E+03  0.10161381389E+03 0.  0.
          4    1    3    3  502    0 -0.98437771953E+01  0.33642680096E+01  0.14605430875E+02  0.17931448903E+02  0.00000000000E+00 0. -1.
         -3    1    3    3    0  502 -0.95434205092E+02 -0.20084758474E+03  0.34474420305E+02  0.22502427748E+03  0.00000000000E+00 0.  1.
         11    1    5    5    0    0  0.21663121530E+02 -0.19628056086E+03 -0.18237327036E+03  0.26880356982E+03  0.00000000000E+00 0. -1.
        -11    1    5    5    0    0 -0.43123148713E+02 -0.15727389413E+03 -0.81601623319E+02  0.18235544592E+03  0.00000000000E+00 0.  1.
          4    1    6    6  503    0  0.12018500357E+03  0.55330422148E+03 -0.45127358965E+03  0.72404271235E+03  0.00000000000E+00 0.  1.
         -4    1    6    6    0  503  0.65530058996E+01 -0.22664497582E+01 -0.12430644045E+02  0.14233748354E+02  0.00000000000E+00 0. -1.
<mgrwt>
<rscale>  0 0.12614466E+04</rscale>
<asrwt>0</asrwt>
<pdfrwt beam="1">  1        2 0.16238388E+00 0.12614466E+04</pdfrwt>
<pdfrwt beam="2">  1       -1 0.57983995E-01 0.12614466E+04</pdfrwt>
<totfact> 0.78429206E+01</totfact>
</mgrwt>
</event>
<event>
12    6  0.1556619E-007  0.3513288E+04  0.7818608E-02  0.8110648E-01
          2   -1    0    0  501    0  0.00000000000E+00  0.00000000000E+00  0.24506028198E+04  0.24506028198E+04  0.00000000000E+00 0. -1.
         -1   -1    0    0    0  501 -0.00000000000E+00 -0.00000000000E+00 -0.12591995614E+04  0.12591995614E+04  0.00000000000E+00 0.  1.
         24    2    1    2    0    0  0.31588961815E+03  0.19055257483E+03  0.22355437858E+04  0.22671785966E+04  0.79663268997E+02 0.  0.
        254    2    1    2    0    0 -0.31588961815E+03 -0.19055257483E+03 -0.10441405274E+04  0.14426237846E+04  0.92457417673E+03 0.  0.
         23    2    4    4    0    0  0.30083820631E+03  0.48448020783E+02 -0.24216773695E+03  0.39920549244E+03  0.88707244789E+02 0.  0.
         23    2    4    4    0    0 -0.61672782446E+03 -0.23900059561E+03 -0.80197279045E+03  0.10434182922E+04  0.89927090516E+02 0.  0.
          2    1    3    3  502    0  0.30204256095E+03  0.15565964805E+03  0.20269219930E+04  0.20552061698E+04  0.00000000000E+00 0. -1.
         -1    1    3    3    0  502  0.13847057205E+02  0.34892926782E+02  0.20862179273E+03  0.21197242682E+03  0.00000000000E+00 0.  1.
         11    1    5    5    0    0  0.17117292508E+03  0.72883028761E+01 -0.84732928839E+02  0.19113596959E+03  0.00000000000E+00 0. -1.
        -11    1    5    5    0    0  0.12966528123E+03  0.41159717907E+02 -0.15743480811E+03  0.20806952285E+03  0.00000000000E+00 0.  1.
          2    1    6    6  503    0 -0.50596438768E+03 -0.15755602394E+03 -0.64371206669E+03  0.83377999921E+03  0.00000000000E+00 0. -1.
         -2    1    6    6    0  503 -0.11076343678E+03 -0.81444571678E+02 -0.15826072376E+03  0.20963829294E+03  0.00000000000E+00 0.  1.
<mgrwt>
<rscale>  0 0.35132879E+04</rscale>
<asrwt>0</asrwt>
<pdfrwt beam="1">  1        2 0.37701582E+00 0.35132879E+04</pdfrwt>
<pdfrwt beam="2">  1       -1 0.19372301E+00 0.35132879E+04</pdfrwt>
<totfact> 0.57705992E-01</totfact>
</mgrwt>
</event>
<event>
12    6  0.1556619E-007  0.1419664E+04  0.7818608E-02  0.8939706E-01
         -1   -1    0    0    0  501 -0.00000000000E+00  0.00000000000E+00  0.63657306224E+03  0.63657306224E+03  0.00000000000E+00 0.  1.
          2   -1    0    0  501    0  0.00000000000E+00 -0.00000000000E+00 -0.79152217586E+03  0.79152217586E+03  0.00000000000E+00 0. -1.
         24    2    1    2    0    0  0.59255305748E+02 -0.45983753388E+02 -0.46508812436E+03  0.47786002852E+03  0.80109591202E+02 0.  0.
        254    2    1    2    0    0 -0.59255305748E+02  0.45983753388E+02  0.31013901074E+03  0.95023520957E+03  0.89506147872E+03 0.  0.
         23    2    4    4    0    0  0.59732767393E+02 -0.32308625692E+03  0.41619189542E+03  0.53826503024E+03  0.92524678085E+02 0.  0.
         23    2    4    4    0    0 -0.11898807314E+03  0.36907001031E+03 -0.10605288468E+03  0.41197017933E+03  0.90007667713E+02 0.  0.
          2    1    3    3  502    0  0.68837773772E+02 -0.21756023032E+02 -0.22348945700E+03  0.23486059913E+03  0.00000000000E+00 0. -1.
         -1    1    3    3    0  502 -0.95824680234E+01 -0.24227730356E+02 -0.24159866737E+03  0.24299942939E+03  0.00000000000E+00 0.  1.
         11    1    5    5    0    0 -0.80859617672E+01 -0.15984583195E+03  0.15442482958E+03  0.22240301428E+03  0.00000000000E+00 0. -1.
        -11    1    5    5    0    0  0.67818729160E+02 -0.16324042498E+03  0.26176706584E+03  0.31586201597E+03  0.00000000000E+00 0.  1.
          4    1    6    6  503    0 -0.90594954545E+02  0.14428674457E+03 -0.61022884736E+02  0.18096934245E+03  0.00000000000E+00 0.  1.
         -4    1    6    6    0  503 -0.28393118596E+02  0.22478326575E+03 -0.45029999947E+02  0.23100083688E+03  0.00000000000E+00 0. -1.
<mgrwt>
<rscale>  0 0.14196643E+04</rscale>
<asrwt>0</asrwt>
<pdfrwt beam="1">  1        2 0.12177264E+00 0.14196643E+04</pdfrwt>
<pdfrwt beam="2">  1       -1 0.97934318E-01 0.14196643E+04</pdfrwt>
<totfact> 0.38770873E+01</totfact>
</mgrwt>
</event>
<event>
12    6  0.1556619E-007  0.1536212E+04  0.7818608E-02  0.8860723E-01
          2   -1    0    0  501    0  0.00000000000E+00  0.00000000000E+00  0.81716715816E+03  0.81716715816E+03  0.00000000000E+00 0. -1.
         -1   -1    0    0    0  501 -0.00000000000E+00 -0.00000000000E+00 -0.72199047365E+03  0.72199047365E+03  0.00000000000E+00 0.  1.
         24    2    1    2    0    0  0.47538910102E+03 -0.58636281377E+02 -0.11745515816E+03  0.50251564718E+03  0.96401507387E+02 0.  0.
        254    2    1    2    0    0 -0.47538910102E+03  0.58636281377E+02  0.21263184268E+03  0.10366419846E+04  0.89441673336E+03 0.  0.
         23    2    4    4    0    0 -0.20267826080E+03  0.21160249750E+02 -0.34390177091E+03  0.40974439416E+03  0.89976702191E+02 0.  0.
         23    2    4    4    0    0 -0.27271084022E+03  0.37476031628E+02  0.55653361359E+03  0.62689759047E+03  0.86575230684E+02 0.  0.
          2    1    3    3  502    0  0.35445354950E+02 -0.31441760151E+02 -0.52206530845E+01  0.47667732142E+02  0.00000000000E+00 0. -1.
         -1    1    3    3    0  502  0.43994374607E+03 -0.27194521226E+02 -0.11223450507E+03  0.45484791504E+03  0.00000000000E+00 0.  1.
         11    1    5    5    0    0 -0.44027465803E+02  0.37187791876E+02 -0.13620214709E+03  0.14789311844E+03  0.00000000000E+00 0. -1.
        -11    1    5    5    0    0 -0.15865079500E+03 -0.16027542126E+02 -0.20769962382E+03  0.26185127572E+03  0.00000000000E+00 0.  1.
          4    1    6    6  503    0 -0.10448864200E+01  0.12071838122E+02  0.51120649455E+02  0.52537052296E+02  0.00000000000E+00 0. -1.
         -4    1    6    6    0  503 -0.27166595380E+03  0.25404193506E+02  0.50541296413E+03  0.57436053817E+03  0.00000000000E+00 0.  1.
<mgrwt>
<rscale>  0 0.15362121E+04</rscale>
<asrwt>0</asrwt>
<pdfrwt beam="1">  1        2 0.12571803E+00 0.15362121E+04</pdfrwt>
<pdfrwt beam="2">  1       -1 0.11107546E+00 0.15362121E+04</pdfrwt>
<totfact> 0.27475232E+01</totfact>
</mgrwt>
</event>
<event>
12    6  0.1556619E-007  0.1178259E+04  0.7818608E-02  0.9132102E-01
          2   -1    0    0  501    0  0.00000000000E+00  0.00000000000E+00  0.57698214075E+03  0.57698214075E+03  0.00000000000E+00 0. -1.
         -1   -1    0    0    0  501 -0.00000000000E+00 -0.00000000000E+00 -0.60153293021E+03  0.60153293021E+03  0.00000000000E+00 0.  1.
         24    2    1    2    0    0 -0.53313721260E+02 -0.23160261214E+03 -0.28134582547E+02  0.25225310459E+03  0.79736762009E+02 0.  0.
        254    2    1    2    0    0  0.53313721260E+02  0.23160261214E+03  0.35837930814E+01  0.92626196637E+03  0.89524648223E+03 0.  0.
         23    2    4    4    0    0  0.12590262059E+03  0.30198796803E+03  0.38964220376E+03  0.51681324361E+03  0.90701042512E+02 0.  0.
         23    2    4    4    0    0 -0.72588899327E+02 -0.70385355889E+02 -0.38605841068E+03  0.40944872276E+03  0.91563712705E+02 0.  0.
          2    1    3    3  502    0 -0.64244998031E+01  0.54262270458E+01 -0.43368309339E+01  0.94618307013E+01  0.00000000000E+00 0. -1.
         -1    1    3    3    0  502 -0.46889221457E+02 -0.23702883919E+03 -0.23797751613E+02  0.24279127389E+03  0.00000000000E+00 0.  1.
         11    1    5    5    0    0  0.13030053530E+03  0.24752520973E+03  0.35560079477E+03  0.45243660793E+03  0.00000000000E+00 0.  1.
        -11    1    5    5    0    0 -0.43979147153E+01  0.54462758303E+02  0.34041408990E+02  0.64376635683E+02  0.00000000000E+00 0. -1.
          3    1    6    6  503    0 -0.31428962532E+02  0.18997207400E+02 -0.81613297256E+02  0.89495272858E+02  0.00000000000E+00 0. -1.
         -3    1    6    6    0  503 -0.41159936795E+02 -0.89382563289E+02 -0.30444511342E+03  0.31995344990E+03  0.00000000000E+00 0.  1.
<mgrwt>
<rscale>  0 0.11782593E+04</rscale>
<asrwt>0</asrwt>
<pdfrwt beam="1">  1        2 0.88766483E-01 0.11782593E+04</pdfrwt>
<pdfrwt beam="2">  1       -1 0.92543528E-01 0.11782593E+04</pdfrwt>
<totfact> 0.66714575E+01</totfact>
</mgrwt>
</event>
<event>
12    6  0.1556619E-007  0.1924777E+04  0.7818608E-02  0.8642621E-01
         -1   -1    0    0    0  501 -0.00000000000E+00  0.00000000000E+00  0.78407563648E+03  0.78407563648E+03  0.00000000000E+00 0.  1.
          2   -1    0    0  501    0  0.00000000000E+00 -0.00000000000E+00 -0.11812527546E+04  0.11812527546E+04  0.00000000000E+00 0. -1.
         24    2    1    2    0    0 -0.53172783828E+02  0.16553225473E+02 -0.91600683970E+03  0.92124584951E+03  0.80771471761E+02 0.  0.
        254    2    1    2    0    0  0.53172783828E+02 -0.16553225473E+02  0.51882972163E+03  0.10440825415E+04  0.90433551255E+03 0.  0.
         23    2    4    4    0    0  0.45804896293E+03  0.95667539218E+02  0.27249605256E+03  0.54892024180E+03  0.89990014430E+02 0.  0.
         23    2    4    4    0    0 -0.40487617910E+03 -0.11222076469E+03  0.24633366907E+03  0.49516229972E+03  0.89371170482E+02 0.  0.
          2    1    3    3  502    0 -0.35168071956E+02 -0.28460185766E+02 -0.57968465917E+03  0.58144740049E+03  0.00000000000E+00 0. -1.
         -3    1    3    3    0  502 -0.18004711873E+02  0.45013411239E+02 -0.33632218053E+03  0.33979844902E+03  0.00000000000E+00 0.  1.
         11    1    5    5    0    0  0.21321923379E+03  0.42432706459E+02  0.75286774161E+02  0.23006754356E+03  0.00000000000E+00 0. -1.
        -11    1    5    5    0    0  0.24482972914E+03  0.53234832759E+02  0.19720927840E+03  0.31885269824E+03  0.00000000000E+00 0.  1.
          4    1    6    6  503    0 -0.31311777051E+03 -0.83643039687E+02  0.14360537444E+03  0.35448751722E+03  0.00000000000E+00 0.  1.
         -4    1    6    6    0  503 -0.91758408592E+02 -0.28577725004E+02  0.10272829462E+03  0.14067478250E+03  0.00000000000E+00 0. -1.
<mgrwt>
<rscale>  0 0.19247769E+04</rscale>
<asrwt>0</asrwt>
<pdfrwt beam="1">  1        2 0.18173119E+00 0.19247769E+04</pdfrwt>
<pdfrwt beam="2">  1       -1 0.12062702E+00 0.19247769E+04</pdfrwt>
<totfact> 0.12663654E+01</totfact>
</mgrwt>
</event>
<event>
12    6  0.1556619E-007  0.1458566E+04  0.7818608E-02  0.8912484E-01
         -1   -1    0    0    0  501 -0.00000000000E+00  0.00000000000E+00  0.17835421825E+03  0.17835421825E+03  0.00000000000E+00 0.  1.
          2   -1    0    0  501    0  0.00000000000E+00 -0.00000000000E+00 -0.29820068061E+04  0.29820068061E+04  0.00000000000E+00 0. -1.
         24    2    1    2    0    0 -0.84330800971E+02 -0.39934314805E+03 -0.11181250395E+04  0.11928729363E+04  0.78457658840E+02 0.  0.
        254    2    1    2    0    0  0.84330800971E+02  0.39934314805E+03 -0.16855275483E+04  0.19674880880E+04  0.92920375945E+03 0.  0.
         23    2    4    4    0    0 -0.36184208881E+03  0.16325246171E+03 -0.11747563056E+04  0.12436368343E+04  0.94863768842E+02 0.  0.
         23    2    4    4    0    0  0.44617288978E+03  0.23609068634E+03 -0.51077124274E+03  0.72385125375E+03  0.90908280099E+02 0.  0.
          4    1    3    3  502    0 -0.43348105953E+02 -0.19324267107E+03 -0.65540639692E+03  0.68467461859E+03  0.00000000000E+00 0. -1.
         -3    1    3    3    0  502 -0.40982695018E+02 -0.20610047698E+03 -0.46271864262E+03  0.50819831771E+03  0.00000000000E+00 0.  1.
         11    1    5    5    0    0 -0.14428844261E+02  0.23279403131E+02 -0.38563733427E+02  0.47299933326E+02  0.00000000000E+00 0. -1.
        -11    1    5    5    0    0 -0.34741324455E+03  0.13997305858E+03 -0.11361925722E+04  0.11963369010E+04  0.00000000000E+00 0.  1.
          4    1    6    6  503    0  0.20929066456E+03  0.74403519129E+02 -0.26807761068E+03  0.34814375088E+03  0.00000000000E+00 0. -1.
         -4    1    6    6    0  503  0.23688222522E+03  0.16168716722E+03 -0.24269363206E+03  0.37570750286E+03  0.00000000000E+00 0.  1.
<mgrwt>
<rscale>  0 0.14585657E+04</rscale>
<asrwt>0</asrwt>
<pdfrwt beam="1">  1        2 0.45877024E+00 0.14585657E+04</pdfrwt>
<pdfrwt beam="2">  1       -1 0.27439113E-01 0.14585657E+04</pdfrwt>
<totfact> 0.23705641E+01</totfact>
</mgrwt>
</event>
<event>
12    6  0.1556619E-007  0.1103549E+04  0.7818608E-02  0.9201739E-01
          2   -1    0    0  501    0  0.00000000000E+00  0.00000000000E+00  0.10593434006E+04  0.10593434006E+04  0.00000000000E+00 0. -1.
         -1   -1    0    0    0  501 -0.00000000000E+00 -0.00000000000E+00 -0.28739999286E+03  0.28739999286E+03  0.00000000000E+00 0.  1.
         24    2    1    2    0    0 -0.37750108969E+02  0.10870038727E+03  0.27712956837E+03  0.31079111263E+03  0.80928815060E+02 0.  0.
        254    2    1    2    0    0  0.37750108969E+02 -0.10870038727E+03  0.49481383934E+03  0.10359522808E+04  0.90283749788E+03 0.  0.
         23    2    4    4    0    0 -0.18703500548E+03 -0.43391547140E+03  0.38806076688E+03  0.61795780040E+03  0.89531864122E+02 0.  0.
         23    2    4    4    0    0  0.22478511445E+03  0.32521508413E+03  0.10675307245E+03  0.41799448040E+03  0.83844907655E+02 0.  0.
          2    1    3    3  502    0 -0.53200649167E+02  0.58353490010E+02  0.21666994949E+03  0.23061072369E+03  0.00000000000E+00 0. -1.
         -3    1    3    3    0  502  0.15450540198E+02  0.50346897258E+02  0.60459618874E+02  0.80180388939E+02  0.00000000000E+00 0.  1.
         11    1    5    5    0    0 -0.10503361699E+03 -0.14209000786E+03  0.12305385753E+03  0.21532274121E+03  0.00000000000E+00 0.  1.
        -11    1    5    5    0    0 -0.82001388493E+02 -0.29182546354E+03  0.26500690935E+03  0.40263505919E+03  0.00000000000E+00 0. -1.
          1    1    6    6  503    0  0.25201342645E+02  0.96049264206E+02  0.38701495632E+02  0.10657567541E+03  0.00000000000E+00 0. -1.
         -1    1    6    6    0  503  0.19958377180E+03  0.22916581992E+03  0.68051576822E+02  0.31141880498E+03  0.00000000000E+00 0.  1.
<mgrwt>
<rscale>  0 0.11035493E+04</rscale>
<asrwt>0</asrwt>
<pdfrwt beam="1">  1        2 0.16297591E+00 0.11035493E+04</pdfrwt>
<pdfrwt beam="2">  1       -1 0.44215384E-01 0.11035493E+04</pdfrwt>
<totfact> 0.13221313E+02</totfact>
</mgrwt>
</event>
<event>
12    6  0.1556619E-007  0.1594573E+04  0.7818608E-02  0.8823889E-01
         -1   -1    0    0    0  501 -0.00000000000E+00  0.00000000000E+00  0.10249801929E+04  0.10249801929E+04  0.00000000000E+00 0.  1.
          2   -1    0    0  501    0  0.00000000000E+00 -0.00000000000E+00 -0.62017400824E+03  0.62017400824E+03  0.00000000000E+00 0. -1.
         24    2    1    2    0    0 -0.30126090865E+03 -0.44723985621E+03  0.16069941191E+03  0.56829852987E+03  0.79732640784E+02 0.  0.
        254    2    1    2    0    0  0.30126090865E+03  0.44723985621E+03  0.24410677279E+03  0.10768556713E+04  0.89958234545E+03 0.  0.
         23    2    4    4    0    0  0.32999043906E+03 -0.19193355414E+03  0.16437792373E+03  0.42572896863E+03  0.92156789494E+02 0.  0.
         23    2    4    4    0    0 -0.28729530405E+02  0.63917341035E+03  0.79728849056E+02  0.65112670267E+03  0.90781381039E+02 0.  0.
          4    1    3    3  502    0 -0.57095521113E+02 -0.13431350994E+03  0.66386538553E+02  0.16033461880E+03  0.00000000000E+00 0. -1.
         -3    1    3    3    0  502 -0.24416538754E+03 -0.31292634626E+03  0.94312873352E+02  0.40796391107E+03  0.00000000000E+00 0.  1.
         11    1    5    5    0    0  0.27312600162E+03 -0.19508562271E+03  0.14420797146E+03  0.36531103457E+03  0.00000000000E+00 0. -1.
        -11    1    5    5    0    0  0.56864437441E+02  0.31520685690E+01  0.20169952266E+02  0.60417934060E+02  0.00000000000E+00 0.  1.
          3    1    6    6  503    0 -0.29149174236E+02  0.42757213015E+03  0.95024314121E+02  0.43897291615E+03  0.00000000000E+00 0. -1.
         -3    1    6    6    0  503  0.41964383072E+00  0.21160128020E+03 -0.15295465065E+02  0.21215378652E+03  0.00000000000E+00 0.  1.
<mgrwt>
<rscale>  0 0.15945734E+04</rscale>
<asrwt>0</asrwt>
<pdfrwt beam="1">  1        2 0.95411386E-01 0.15945734E+04</pdfrwt>
<pdfrwt beam="2">  1       -1 0.15768926E+00 0.15945734E+04</pdfrwt>
<totfact> 0.15889309E+01</totfact>
</mgrwt>
</event>
<event>
12    6  0.1556619E-007  0.1155051E+04  0.7818608E-02  0.9153136E-01
          4   -1    0    0  501    0  0.00000000000E+00  0.00000000000E+00  0.88478282705E+03  0.88478282705E+03  0.00000000000E+00 0. -1.
         -3   -1    0    0    0  501 -0.00000000000E+00 -0.00000000000E+00 -0.37696919394E+03  0.37696919394E+03  0.00000000000E+00 0.  1.
         24    2    1    2    0    0 -0.47686750985E+02 -0.60814523834E+02 -0.11742876188E+03  0.16089117135E+03  0.78256133134E+02 0.  0.
        254    2    1    2    0    0  0.47686750985E+02  0.60814523834E+02  0.62524239499E+03  0.11008608496E+04  0.90277025053E+03 0.  0.
         23    2    4    4    0    0 -0.29828211225E+03 -0.58574055981E+02  0.64967560099E+03  0.72298167954E+03  0.90669641611E+02 0.  0.
         23    2    4    4    0    0  0.34596886324E+03  0.11938857981E+03 -0.24433205996E+02  0.37787917009E+03  0.90816288816E+02 0.  0.
          4    1    3    3  502    0  0.41256683439E+01 -0.16860163352E+01  0.10121135899E+02  0.11058986493E+02  0.00000000000E+00 0. -1.
         -3    1    3    3    0  502 -0.51812419329E+02 -0.59128507499E+02 -0.12754989778E+03  0.14983218486E+03  0.00000000000E+00 0.  1.
         11    1    5    5    0    0 -0.77763719853E+02 -0.19317370632E+02  0.27523859866E+03  0.28666468761E+03  0.00000000000E+00 0. -1.
        -11    1    5    5    0    0 -0.22051839240E+03 -0.39256685348E+02  0.37443700233E+03  0.43631699193E+03  0.00000000000E+00 0.  1.
          1    1    6    6  503    0  0.16906652336E+03  0.50303297599E+02 -0.56622931719E+02  0.18525676092E+03  0.00000000000E+00 0. -1.
         -1    1    6    6    0  503  0.17690233988E+03  0.69085282215E+02  0.32189725723E+02  0.19262240917E+03  0.00000000000E+00 0.  1.
<mgrwt>
<rscale>  0 0.11550513E+04</rscale>
<asrwt>0</asrwt>
<pdfrwt beam="1">  1        4 0.13612043E+00 0.11550513E+04</pdfrwt>
<pdfrwt beam="2">  1       -3 0.57995261E-01 0.11550513E+04</pdfrwt>
<totfact> 0.25341255E+00</totfact>
</mgrwt>
</event>
<event>
12    6  0.1556619E-007  0.1909858E+04  0.7818608E-02  0.8649965E-01
         -1   -1    0    0    0  501 -0.00000000000E+00  0.00000000000E+00  0.84996464373E+03  0.84996464373E+03  0.00000000000E+00 0.  1.
          2   -1    0    0  501    0  0.00000000000E+00 -0.00000000000E+00 -0.10728558023E+04  0.10728558023E+04  0.00000000000E+00 0. -1.
         24    2    1    2    0    0 -0.33728061344E+02  0.50345817874E+03 -0.65326481021E+03  0.82936400755E+03  0.80511023526E+02 0.  0.
        254    2    1    2    0    0  0.33728061344E+02 -0.50345817874E+03  0.43037365163E+03  0.10934564385E+04  0.86937781373E+03 0.  0.
         23    2    4    4    0    0  0.29350792268E+03 -0.38843446998E+03  0.57703135294E+03  0.76081816280E+03  0.94078990387E+02 0.  0.
         23    2    4    4    0    0 -0.25977986133E+03 -0.11502370876E+03 -0.14665770131E+03  0.33263827569E+03  0.91780777772E+02 0.  0.
          2    1    3    3  502    0 -0.36377558964E+02  0.43826281873E+03 -0.60617881088E+03  0.74889944307E+03  0.00000000000E+00 0. -1.
         -3    1    3    3    0  502  0.26494976202E+01  0.65195360005E+02 -0.47085999328E+02  0.80464564477E+02  0.00000000000E+00 0.  1.
         11    1    5    5    0    0  0.15634782009E+03 -0.15152043351E+03  0.20604323616E+03  0.29976140142E+03  0.00000000000E+00 0.  1.
        -11    1    5    5    0    0  0.13716010259E+03 -0.23691403647E+03  0.37098811679E+03  0.46105676138E+03  0.00000000000E+00 0. -1.
          1    1    6    6  503    0 -0.18829275959E+02  0.12331986019E+02  0.12675536847E+01  0.22543872885E+02  0.00000000000E+00 0. -1.
         -1    1    6    6    0  503 -0.24095058537E+03 -0.12735569478E+03 -0.14792525499E+03  0.31009440280E+03  0.00000000000E+00 0.  1.
<mgrwt>
<rscale>  0 0.19098581E+04</rscale>
<asrwt>0</asrwt>
<pdfrwt beam="1">  1        2 0.16505474E+00 0.19098581E+04</pdfrwt>
<pdfrwt beam="2">  1       -1 0.13076379E+00 0.19098581E+04</pdfrwt>
<totfact> 0.12080623E+01</totfact>
</mgrwt>
</event>
<event>
12    6  0.1556619E-007  0.3044221E+04  0.7818608E-02  0.8231215E-01
          2   -1    0    0  501    0  0.00000000000E+00  0.00000000000E+00  0.12555351980E+04  0.12555351980E+04  0.00000000000E+00 0. -1.
         -1   -1    0    0    0  501 -0.00000000000E+00 -0.00000000000E+00 -0.18452846606E+04  0.18452846606E+04  0.00000000000E+00 0.  1.
         24    2    1    2    0    0 -0.35687525099E+03  0.54537186771E+03 -0.15164054780E+04  0.16524614081E+04  0.79703908173E+02 0.  0.
        254    2    1    2    0    0  0.35687525099E+03 -0.54537186771E+03  0.92665601526E+03  0.14483584505E+04  0.90236379113E+03 0.  0.
         23    2    4    4    0    0  0.13747650898E+03  0.46764901555E+02  0.77320575101E+03  0.79214454234E+03  0.92515382679E+02 0.  0.
         23    2    4    4    0    0  0.21939874201E+03 -0.59213676926E+03  0.15345026426E+03  0.65621390812E+03  0.91147946227E+02 0.  0.
          2    1    3    3  502    0 -0.30325214885E+03  0.50056091005E+03 -0.13176354454E+04  0.14417649799E+04  0.00000000000E+00 0. -1.
         -1    1    3    3    0  502 -0.53623102137E+02  0.44810957662E+02 -0.19877003259E+03  0.21069642822E+03  0.00000000000E+00 0.  1.
         11    1    5    5    0    0 -0.43511873120E+01  0.23350362367E+02  0.58721263318E+02  0.63343184474E+02  0.00000000000E+00 0. -1.
        -11    1    5    5    0    0  0.14182769629E+03  0.23414539188E+02  0.71448448769E+03  0.72880135787E+03  0.00000000000E+00 0.  1.
          2    1    6    6  503    0  0.15747690457E+03 -0.46249093669E+03  0.15489474325E+03  0.51253216824E+03  0.00000000000E+00 0. -1.
         -2    1    6    6    0  503  0.61921837435E+02 -0.12964583257E+03 -0.14444789985E+01  0.14368173988E+03  0.00000000000E+00 0.  1.
<mgrwt>
<rscale>  0 0.30442207E+04</rscale>
<asrwt>0</asrwt>
<pdfrwt beam="1">  1        2 0.19315926E+00 0.30442207E+04</pdfrwt>
<pdfrwt beam="2">  1       -1 0.28388995E+00 0.30442207E+04</pdfrwt>
<totfact> 0.71629689E-01</totfact>
</mgrwt>
</event>
<event>
12    6  0.1556619E-007  0.1168713E+04  0.7818608E-02  0.9140692E-01
          2   -1    0    0  501    0  0.00000000000E+00  0.00000000000E+00  0.42537028351E+03  0.42537028351E+03  0.00000000000E+00 0. -1.
         -1   -1    0    0    0  501 -0.00000000000E+00 -0.00000000000E+00 -0.80276512938E+03  0.80276512938E+03  0.00000000000E+00 0.  1.
         24    2    1    2    0    0  0.15069506688E+03 -0.15874040714E+03 -0.84015264282E+02  0.24949862189E+03  0.85343292971E+02 0.  0.
        254    2    1    2    0    0 -0.15069506688E+03  0.15874040714E+03 -0.29337958159E+03  0.97863679099E+03  0.90760722218E+03 0.  0.
         23    2    4    4    0    0 -0.37353121814E+03  0.42477392559E+03 -0.15497248897E+03  0.59375627764E+03  0.92582860802E+02 0.  0.
         23    2    4    4    0    0  0.22283615126E+03 -0.26603351845E+03 -0.13840709262E+03  0.38488051336E+03  0.92448380336E+02 0.  0.
          2    1    3    3  502    0  0.10369382284E+03 -0.81069935772E+02 -0.93519354308E+01  0.13195530333E+03  0.00000000000E+00 0. -1.
         -1    1    3    3    0  502  0.47001244038E+02 -0.77670471363E+02 -0.74663328851E+02  0.11754331856E+03  0.00000000000E+00 0.  1.
         11    1    5    5    0    0 -0.48415297802E+02  0.25039464620E+02 -0.34812496051E+02  0.64675541985E+02  0.00000000000E+00 0.  1.
        -11    1    5    5    0    0 -0.32511592033E+03  0.39973446097E+03 -0.12015999292E+03  0.52908073565E+03  0.00000000000E+00 0. -1.
          3    1    6    6  503    0  0.23014210103E+03 -0.24808037301E+03 -0.12276354542E+03  0.35997242426E+03  0.00000000000E+00 0. -1.
         -3    1    6    6    0  503 -0.73059497793E+01 -0.17953145441E+02 -0.15643547206E+02  0.24908089100E+02  0.00000000000E+00 0.  1.
<mgrwt>
<rscale>  0 0.11687128E+04</rscale>
<asrwt>0</asrwt>
<pdfrwt beam="1">  1        2 0.65441582E-01 0.11687128E+04</pdfrwt>
<pdfrwt beam="2">  1       -1 0.12350233E+00 0.11687128E+04</pdfrwt>
<totfact> 0.48403737E+01</totfact>
</mgrwt>
</event>
<event>
12    6  0.1556619E-007  0.3806361E+04  0.7818608E-02  0.8044791E-01
          2   -1    0    0  501    0  0.00000000000E+00  0.00000000000E+00  0.24415799850E+04  0.24415799850E+04  0.00000000000E+00 0. -1.
         -3   -1    0    0    0  501 -0.00000000000E+00 -0.00000000000E+00 -0.14835048744E+04  0.14835048744E+04  0.00000000000E+00 0.  1.
         24    2    1    2    0    0 -0.10407829245E+04  0.10575935619E+04 -0.58989609929E+03  0.15987853210E+04  0.80024099073E+02 0.  0.
        254    2    1    2    0    0  0.10407829245E+04 -0.10575935619E+04  0.15479712099E+04  0.23262995385E+04  0.90206509627E+03 0.  0.
         23    2    4    4    0    0  0.10733006697E+04 -0.10630808827E+04  0.16064699004E+04  0.22070295165E+04  0.90102469530E+02 0.  0.
         23    2    4    4    0    0 -0.32517745204E+02  0.54873207983E+01 -0.58498690533E+02  0.11927002196E+03  0.98568386928E+02 0.  0.
          4    1    3    3  502    0 -0.46986040080E+02  0.66181579801E+02 -0.18856212492E+02  0.83326143658E+02  0.00000000000E+00 0. -1.
         -3    1    3    3    0  502 -0.99379688445E+03  0.99141198213E+03 -0.57103988679E+03  0.15154591773E+04  0.00000000000E+00 0.  1.
         11    1    5    5    0    0  0.97962919743E+03 -0.95472259871E+03  0.14172642577E+04  0.19697224630E+04  0.00000000000E+00 0.  1.
        -11    1    5    5    0    0  0.93671472308E+02 -0.10835828402E+03  0.18920564267E+03  0.23730705353E+03  0.00000000000E+00 0. -1.
          4    1    6    6  503    0 -0.14100297586E+01 -0.21846380135E+01 -0.80411500629E+02  0.80453528577E+02  0.00000000000E+00 0.  1.
         -4    1    6    6    0  503 -0.31107715445E+02  0.76719588117E+01  0.21912810096E+02  0.38816493383E+02  0.00000000000E+00 0. -1.
<mgrwt>
<rscale>  0 0.38063609E+04</rscale>
<asrwt>0</asrwt>
<pdfrwt beam="1">  1        2 0.37562769E+00 0.38063609E+04</pdfrwt>
<pdfrwt beam="2">  1       -3 0.22823152E+00 0.38063609E+04</pdfrwt>
<totfact> 0.18719493E-01</totfact>
</mgrwt>
</event>
<event>
12    6  0.1556619E-007  0.2977309E+04  0.7818608E-02  0.8250240E-01
         -1   -1    0    0    0  501 -0.00000000000E+00  0.00000000000E+00  0.10381825048E+04  0.10381825048E+04  0.00000000000E+00 0.  1.
          2   -1    0    0  501    0  0.00000000000E+00 -0.00000000000E+00 -0.21345877447E+04  0.21345877447E+04  0.00000000000E+00 0. -1.
         24    2    1    2    0    0 -0.36624842873E+03  0.47405952141E+03 -0.17871491584E+04  0.18880637488E+04  0.10960047356E+03 0.  0.
        254    2    1    2    0    0  0.36624842873E+03 -0.47405952141E+03  0.69074391849E+03  0.12847065007E+04  0.90248173981E+03 0.  0.
         23    2    4    4    0    0  0.49722769729E+03 -0.19878451002E+03  0.20724393926E+02  0.54380876091E+03  0.92454332278E+02 0.  0.
         23    2    4    4    0    0 -0.13097926857E+03 -0.27527501140E+03  0.67001952456E+03  0.74089773982E+03  0.84091598184E+02 0.  0.
          2    1    3    3  502    0 -0.25351446343E+03  0.33319008840E+03 -0.10814018196E+04  0.11596185207E+04  0.00000000000E+00 0. -1.
         -1    1    3    3    0  502 -0.11273396530E+03  0.14086943301E+03 -0.70574733886E+03  0.72844522814E+03  0.00000000000E+00 0.  1.
         11    1    5    5    0    0  0.47843388228E+03 -0.17832134331E+03  0.25192262268E+01  0.51059164475E+03  0.00000000000E+00 0. -1.
        -11    1    5    5    0    0  0.18793815016E+02 -0.20463166711E+02  0.18205167699E+02  0.33217116155E+02  0.00000000000E+00 0.  1.
          2    1    6    6  503    0 -0.19514948540E+02 -0.13610889901E+03  0.27268381265E+03  0.30538979565E+03  0.00000000000E+00 0. -1.
         -2    1    6    6    0  503 -0.11146432003E+03 -0.13916611239E+03  0.39733571191E+03  0.43550794417E+03  0.00000000000E+00 0.  1.
<mgrwt>
<rscale>  0 0.29773086E+04</rscale>
<asrwt>0</asrwt>
<pdfrwt beam="1">  1        2 0.32839811E+00 0.29773086E+04</pdfrwt>
<pdfrwt beam="2">  1       -1 0.15972039E+00 0.29773086E+04</pdfrwt>
<totfact> 0.16095356E+00</totfact>
</mgrwt>
</event>
<event>
12    6  0.1556619E-007  0.2033808E+04  0.7818608E-02  0.8590975E-01
         -1   -1    0    0    0  501 -0.00000000000E+00  0.00000000000E+00  0.32308540398E+03  0.32308540398E+03  0.00000000000E+00 0.  1.
          2   -1    0    0  501    0  0.00000000000E+00 -0.00000000000E+00 -0.32006830959E+04  0.32006830959E+04  0.00000000000E+00 0. -1.
         24    2    1    2    0    0  0.41636159205E+03  0.67276541932E+03 -0.14934085442E+04  0.16918955224E+04  0.79190241536E+02 0.  0.
        254    2    1    2    0    0 -0.41636159205E+03 -0.67276541932E+03 -0.13841891478E+04  0.18318729775E+04  0.90211347620E+03 0.  0.
         23    2    4    4    0    0  0.12522844860E+02 -0.74497875924E+03 -0.94490075642E+03  0.12069736198E+04  0.93796087544E+02 0.  0.
         23    2    4    4    0    0 -0.42888443691E+03  0.72213339918E+02 -0.43928839137E+03  0.62489935767E+03  0.91478356651E+02 0.  0.
          2    1    3    3  502    0  0.22477645815E+03  0.30192118466E+03 -0.65956849175E+03  0.75941520474E+03  0.00000000000E+00 0. -1.
         -1    1    3    3    0  502  0.19158513390E+03  0.37084423465E+03 -0.83384005240E+03  0.93248031770E+03  0.00000000000E+00 0.  1.
         11    1    5    5    0    0 -0.24619562692E+02 -0.31204831429E+03 -0.45317843861E+03  0.55077306628E+03  0.00000000000E+00 0.  1.
        -11    1    5    5    0    0  0.37142407552E+02 -0.43293044495E+03 -0.49172231782E+03  0.65620055352E+03  0.00000000000E+00 0. -1.
          4    1    6    6  503    0 -0.30557970741E+03  0.85194127719E+02 -0.28065739596E+03  0.42356294796E+03  0.00000000000E+00 0. -1.
         -4    1    6    6    0  503 -0.12330472950E+03 -0.12980787801E+02 -0.15863099541E+03  0.20133640970E+03  0.00000000000E+00 0.  1.
<mgrwt>
<rscale>  0 0.20338082E+04</rscale>
<asrwt>0</asrwt>
<pdfrwt beam="1">  1        2 0.49241276E+00 0.20338082E+04</pdfrwt>
<pdfrwt beam="2">  1       -1 0.49705449E-01 0.20338082E+04</pdfrwt>
<totfact> 0.55632889E+00</totfact>
</mgrwt>
</event>
<event>
12    6  0.1556619E-007  0.1861877E+04  0.7818608E-02  0.8674069E-01
          2   -1    0    0  501    0  0.00000000000E+00  0.00000000000E+00  0.27560839613E+04  0.27560839613E+04  0.00000000000E+00 0. -1.
         -1   -1    0    0    0  501 -0.00000000000E+00 -0.00000000000E+00 -0.31444858860E+03  0.31444858860E+03  0.00000000000E+00 0.  1.
         24    2    1    2    0    0  0.24050468601E+03  0.27652669697E+03 -0.70598588269E+02  0.38136307698E+03  0.78384422449E+02 0.  0.
        254    2    1    2    0    0 -0.24050468601E+03 -0.27652669697E+03  0.25122339610E+04  0.26891694729E+04  0.88656836244E+03 0.  0.
         23    2    4    4    0    0 -0.47953037378E+03 -0.29771576869E+03  0.97322139660E+03  0.11289019621E+04  0.93143410445E+02 0.  0.
         23    2    4    4    0    0  0.23902568777E+03  0.21189071712E+02  0.15390125644E+04  0.15602675108E+04  0.91064679660E+02 0.  0.
          4    1    3    3  502    0  0.64430801707E+02  0.84295094562E+02  0.14628935070E+02  0.10710274001E+03  0.00000000000E+00 0. -1.
         -3    1    3    3    0  502  0.17607388430E+03  0.19223160241E+03 -0.85227523339E+02  0.27426033697E+03  0.00000000000E+00 0.  1.
         11    1    5    5    0    0 -0.41647929262E+03 -0.28271330379E+03  0.89928865725E+03  0.10305832826E+04  0.00000000000E+00 0.  1.
        -11    1    5    5    0    0 -0.63051081158E+02 -0.15002464894E+02  0.73932739347E+02  0.98318679484E+02  0.00000000000E+00 0. -1.
          2    1    6    6  503    0  0.11366559936E+03 -0.20044803859E+02  0.92907456687E+03  0.93621643515E+03  0.00000000000E+00 0. -1.
         -2    1    6    6    0  503  0.12536008841E+03  0.41233875572E+02  0.60993799750E+03  0.62405107568E+03  0.00000000000E+00 0.  1.
<mgrwt>
<rscale>  0 0.18618772E+04</rscale>
<asrwt>0</asrwt>
<pdfrwt beam="1">  1        2 0.42401290E+00 0.18618772E+04</pdfrwt>
<pdfrwt beam="2">  1       -1 0.48376708E-01 0.18618772E+04</pdfrwt>
<totfact> 0.11256831E+01</totfact>
</mgrwt>
</event>
<event>
12    6  0.1556619E-007  0.2659279E+04  0.7818608E-02  0.8348340E-01
          2   -1    0    0  501    0  0.00000000000E+00  0.00000000000E+00  0.21999777764E+04  0.21999777764E+04  0.00000000000E+00 0. -1.
         -1   -1    0    0    0  501 -0.00000000000E+00 -0.00000000000E+00 -0.80361797395E+03  0.80361797395E+03  0.00000000000E+00 0.  1.
         24    2    1    2    0    0 -0.18267941187E+03  0.90091374248E+03 -0.20315723596E+03  0.94479513600E+03  0.79672125472E+02 0.  0.
        254    2    1    2    0    0  0.18267941187E+03 -0.90091374248E+03  0.15995170385E+04  0.20588006144E+04  0.91388613875E+03 0.  0.
         23    2    4    4    0    0 -0.28093141430E+03 -0.25918154408E+02  0.45510208832E+03  0.54252655677E+03  0.87309471036E+02 0.  0.
         23    2    4    4    0    0  0.46361082617E+03 -0.87499558807E+03  0.11444149501E+04  0.15162740576E+04  0.94069986945E+02 0.  0.
          2    1    3    3  502    0 -0.38775139303E+02  0.21605272461E+03 -0.83353331417E+02  0.23479793248E+03  0.00000000000E+00 0. -1.
         -1    1    3    3    0  502 -0.14390427257E+03  0.68486101787E+03 -0.11980390455E+03  0.70999720352E+03  0.00000000000E+00 0.  1.
         11    1    5    5    0    0 -0.71332488167E+02 -0.25946780988E+02  0.66104890982E+02  0.10065493492E+03  0.00000000000E+00 0. -1.
        -11    1    5    5    0    0 -0.20959892613E+03  0.28626579267E-01  0.38899719734E+03  0.44187162185E+03  0.00000000000E+00 0.  1.
          4    1    6    6  503    0  0.16071542337E+03 -0.26717017689E+03  0.42312325344E+03  0.52558789781E+03  0.00000000000E+00 0. -1.
         -4    1    6    6    0  503  0.30289540281E+03 -0.60782541118E+03  0.72129169670E+03  0.99068615982E+03  0.00000000000E+00 0.  1.
<mgrwt>
<rscale>  0 0.26592794E+04</rscale>
<asrwt>0</asrwt>
<pdfrwt beam="1">  1        2 0.33845812E+00 0.26592794E+04</pdfrwt>
<pdfrwt beam="2">  1       -1 0.12363354E+00 0.26592794E+04</pdfrwt>
<totfact> 0.29731335E+00</totfact>
</mgrwt>
</event>
<event>
12    6  0.1556619E-007  0.1678394E+04  0.7818608E-02  0.8773784E-01
          2   -1    0    0  501    0  0.00000000000E+00  0.00000000000E+00  0.11026502770E+04  0.11026502770E+04  0.00000000000E+00 0. -1.
         -1   -1    0    0    0  501 -0.00000000000E+00 -0.00000000000E+00 -0.63868971706E+03  0.63868971706E+03  0.00000000000E+00 0.  1.
         24    2    1    2    0    0  0.21903987679E+03 -0.44145751901E+03  0.50744984072E+03  0.71217846443E+03  0.82641488580E+02 0.  0.
        254    2    1    2    0    0 -0.21903987679E+03  0.44145751901E+03 -0.43489280785E+02  0.10291615296E+04  0.90245162076E+03 0.  0.
         23    2    4    4    0    0 -0.48389490726E+03  0.23706119972E+03 -0.27510014269E+03  0.61160186368E+03  0.89579336146E+02 0.  0.
         23    2    4    4    0    0  0.26485503047E+03  0.20439631929E+03  0.23161086191E+03  0.41755966595E+03  0.93736016403E+02 0.  0.
          2    1    3    3  502    0  0.16813342020E+03 -0.33102883866E+03  0.42954392766E+03  0.56776484992E+03  0.00000000000E+00 0. -1.
         -1    1    3    3    0  502  0.50906456586E+02 -0.11042868035E+03  0.77905913061E+02  0.14441361451E+03  0.00000000000E+00 0.  1.
         11    1    5    5    0    0 -0.29116602033E+03  0.18446615006E+03 -0.15013285243E+03  0.37595915376E+03  0.00000000000E+00 0. -1.
        -11    1    5    5    0    0 -0.19272888692E+03  0.52595049657E+02 -0.12496729026E+03  0.23564270992E+03  0.00000000000E+00 0.  1.
          4    1    6    6  503    0  0.12664722878E+03  0.40373428303E+02  0.90940716586E+02  0.16105821371E+03  0.00000000000E+00 0. -1.
         -4    1    6    6    0  503  0.13820780168E+03  0.16402289099E+03  0.14067014532E+03  0.25650145224E+03  0.00000000000E+00 0.  1.
<mgrwt>
<rscale>  0 0.16783937E+04</rscale>
<asrwt>0</asrwt>
<pdfrwt beam="1">  1        2 0.16963850E+00 0.16783937E+04</pdfrwt>
<pdfrwt beam="2">  1       -1 0.98259957E-01 0.16783937E+04</pdfrwt>
<totfact> 0.23412588E+01</totfact>
</mgrwt>
</event>
<event>
12    6  0.1556619E-007  0.1382515E+04  0.7818608E-02  0.8966573E-01
          2   -1    0    0  501    0  0.00000000000E+00  0.00000000000E+00  0.67483511141E+03  0.67483511141E+03  0.00000000000E+00 0. -1.
         -1   -1    0    0    0  501 -0.00000000000E+00 -0.00000000000E+00 -0.70807996588E+03  0.70807996588E+03  0.00000000000E+00 0.  1.
         24    2    1    2    0    0  0.15032448962E+03  0.11385866894E+03  0.33035617487E+03  0.38845899144E+03  0.78765075279E+02 0.  0.
        254    2    1    2    0    0 -0.15032448962E+03 -0.11385866894E+03 -0.36360102934E+03  0.99445608585E+03  0.90618759066E+03 0.  0.
         23    2    4    4    0    0 -0.35244701241E+03 -0.28621686925E+02  0.17483268128E+03  0.40518210650E+03  0.92563359192E+02 0.  0.
         23    2    4    4    0    0  0.20212252278E+03 -0.85236982013E+02 -0.53843371062E+03  0.58927397935E+03  0.95990128048E+02 0.  0.
          2    1    3    3  502    0  0.94454078531E+02  0.51658028442E+02  0.25131287902E+03  0.27340133141E+03  0.00000000000E+00 0. -1.
         -1    1    3    3    0  502  0.55870411092E+02  0.62200640495E+02  0.79043295851E+02  0.11505766003E+03  0.00000000000E+00 0.  1.
         11    1    5    5    0    0 -0.23871237308E+03 -0.48127729673E+02  0.81580296617E+02  0.25681748426E+03  0.00000000000E+00 0. -1.
        -11    1    5    5    0    0 -0.11373463933E+03  0.19506042749E+02  0.93252384663E+02  0.14836462224E+03  0.00000000000E+00 0.  1.
          3    1    6    6  503    0  0.12159630688E+03 -0.26633714667E+02 -0.19209929642E+03  0.22890425135E+03  0.00000000000E+00 0. -1.
         -3    1    6    6    0  503  0.80526215903E+02 -0.58603267346E+02 -0.34633441421E+03  0.36036972799E+03  0.00000000000E+00 0.  1.
<mgrwt>
<rscale>  0 0.13825154E+04</rscale>
<asrwt>0</asrwt>
<pdfrwt beam="1">  1        2 0.10382079E+00 0.13825154E+04</pdfrwt>
<pdfrwt beam="2">  1       -1 0.10893538E+00 0.13825154E+04</pdfrwt>
<totfact> 0.37320512E+01</totfact>
</mgrwt>
</event>
<event>
12    6  0.1556619E-007  0.1619939E+04  0.7818608E-02  0.8808392E-01
          2   -1    0    0  501    0  0.00000000000E+00  0.00000000000E+00  0.14706444506E+04  0.14706444506E+04  0.00000000000E+00 0. -1.
         -1   -1    0    0    0  501 -0.00000000000E+00 -0.00000000000E+00 -0.44609734063E+03  0.44609734063E+03  0.00000000000E+00 0.  1.
         24    2    1    2    0    0  0.41106652256E+03 -0.33195621560E+02 -0.81056813420E+02  0.42759392408E+03  0.78668428551E+02 0.  0.
        254    2    1    2    0    0 -0.41106652256E+03  0.33195621560E+02  0.11056039234E+04  0.14891478672E+04  0.90836319804E+03 0.  0.
         23    2    4    4    0    0 -0.66505367808E+02 -0.27454273860E+03  0.10840505831E+02  0.29752307581E+03  0.92767369275E+02 0.  0.
         23    2    4    4    0    0 -0.34456115475E+03  0.30773836016E+03  0.10947634176E+04  0.11916247914E+04  0.89651632561E+02 0.  0.
          2    1    3    3  502    0  0.22364219674E+03  0.23476858167E+01 -0.95200174588E+01  0.22385704037E+03  0.00000000000E+00 0. -1.
         -1    1    3    3    0  502  0.18742432583E+03 -0.35543307377E+02 -0.71536795961E+02  0.20373688372E+03  0.00000000000E+00 0.  1.
         11    1    5    5    0    0 -0.39071887282E+02 -0.27071495024E+02 -0.62848592950E+01  0.47947655573E+02  0.00000000000E+00 0. -1.
        -11    1    5    5    0    0 -0.27433480526E+02 -0.24747124358E+03  0.17125365126E+02  0.24957542023E+03  0.00000000000E+00 0.  1.
          3    1    6    6  503    0 -0.21227176023E+02  0.33657957635E+01  0.22835675898E+02  0.31359044577E+02  0.00000000000E+00 0. -1.
         -3    1    6    6    0  503 -0.32333397873E+03  0.30437256440E+03  0.10719277417E+04  0.11602657468E+04  0.00000000000E+00 0.  1.
<mgrwt>
<rscale>  0 0.16199390E+04</rscale>
<asrwt>0</asrwt>
<pdfrwt beam="1">  1        2 0.22625299E+00 0.16199390E+04</pdfrwt>
<pdfrwt beam="2">  1       -1 0.68630361E-01 0.16199390E+04</pdfrwt>
<totfact> 0.30919750E+01</totfact>
</mgrwt>
</event>
<event>
12    6  0.1556619E-007  0.1263622E+04  0.7818608E-02  0.9058922E-01
         -1   -1    0    0    0  501 -0.00000000000E+00  0.00000000000E+00  0.29269019510E+03  0.29269019510E+03  0.00000000000E+00 0.  1.
          2   -1    0    0  501    0  0.00000000000E+00 -0.00000000000E+00 -0.13638480952E+04  0.13638480952E+04  0.00000000000E+00 0. -1.
         24    2    1    2    0    0 -0.54158926080E+02  0.18824402798E+02  0.12117485472E+03  0.16664767113E+03  0.98997744730E+02 0.  0.
        254    2    1    2    0    0  0.54158926080E+02 -0.18824402798E+02 -0.11923327548E+04  0.14898906191E+04  0.89153189032E+03 0.  0.
         23    2    4    4    0    0  0.39498826668E+03 -0.21703313438E+03 -0.82002033425E+03  0.93990252641E+03  0.88680879201E+02 0.  0.
         23    2    4    4    0    0 -0.34082934060E+03  0.19820873158E+03 -0.37231242054E+03  0.54998809274E+03  0.91755234039E+02 0.  0.
          4    1    3    3  502    0 -0.41048419011E+02 -0.16593828636E+02  0.50821215120E+01  0.44566308027E+02  0.00000000000E+00 0. -1.
         -3    1    3    3    0  502 -0.13110507069E+02  0.35418231434E+02  0.11609273320E+03  0.12208136310E+03  0.00000000000E+00 0.  1.
         11    1    5    5    0    0  0.21832784703E+03 -0.13588539245E+03 -0.55030178165E+03  0.60742401958E+03  0.00000000000E+00 0.  1.
        -11    1    5    5    0    0  0.17666041964E+03 -0.81147741928E+02 -0.26971855260E+03  0.33247850683E+03  0.00000000000E+00 0. -1.
          4    1    6    6  503    0 -0.11543952520E+03  0.10455693749E+03 -0.10405130537E+03  0.18731020076E+03  0.00000000000E+00 0. -1.
         -4    1    6    6    0  503 -0.22538981539E+03  0.93651794090E+02 -0.26826111517E+03  0.36267789198E+03  0.00000000000E+00 0.  1.
<mgrwt>
<rscale>  0 0.12636217E+04</rscale>
<asrwt>0</asrwt>
<pdfrwt beam="1">  1        2 0.20982278E+00 0.12636217E+04</pdfrwt>
<pdfrwt beam="2">  1       -1 0.45029261E-01 0.12636217E+04</pdfrwt>
<totfact> 0.83120200E+01</totfact>
</mgrwt>
</event>
<event>
12    6  0.1556619E-007  0.1310573E+04  0.7818608E-02  0.9021222E-01
         -1   -1    0    0    0  501 -0.00000000000E+00  0.00000000000E+00  0.21878561549E+03  0.21878561549E+03  0.00000000000E+00 0.  1.
          2   -1    0    0  501    0  0.00000000000E+00 -0.00000000000E+00 -0.19626543933E+04  0.19626543933E+04  0.00000000000E+00 0. -1.
         24    2    1    2    0    0  0.92115187957E+02 -0.40118361306E+02  0.77800736048E+02  0.14999232304E+03  0.79687211498E+02 0.  0.
        254    2    1    2    0    0 -0.92115187957E+02  0.40118361306E+02 -0.18216695139E+04  0.20314476858E+04  0.89342329914E+03 0.  0.
         23    2    4    4    0    0  0.20169370687E+03  0.14892839954E+03 -0.16352565398E+04  0.16569128005E+04  0.91848013764E+02 0.  0.
         23    2    4    4    0    0 -0.29380889483E+03 -0.10881003823E+03 -0.18641297405E+03  0.37453488532E+03  0.85809628435E+02 0.  0.
          4    1    3    3  502    0  0.99683226998E+02 -0.44628592680E+02  0.48692728262E+02  0.11958026098E+03  0.00000000000E+00 0. -1.
         -3    1    3    3    0  502 -0.75680390416E+01  0.45102313735E+01  0.29108007787E+02  0.30412062069E+02  0.00000000000E+00 0.  1.
         11    1    5    5    0    0  0.18590957844E+02 -0.11111974996E+02 -0.85968046692E+02  0.88654411926E+02  0.00000000000E+00 0.  1.
        -11    1    5    5    0    0  0.18310274902E+03  0.16004037453E+03 -0.15492884932E+04  0.15682583885E+04  0.00000000000E+00 0. -1.
          1    1    6    6  503    0 -0.20753352434E+03 -0.10946756843E+03 -0.16111381210E+03  0.28462426585E+03  0.00000000000E+00 0. -1.
         -1    1    6    6    0  503 -0.86275370489E+02  0.65753019626E+00 -0.25299161951E+02  0.89910619475E+02  0.00000000000E+00 0.  1.
<mgrwt>
<rscale>  0 0.13105732E+04</rscale>
<asrwt>0</asrwt>
<pdfrwt beam="1">  1        2 0.30194683E+00 0.13105732E+04</pdfrwt>
<pdfrwt beam="2">  1       -1 0.33659325E-01 0.13105732E+04</pdfrwt>
<totfact> 0.65120184E+01</totfact>
</mgrwt>
</event>
<event>
12    6  0.1556619E-007  0.2074797E+04  0.7818608E-02  0.8572428E-01
          2   -1    0    0  501    0  0.00000000000E+00  0.00000000000E+00  0.15033036495E+04  0.15033036495E+04  0.00000000000E+00 0. -1.
         -1   -1    0    0    0  501 -0.00000000000E+00 -0.00000000000E+00 -0.71588685014E+03  0.71588685014E+03  0.00000000000E+00 0.  1.
         24    2    1    2    0    0 -0.58757445430E+03 -0.47404259081E+03 -0.79334060291E+02  0.76331523643E+03  0.79975870090E+02 0.  0.
        254    2    1    2    0    0  0.58757445430E+03  0.47404259081E+03  0.86675085965E+03  0.14558752632E+04  0.89350747735E+03 0.  0.
         23    2    4    4    0    0  0.69278475170E+03  0.35010494621E+02  0.42566307875E+03  0.81892858127E+03  0.90986359912E+02 0.  0.
         23    2    4    4    0    0 -0.10521029740E+03  0.43903209619E+03  0.44108778090E+03  0.63694668194E+03  0.85581873158E+02 0.  0.
          4    1    3    3  502    0 -0.23347897554E+02 -0.14325009414E+02  0.11812680625E+02  0.29830682836E+02  0.00000000000E+00 0. -1.
         -3    1    3    3    0  502 -0.56422655675E+03 -0.45971758139E+03 -0.91146740916E+02  0.73348455359E+03  0.00000000000E+00 0.  1.
         11    1    5    5    0    0  0.38927242758E+03  0.12011384983E+02  0.29059151056E+03  0.48592254759E+03  0.00000000000E+00 0. -1.
        -11    1    5    5    0    0  0.30351232412E+03  0.22999109638E+02  0.13507156818E+03  0.33300603368E+03  0.00000000000E+00 0.  1.
          4    1    6    6  503    0 -0.99227422955E+02  0.39003510133E+03  0.42429513598E+03  0.58480751034E+03  0.00000000000E+00 0.  1.
         -4    1    6    6    0  503 -0.59828744423E+01  0.48996994861E+02  0.16792644927E+02  0.52139171605E+02  0.00000000000E+00 0. -1.
<mgrwt>
<rscale>  0 0.20747967E+04</rscale>
<asrwt>0</asrwt>
<pdfrwt beam="1">  1        2 0.23127748E+00 0.20747967E+04</pdfrwt>
<pdfrwt beam="2">  1       -1 0.11013644E+00 0.20747967E+04</pdfrwt>
<totfact> 0.10119052E+01</totfact>
</mgrwt>
</event>
<event>
12    6  0.1556619E-007  0.3222679E+04  0.7818608E-02  0.8182853E-01
          2   -1    0    0  501    0  0.00000000000E+00  0.00000000000E+00  0.27650965050E+04  0.27650965050E+04  0.00000000000E+00 0. -1.
         -1   -1    0    0    0  501 -0.00000000000E+00 -0.00000000000E+00 -0.93899621582E+03  0.93899621582E+03  0.00000000000E+00 0.  1.
         24    2    1    2    0    0  0.11101913456E+04  0.78852524576E+03  0.20932178698E+03  0.13800249943E+04  0.79727581409E+02 0.  0.
        254    2    1    2    0    0 -0.11101913456E+04 -0.78852524576E+03  0.16167785022E+04  0.23240677266E+04  0.96593021770E+03 0.  0.
         23    2    4    4    0    0 -0.10857641130E+04 -0.46806947701E+03  0.77056754414E+03  0.14142219116E+04  0.90975441000E+02 0.  0.
         23    2    4    4    0    0 -0.24427232629E+02 -0.32045576875E+03  0.84621095811E+03  0.90984581499E+03  0.91966472241E+02 0.  0.
          4    1    3    3  502    0  0.11111764831E+03  0.10979677928E+03  0.21142013047E+02  0.15763708073E+03  0.00000000000E+00 0. -1.
         -3    1    3    3    0  502  0.99907369729E+03  0.67872846648E+03  0.18817977393E+03  0.12223879135E+04  0.00000000000E+00 0.  1.
         11    1    5    5    0    0 -0.98387679198E+03 -0.39990821142E+03  0.67059949178E+03  0.12560429124E+04  0.00000000000E+00 0. -1.
        -11    1    5    5    0    0 -0.10188732100E+03 -0.68161265584E+02  0.99968052358E+02  0.15817899924E+03  0.00000000000E+00 0.  1.
          2    1    6    6  503    0  0.33906065301E+02 -0.14696440067E+03  0.40519848632E+03  0.43235861231E+03  0.00000000000E+00 0. -1.
         -2    1    6    6    0  503 -0.58333297930E+02 -0.17349136808E+03  0.44101247179E+03  0.47748720268E+03  0.00000000000E+00 0.  1.
<mgrwt>
<rscale>  0 0.32226791E+04</rscale>
<asrwt>0</asrwt>
<pdfrwt beam="1">  1        2 0.42539946E+00 0.32226791E+04</pdfrwt>
<pdfrwt beam="2">  1       -1 0.14446096E+00 0.32226791E+04</pdfrwt>
<totfact> 0.89401364E-01</totfact>
</mgrwt>
</event>
<event>
12    6  0.1556619E-007  0.1478514E+04  0.7818608E-02  0.8898868E-01
         -1   -1    0    0    0  501 -0.00000000000E+00  0.00000000000E+00  0.45058681148E+03  0.45058681148E+03  0.00000000000E+00 0.  1.
          2   -1    0    0  501    0  0.00000000000E+00 -0.00000000000E+00 -0.12128655006E+04  0.12128655006E+04  0.00000000000E+00 0. -1.
         24    2    1    2    0    0 -0.31677538606E+03  0.17826392320E+03  0.77613709731E+02  0.38030493512E+03  0.80518843817E+02 0.  0.
        254    2    1    2    0    0  0.31677538606E+03 -0.17826392320E+03 -0.83989239889E+03  0.12831473770E+04  0.89940162211E+03 0.  0.
         23    2    4    4    0    0  0.48265075374E+03 -0.17120350137E+03 -0.93598056722E+03  0.10708082270E+04  0.91149590324E+02 0.  0.
         23    2    4    4    0    0 -0.16587536768E+03 -0.70604218305E+01  0.96088168331E+02  0.21233915000E+03  0.91052135462E+02 0.  0.
          4    1    3    3  502    0 -0.83329888738E+01 -0.19648659775E+01  0.15499577355E+02  0.17706956262E+02  0.00000000000E+00 0. -1.
         -3    1    3    3    0  502 -0.30844239719E+03  0.18022878918E+03  0.62114132376E+02  0.36259797886E+03  0.00000000000E+00 0.  1.
         11    1    5    5    0    0  0.20183737500E+01  0.21261425843E+00 -0.37328072232E+02  0.37383204972E+02  0.00000000000E+00 0. -1.
        -11    1    5    5    0    0  0.48063237999E+03 -0.17141611563E+03 -0.89865249499E+03  0.10334250220E+04  0.00000000000E+00 0.  1.
          4    1    6    6  503    0 -0.41621229554E+02 -0.42705187017E+02  0.23573900712E+02  0.64123229352E+02  0.00000000000E+00 0. -1.
         -4    1    6    6    0  503 -0.12425413812E+03  0.35644765187E+02  0.72514267619E+02  0.14821592065E+03  0.00000000000E+00 0.  1.
<mgrwt>
<rscale>  0 0.14785144E+04</rscale>
<asrwt>0</asrwt>
<pdfrwt beam="1">  1        2 0.18659469E+00 0.14785144E+04</pdfrwt>
<pdfrwt beam="2">  1       -1 0.69321047E-01 0.14785144E+04</pdfrwt>
<totfact> 0.43224251E+01</totfact>
</mgrwt>
</event>
<event>
12    6  0.1556619E-007  0.2548676E+04  0.7818608E-02  0.8385847E-01
          2   -1    0    0  501    0  0.00000000000E+00  0.00000000000E+00  0.22868172753E+04  0.22868172753E+04  0.00000000000E+00 0. -1.
         -1   -1    0    0    0  501 -0.00000000000E+00 -0.00000000000E+00 -0.71012993676E+03  0.71012993676E+03  0.00000000000E+00 0.  1.
         24    2    1    2    0    0 -0.27929339292E+03  0.58913777649E+03 -0.37066634266E+03  0.75421494124E+03  0.79740334747E+02 0.  0.
        254    2    1    2    0    0  0.27929339292E+03 -0.58913777649E+03  0.19473536812E+04  0.22427322708E+04  0.90142862166E+03 0.  0.
         23    2    4    4    0    0  0.58682220190E+03 -0.30414832920E+03  0.13653264267E+04  0.15200250229E+04  0.97433649146E+02 0.  0.
         23    2    4    4    0    0 -0.30752880898E+03 -0.28498944729E+03  0.58202725454E+03  0.72270724798E+03  0.88074331301E+02 0.  0.
          2    1    3    3  502    0 -0.74624178173E+02  0.17835897762E+03 -0.70333009752E+02  0.20573629997E+03  0.00000000000E+00 0. -1.
         -1    1    3    3    0  502 -0.20466921475E+03  0.41077879887E+03 -0.30033333290E+03  0.54847864126E+03  0.00000000000E+00 0.  1.
         11    1    5    5    0    0  0.33730866694E+03 -0.16473718243E+03  0.88116808944E+03  0.95779573914E+03  0.00000000000E+00 0. -1.
        -11    1    5    5    0    0  0.24951353495E+03 -0.13941114678E+03  0.48415833721E+03  0.56222928371E+03  0.00000000000E+00 0.  1.
          1    1    6    6  503    0 -0.26073009792E+03 -0.24416689539E+03  0.54095814883E+03  0.64825409798E+03  0.00000000000E+00 0. -1.
         -1    1    6    6    0  503 -0.46798711057E+02 -0.40822551908E+02  0.41069105713E+02  0.74453150000E+02  0.00000000000E+00 0.  1.
<mgrwt>
<rscale>  0 0.25486761E+04</rscale>
<asrwt>0</asrwt>
<pdfrwt beam="1">  1        2 0.35181804E+00 0.25486761E+04</pdfrwt>
<pdfrwt beam="2">  1       -1 0.10925076E+00 0.25486761E+04</pdfrwt>
<totfact> 0.36140388E+00</totfact>
</mgrwt>
</event>
<event>
12    6  0.1556619E-007  0.3856356E+04  0.7818608E-02  0.8034168E-01
          2   -1    0    0  501    0  0.00000000000E+00  0.00000000000E+00  0.12405444059E+04  0.12405444059E+04  0.00000000000E+00 0. -1.
         -1   -1    0    0    0  501 -0.00000000000E+00 -0.00000000000E+00 -0.29969669405E+04  0.29969669405E+04  0.00000000000E+00 0.  1.
         24    2    1    2    0    0 -0.93374269998E+03  0.13809458021E+04 -0.15593203443E+04  0.22840155876E+04  0.79752931851E+02 0.  0.
        254    2    1    2    0    0  0.93374269998E+03 -0.13809458021E+04 -0.19710219024E+03  0.19534957588E+04  0.99920451759E+03 0.  0.
         23    2    4    4    0    0  0.57309705457E+03 -0.55187131365E+03  0.36989202741E+03  0.88211255268E+03  0.91105778461E+02 0.  0.
         23    2    4    4    0    0  0.36064564541E+03 -0.82907448845E+03 -0.56699421765E+03  0.10713832061E+04  0.94603078434E+02 0.  0.
          2    1    3    3  502    0 -0.63741775959E+03  0.95348608493E+03 -0.11220535046E+04  0.16045065227E+04  0.00000000000E+00 0. -1.
         -1    1    3    3    0  502 -0.29632494039E+03  0.42745971716E+03 -0.43726683978E+03  0.67950906489E+03  0.00000000000E+00 0.  1.
         11    1    5    5    0    0  0.18028333200E+03 -0.23462189257E+03  0.13624876634E+03  0.32575027030E+03  0.00000000000E+00 0. -1.
        -11    1    5    5    0    0  0.39281372257E+03 -0.31724942108E+03  0.23364326108E+03  0.55636228239E+03  0.00000000000E+00 0.  1.
          1    1    6    6  503    0  0.23915958159E+03 -0.43175766807E+03 -0.30554503512E+03  0.58049096280E+03  0.00000000000E+00 0. -1.
         -1    1    6    6    0  503  0.12148606382E+03 -0.39731682037E+03 -0.26144918253E+03  0.49089224327E+03  0.00000000000E+00 0.  1.
<mgrwt>
<rscale>  0 0.38563561E+04</rscale>
<asrwt>0</asrwt>
<pdfrwt beam="1">  1        2 0.19085299E+00 0.38563561E+04</pdfrwt>
<pdfrwt beam="2">  1       -1 0.46107183E+00 0.38563561E+04</pdfrwt>
<totfact> 0.44234210E-02</totfact>
</mgrwt>
</event>
<event>
12    6  0.1556619E-007  0.3581391E+04  0.7818608E-02  0.8094768E-01
          2   -1    0    0  501    0  0.00000000000E+00  0.00000000000E+00  0.25595025238E+04  0.25595025238E+04  0.00000000000E+00 0. -1.
         -1   -1    0    0    0  501 -0.00000000000E+00 -0.00000000000E+00 -0.12528175714E+04  0.12528175714E+04  0.00000000000E+00 0.  1.
         24    2    1    2    0    0 -0.31971898864E+02  0.30295202481E+03  0.23717823033E+04  0.23926153355E+04  0.80341255747E+02 0.  0.
        254    2    1    2    0    0  0.31971898864E+02 -0.30295202481E+03 -0.10650973510E+04  0.14197047598E+04  0.88787786673E+03 0.  0.
         23    2    4    4    0    0  0.39986952157E+03 -0.36765721651E+03 -0.68458559749E+03  0.87871973659E+03  0.91779475153E+02 0.  0.
         23    2    4    4    0    0 -0.36789762270E+03  0.64705191696E+02 -0.38051175349E+03  0.54098502319E+03  0.91324575804E+02 0.  0.
          4    1    3    3  502    0  0.14580717446E+01  0.22450763926E+03  0.18966659384E+04  0.19099077171E+04  0.00000000000E+00 0. -1.
         -3    1    3    3    0  502 -0.33429970609E+02  0.78444385551E+02  0.47511636496E+03  0.48270761835E+03  0.00000000000E+00 0.  1.
         11    1    5    5    0    0  0.28382657920E+03 -0.22908555164E+03 -0.51340968507E+03  0.62978347211E+03  0.00000000000E+00 0. -1.
        -11    1    5    5    0    0  0.11604294237E+03 -0.13857166487E+03 -0.17117591242E+03  0.24893626448E+03  0.00000000000E+00 0.  1.
          2    1    6    6  503    0 -0.17271146420E+03  0.68216169475E+02 -0.14850635923E+03  0.23777475555E+03  0.00000000000E+00 0. -1.
         -2    1    6    6    0  503 -0.19518615850E+03 -0.35109777793E+01 -0.23200539426E+03  0.30321026764E+03  0.00000000000E+00 0.  1.
<mgrwt>
<rscale>  0 0.35813906E+04</rscale>
<asrwt>0</asrwt>
<pdfrwt beam="1">  1        2 0.39376962E+00 0.35813906E+04</pdfrwt>
<pdfrwt beam="2">  1       -1 0.19274117E+00 0.35813906E+04</pdfrwt>
<totfact> 0.50391117E-01</totfact>
</mgrwt>
</event>
<event>
12    6  0.1556619E-007  0.1236531E+04  0.7818608E-02  0.9081469E-01
          2   -1    0    0  501    0  0.00000000000E+00  0.00000000000E+00  0.75558649378E+03  0.75558649378E+03  0.00000000000E+00 0. -1.
         -1   -1    0    0    0  501 -0.00000000000E+00 -0.00000000000E+00 -0.50590118638E+03  0.50590118638E+03  0.00000000000E+00 0.  1.
         24    2    1    2    0    0 -0.13141261375E+03  0.65107597915E+02  0.29939776746E+03  0.34260822384E+03  0.78949968517E+02 0.  0.
        254    2    1    2    0    0  0.13141261375E+03 -0.65107597915E+02 -0.49712460057E+02  0.91887945632E+03  0.90573718716E+03 0.  0.
         23    2    4    4    0    0 -0.28873280504E+03  0.15473167131E+03  0.17826625752E+03  0.38489841645E+03  0.95180930893E+02 0.  0.
         23    2    4    4    0    0  0.42014541879E+03 -0.21983926923E+03 -0.22797871758E+03  0.53398103987E+03  0.91159080994E+02 0.  0.
          2    1    3    3  502    0 -0.13974319191E+03  0.52322387555E+02  0.25255421594E+03  0.29334182094E+03  0.00000000000E+00 0. -1.
         -1    1    3    3    0  502  0.83305781555E+01  0.12785210360E+02  0.46843551521E+02  0.49266402908E+02  0.00000000000E+00 0.  1.
         11    1    5    5    0    0 -0.27009222869E+03  0.15899174564E+03  0.18579785144E+03  0.36434740123E+03  0.00000000000E+00 0. -1.
        -11    1    5    5    0    0 -0.18640576347E+02 -0.42600743299E+01 -0.75315939193E+01  0.20551015226E+02  0.00000000000E+00 0.  1.
          1    1    6    6  503    0  0.34943826618E+03 -0.14115983430E+03 -0.18450998268E+03  0.41961546015E+03  0.00000000000E+00 0. -1.
         -1    1    6    6    0  503  0.70707152613E+02 -0.78679434927E+02 -0.43468734902E+02  0.11436557972E+03  0.00000000000E+00 0.  1.
<mgrwt>
<rscale>  0 0.12365308E+04</rscale>
<asrwt>0</asrwt>
<pdfrwt beam="1">  1        2 0.11624408E+00 0.12365308E+04</pdfrwt>
<pdfrwt beam="2">  1       -1 0.77830952E-01 0.12365308E+04</pdfrwt>
<totfact> 0.69067478E+01</totfact>
</mgrwt>
</event>
<event>
12    6  0.2371002E-007  0.2118141E+04  0.7818608E-02  0.8553294E-01
          2   -1    0    0  501    0  0.00000000000E+00  0.00000000000E+00  0.11436467069E+04  0.11436467069E+04  0.00000000000E+00 0. -1.
         -1   -1    0    0    0  501 -0.00000000000E+00 -0.00000000000E+00 -0.98074923034E+03  0.98074923034E+03  0.00000000000E+00 0.  1.
         24    2    1    2    0    0  0.25429852938E+02 -0.64979357668E+03  0.63473099905E+03  0.91183524053E+03  0.75377019163E+02 0.  0.
        254    2    1    2    0    0 -0.25429852938E+02  0.64979357668E+03 -0.47183352251E+03  0.12125606967E+04  0.90818401244E+03 0.  0.
         23    2    4    4    0    0 -0.12444320646E+03  0.49570725760E+03 -0.72177679947E+03  0.88914592240E+03  0.91689291584E+02 0.  0.
         23    2    4    4    0    0  0.99013353524E+02  0.15408631908E+03  0.24994327696E+03  0.32341477428E+03  0.92624168678E+02 0.  0.
          2    1    3    3  502    0  0.31842341607E+02 -0.53039138073E+03  0.47809972296E+03  0.71477849475E+03  0.00000000000E+00 0. -1.
         -1    1    3    3    0  502 -0.64124886690E+01 -0.11940219595E+03  0.15663127609E+03  0.19705674578E+03  0.00000000000E+00 0.  1.
         11    1    5    5    0    0 -0.11108033655E+03  0.29170400341E+03 -0.47940186021E+03  0.57206311745E+03  0.00000000000E+00 0. -1.
        -11    1    5    5    0    0 -0.13362869908E+02  0.20400325418E+03 -0.24237493926E+03  0.31708280495E+03  0.00000000000E+00 0.  1.
          4    1    6    6  503    0  0.94305995395E+02  0.16679652660E+03  0.23559448782E+03  0.30367657918E+03  0.00000000000E+00 0. -1.
         -4    1    6    6    0  503  0.47073581287E+01 -0.12710207525E+02  0.14348789139E+02  0.19738195096E+02  0.00000000000E+00 0.  1.
<mgrwt>
<rscale>  0 0.21181413E+04</rscale>
<asrwt>0</asrwt>
<pdfrwt beam="1">  1        2 0.17594565E+00 0.21181413E+04</pdfrwt>
<pdfrwt beam="2">  1       -1 0.15088450E+00 0.21181413E+04</pdfrwt>
<totfact> 0.73806920E+00</totfact>
</mgrwt>
</event>
<event>
12    6  0.1556619E-007  0.1356097E+04  0.7818608E-02  0.8986226E-01
          2   -1    0    0  501    0  0.00000000000E+00  0.00000000000E+00  0.68975874345E+03  0.68975874345E+03  0.00000000000E+00 0. -1.
         -1   -1    0    0    0  501 -0.00000000000E+00 -0.00000000000E+00 -0.66653711560E+03  0.66653711560E+03  0.00000000000E+00 0.  1.
         24    2    1    2    0    0 -0.37046740296E+03 -0.62300473866E+02  0.11178229234E+02  0.38575173272E+03  0.86902248463E+02 0.  0.
        254    2    1    2    0    0  0.37046740296E+03  0.62300473866E+02  0.12043398611E+02  0.97054412633E+03  0.89480914836E+03 0.  0.
         23    2    4    4    0    0 -0.47039370319E+02  0.36093259177E+03  0.18852422222E+03  0.42001550197E+03  0.91578389192E+02 0.  0.
         23    2    4    4    0    0  0.41750677328E+03 -0.29863211791E+03 -0.17648082361E+03  0.55052862435E+03  0.91887091313E+02 0.  0.
          2    1    3    3  502    0 -0.15170309695E+03 -0.47756816463E+01  0.41945897569E+02  0.15746775887E+03  0.00000000000E+00 0. -1.
         -1    1    3    3    0  502 -0.21876430601E+03 -0.57524792220E+02 -0.30767668335E+02  0.22828397386E+03  0.00000000000E+00 0.  1.
         11    1    5    5    0    0 -0.72084765153E+02  0.24714388022E+03  0.14616840502E+03  0.29604309403E+03  0.00000000000E+00 0.  1.
        -11    1    5    5    0    0  0.25045394834E+02  0.11378871155E+03  0.42355817199E+02  0.12397240794E+03  0.00000000000E+00 0. -1.
          4    1    6    6  503    0  0.27830112123E+03 -0.15669598883E+03 -0.13853182882E+03  0.34813246701E+03  0.00000000000E+00 0.  1.
         -4    1    6    6    0  503  0.13920565205E+03 -0.14193612908E+03 -0.37948994794E+02  0.20239615734E+03  0.00000000000E+00 0. -1.
<mgrwt>
<rscale>  0 0.13560971E+04</rscale>
<asrwt>0</asrwt>
<pdfrwt beam="1">  1        2 0.10611673E+00 0.13560971E+04</pdfrwt>
<pdfrwt beam="2">  1       -1 0.10254417E+00 0.13560971E+04</pdfrwt>
<totfact> 0.41896844E+01</totfact>
</mgrwt>
</event>
<event>
12    6  0.1556619E-007  0.1764460E+04  0.7818608E-02  0.8725431E-01
          2   -1    0    0  501    0  0.00000000000E+00  0.00000000000E+00  0.12922919532E+04  0.12922919532E+04  0.00000000000E+00 0. -1.
         -1   -1    0    0    0  501 -0.00000000000E+00 -0.00000000000E+00 -0.60228646593E+03  0.60228646593E+03  0.00000000000E+00 0.  1.
         24    2    1    2    0    0  0.54875121651E+03 -0.16419052392E+03 -0.59982972568E+02  0.58122518073E+03  0.78347482058E+02 0.  0.
        254    2    1    2    0    0 -0.54875121651E+03  0.16419052392E+03  0.74998845981E+03  0.13133532384E+04  0.91341535630E+03 0.  0.
         23    2    4    4    0    0  0.41602556908E+02 -0.15708710904E+03  0.58706983025E+03  0.61589179089E+03  0.90909735052E+02 0.  0.
         23    2    4    4    0    0 -0.59035377342E+03  0.32127763296E+03  0.16291862956E+03  0.69746144748E+03  0.90405174810E+02 0.  0.
          2    1    3    3  502    0  0.11501243849E+03 -0.59908284678E+02 -0.35518709928E+02  0.13445609817E+03  0.00000000000E+00 0. -1.
         -1    1    3    3    0  502  0.43373877802E+03 -0.10428223924E+03 -0.24464262640E+02  0.44676908256E+03  0.00000000000E+00 0.  1.
         11    1    5    5    0    0  0.37452885245E+02 -0.12865418450E+03  0.31508442980E+03  0.34239277987E+03  0.00000000000E+00 0. -1.
        -11    1    5    5    0    0  0.41496716623E+01 -0.28432924544E+02  0.27198540045E+03  0.27349901102E+03  0.00000000000E+00 0.  1.
          1    1    6    6  503    0 -0.57451069654E+03  0.29288266954E+03  0.14768456374E+03  0.66155387454E+03  0.00000000000E+00 0. -1.
         -1    1    6    6    0  503 -0.15843076879E+02  0.28394963424E+02  0.15234065827E+02  0.35907572940E+02  0.00000000000E+00 0.  1.
<mgrwt>
<rscale>  0 0.17644602E+04</rscale>
<asrwt>0</asrwt>
<pdfrwt beam="1">  1        2 0.19881415E+00 0.17644602E+04</pdfrwt>
<pdfrwt beam="2">  1       -1 0.92659457E-01 0.17644602E+04</pdfrwt>
<totfact> 0.20414740E+01</totfact>
</mgrwt>
</event>
<event>
12    6  0.1556619E-007  0.1827942E+04  0.7818608E-02  0.8691580E-01
         -1   -1    0    0    0  501 -0.00000000000E+00  0.00000000000E+00  0.41201704589E+03  0.41201704589E+03  0.00000000000E+00 0.  1.
          2   -1    0    0  501    0  0.00000000000E+00 -0.00000000000E+00 -0.20274475854E+04  0.20274475854E+04  0.00000000000E+00 0. -1.
         24    2    1    2    0    0 -0.34375781137E+02  0.16013910365E+03 -0.14958020852E+04  0.15068807809E+04  0.80247012603E+02 0.  0.
        254    2    1    2    0    0  0.34375781137E+02 -0.16013910365E+03 -0.11962845431E+03  0.93258385034E+03  0.91026119547E+03 0.  0.
         23    2    4    4    0    0  0.34257763636E+03  0.18866107349E+03 -0.20556797810E+03  0.45088843292E+03  0.89943024926E+02 0.  0.
         23    2    4    4    0    0 -0.30820185522E+03 -0.34880017714E+03  0.85939523797E+02  0.48169541742E+03  0.89414351640E+02 0.  0.
          2    1    3    3  502    0 -0.15196203872E+02  0.44658964912E+02 -0.79251852371E+03  0.79392125440E+03  0.00000000000E+00 0. -1.
         -1    1    3    3    0  502 -0.19179577266E+02  0.11548013874E+03 -0.70328356146E+03  0.71295952651E+03  0.00000000000E+00 0.  1.
         11    1    5    5    0    0  0.31692702121E+03  0.15183163960E+03 -0.15742319699E+03  0.38506836602E+03  0.00000000000E+00 0.  1.
        -11    1    5    5    0    0  0.25650615150E+02  0.36829433889E+02 -0.48144781116E+02  0.65820066901E+02  0.00000000000E+00 0. -1.
          1    1    6    6  503    0 -0.98585684430E+02 -0.16685187658E+03  0.60205009823E+02  0.20293676134E+03  0.00000000000E+00 0. -1.
         -1    1    6    6    0  503 -0.20961617079E+03 -0.18194830056E+03  0.25734513974E+02  0.27875865609E+03  0.00000000000E+00 0.  1.
<mgrwt>
<rscale>  0 0.18279420E+04</rscale>
<asrwt>0</asrwt>
<pdfrwt beam="1">  1        2 0.31191501E+00 0.18279420E+04</pdfrwt>
<pdfrwt beam="2">  1       -1 0.63387238E-01 0.18279420E+04</pdfrwt>
<totfact> 0.17465496E+01</totfact>
</mgrwt>
</event>
<event>
12    6  0.1556619E-007  0.3600654E+04  0.7818608E-02  0.8090342E-01
         -1   -1    0    0    0  501 -0.00000000000E+00  0.00000000000E+00  0.16386985311E+04  0.16386985311E+04  0.00000000000E+00 0.  1.
          2   -1    0    0  501    0  0.00000000000E+00 -0.00000000000E+00 -0.19778974585E+04  0.19778974585E+04  0.00000000000E+00 0. -1.
         24    2    1    2    0    0  0.77582511225E+03  0.13709134646E+04  0.44665345052E+03  0.16390676679E+04  0.75730989861E+02 0.  0.
        254    2    1    2    0    0 -0.77582511225E+03 -0.13709134646E+04 -0.78585237783E+03  0.19775283217E+04  0.90096946181E+03 0.  0.
         23    2    4    4    0    0 -0.23979537962E+03  0.17383323736E+02  0.58176971777E+02  0.26401374304E+03  0.92275091092E+02 0.  0.
         23    2    4    4    0    0 -0.53602973263E+03 -0.13882967884E+04 -0.84402934960E+03  0.17135145787E+04  0.95135805426E+02 0.  0.
          4    1    3    3  502    0  0.17615869614E+03  0.25788332265E+03  0.10392510682E+03  0.32914453079E+03  0.00000000000E+00 0. -1.
         -3    1    3    3    0  502  0.59966641611E+03  0.11130301420E+04  0.34272834370E+03  0.13099231371E+04  0.00000000000E+00 0.  1.
         11    1    5    5    0    0 -0.92671444460E+02  0.80073447044E+01  0.69564492347E+02  0.11615219663E+03  0.00000000000E+00 0. -1.
        -11    1    5    5    0    0 -0.14712393516E+03  0.93759790315E+01 -0.11387520570E+02  0.14786154641E+03  0.00000000000E+00 0.  1.
          4    1    6    6  503    0 -0.23059650441E+03 -0.59788630441E+03 -0.41780939502E+03  0.76498854332E+03  0.00000000000E+00 0. -1.
         -4    1    6    6    0  503 -0.30543322822E+03 -0.79041048395E+03 -0.42621995458E+03  0.94852603534E+03  0.00000000000E+00 0.  1.
<mgrwt>
<rscale>  0 0.36006542E+04</rscale>
<asrwt>0</asrwt>
<pdfrwt beam="1">  1        2 0.30429192E+00 0.36006542E+04</pdfrwt>
<pdfrwt beam="2">  1       -1 0.25210747E+00 0.36006542E+04</pdfrwt>
<totfact> 0.43039621E-01</totfact>
</mgrwt>
</event>
<event>
12    6  0.1556619E-007  0.2038946E+04  0.7818608E-02  0.8588626E-01
         -1   -1    0    0    0  501 -0.00000000000E+00  0.00000000000E+00  0.59139879157E+03  0.59139879157E+03  0.00000000000E+00 0.  1.
          2   -1    0    0  501    0  0.00000000000E+00 -0.00000000000E+00 -0.17574014186E+04  0.17574014186E+04  0.00000000000E+00 0. -1.
         24    2    1    2    0    0  0.20964584898E+03  0.31657171204E+03 -0.12806314277E+04  0.13380956547E+04  0.79461290372E+02 0.  0.
        254    2    1    2    0    0 -0.20964584898E+03 -0.31657171204E+03  0.11462880075E+03  0.10107045554E+04  0.92963159663E+03 0.  0.
         23    2    4    4    0    0  0.13772785413E+03  0.12970952563E+01 -0.32219794921E+03  0.36224670022E+03  0.91872243253E+02 0.  0.
         23    2    4    4    0    0 -0.34737370311E+03 -0.31786880730E+03  0.43682674996E+03  0.64845785517E+03  0.89279965143E+02 0.  0.
          2    1    3    3  502    0  0.19040298242E+03  0.30542417881E+03 -0.12459899261E+04  0.12969302682E+04  0.00000000000E+00 0. -1.
         -1    1    3    3    0  502  0.19242866563E+02  0.11147533228E+02 -0.34641501641E+02  0.41165386511E+02  0.00000000000E+00 0.  1.
         11    1    5    5    0    0  0.14762168533E+03  0.14321282854E+02 -0.30014998233E+03  0.33479437423E+03  0.00000000000E+00 0. -1.
        -11    1    5    5    0    0 -0.98938312012E+01 -0.13024187597E+02 -0.22047966886E+02  0.27452325989E+02  0.00000000000E+00 0.  1.
          3    1    6    6  503    0 -0.17491953193E+03 -0.21936891543E+03  0.25001748390E+03  0.37580354703E+03  0.00000000000E+00 0. -1.
         -3    1    6    6    0  503 -0.17245417118E+03 -0.98499891869E+02  0.18680926607E+03  0.27265430813E+03  0.00000000000E+00 0.  1.
<mgrwt>
<rscale>  0 0.20389459E+04</rscale>
<asrwt>0</asrwt>
<pdfrwt beam="1">  1        2 0.27036945E+00 0.20389459E+04</pdfrwt>
<pdfrwt beam="2">  1       -1 0.90984429E-01 0.20389459E+04</pdfrwt>
<totfact> 0.11331942E+01</totfact>
</mgrwt>
</event>
<event>
12    6  0.1556619E-007  0.3432633E+04  0.7818608E-02  0.8129943E-01
          2   -1    0    0  501    0  0.00000000000E+00  0.00000000000E+00  0.26592463612E+04  0.26592463612E+04  0.00000000000E+00 0. -1.
         -1   -1    0    0    0  501 -0.00000000000E+00 -0.00000000000E+00 -0.11077355872E+04  0.11077355872E+04  0.00000000000E+00 0.  1.
         24    2    1    2    0    0 -0.63321468647E+02  0.28170850574E+03 -0.10002580714E+04  0.10441163532E+04  0.79331324822E+02 0.  0.
        254    2    1    2    0    0  0.63321468647E+02 -0.28170850574E+03  0.25517688453E+04  0.27228655952E+04  0.90504337956E+03 0.  0.
         23    2    4    4    0    0 -0.15185792870E+03 -0.40097665718E+03  0.23533563270E+04  0.23938598903E+04  0.91848037815E+02 0.  0.
         23    2    4    4    0    0  0.21517939734E+03  0.11926815144E+03  0.19841251829E+03  0.32900570493E+03  0.91379217970E+02 0.  0.
          4    1    3    3  502    0  0.16235826433E+02  0.96609136326E+02 -0.32854479208E+03  0.34283904049E+03  0.00000000000E+00 0. -1.
         -3    1    3    3    0  502 -0.79557295080E+02  0.18509936941E+03 -0.67171327929E+03  0.70127731272E+03  0.00000000000E+00 0.  1.
         11    1    5    5    0    0 -0.99634743255E+02 -0.33039963980E+03  0.20127495735E+04  0.20421194504E+04  0.00000000000E+00 0.  1.
        -11    1    5    5    0    0 -0.52223185441E+02 -0.70577017379E+02  0.34060675356E+03  0.35174043989E+03  0.00000000000E+00 0. -1.
          4    1    6    6  503    0  0.20922875859E+03  0.11803998893E+03  0.15662282897E+03  0.28677660812E+03  0.00000000000E+00 0.  1.
         -4    1    6    6    0  503  0.59506387476E+01  0.12281625114E+01  0.41789689314E+02  0.42229096813E+02  0.00000000000E+00 0. -1.
<mgrwt>
<rscale>  0 0.34326327E+04</rscale>
<asrwt>0</asrwt>
<pdfrwt beam="1">  1        2 0.40911482E+00 0.34326327E+04</pdfrwt>
<pdfrwt beam="2">  1       -1 0.17042086E+00 0.34326327E+04</pdfrwt>
<totfact> 0.64377502E-01</totfact>
</mgrwt>
</event>
<event>
12    6  0.1556619E-007  0.1306678E+04  0.7818608E-02  0.9024286E-01
         -1   -1    0    0    0  501 -0.00000000000E+00  0.00000000000E+00  0.11088993378E+04  0.11088993378E+04  0.00000000000E+00 0.  1.
          2   -1    0    0  501    0  0.00000000000E+00 -0.00000000000E+00 -0.38493280511E+03  0.38493280511E+03  0.00000000000E+00 0. -1.
         24    2    1    2    0    0  0.30254180065E+03 -0.12953511731E+03  0.95462426096E+02  0.34861136634E+03  0.64077470197E+02 0.  0.
        254    2    1    2    0    0 -0.30254180065E+03  0.12953511731E+03  0.62850410656E+03  0.11452207765E+04  0.89900073819E+03 0.  0.
         23    2    4    4    0    0  0.98672292626E+02  0.21765950788E+03  0.67460045197E+03  0.72171599827E+03  0.93146817712E+02 0.  0.
         23    2    4    4    0    0 -0.40121409328E+03 -0.88124390573E+02 -0.46096345414E+02  0.42350477826E+03  0.92156211314E+02 0.  0.
          4    1    3    3  502    0  0.28527434591E+03 -0.12326994160E+03  0.10485425926E+03  0.32798071074E+03  0.00000000000E+00 0. -1.
         -3    1    3    3    0  502  0.17267454746E+02 -0.62651757130E+01 -0.93918331677E+01  0.20630655598E+02  0.00000000000E+00 0.  1.
         11    1    5    5    0    0  0.35793976970E+02  0.59011084700E+02  0.94406048690E+02  0.11694451220E+03  0.00000000000E+00 0.  1.
        -11    1    5    5    0    0  0.62878315656E+02  0.15864842318E+03  0.58019440328E+03  0.60477148607E+03  0.00000000000E+00 0. -1.
          1    1    6    6  503    0 -0.54528746111E+01 -0.46245088462E+01 -0.16460882527E+02  0.17946603499E+02  0.00000000000E+00 0. -1.
         -1    1    6    6    0  503 -0.39576121867E+03 -0.83499881727E+02 -0.29635462887E+02  0.40555817476E+03  0.00000000000E+00 0.  1.
<mgrwt>
<rscale>  0 0.13066778E+04</rscale>
<asrwt>0</asrwt>
<pdfrwt beam="1">  1        2 0.59220432E-01 0.13066778E+04</pdfrwt>
<pdfrwt beam="2">  1       -1 0.17059990E+00 0.13066778E+04</pdfrwt>
<totfact> 0.22679583E+01</totfact>
</mgrwt>
</event>
<event>
12    6  0.1556619E-007  0.1833969E+04  0.7818608E-02  0.8688441E-01
          2   -1    0    0  501    0  0.00000000000E+00  0.00000000000E+00  0.78436569443E+03  0.78436569443E+03  0.00000000000E+00 0. -1.
         -1   -1    0    0    0  501 -0.00000000000E+00 -0.00000000000E+00 -0.10720263163E+04  0.10720263163E+04  0.00000000000E+00 0.  1.
         24    2    1    2    0    0 -0.63010825125E+03  0.22388891240E+03 -0.29684196317E+03  0.73578991344E+03  0.78160042388E+02 0.  0.
        254    2    1    2    0    0  0.63010825125E+03 -0.22388891240E+03  0.91813412651E+01  0.11206020973E+04  0.89916745388E+03 0.  0.
         23    2    4    4    0    0  0.10768475516E+03  0.32292604595E+03 -0.51661875047E+02  0.35625508518E+03  0.91495894641E+02 0.  0.
         23    2    4    4    0    0  0.52242349609E+03 -0.54681495834E+03  0.60843216312E+02  0.76434701215E+03  0.92690614831E+02 0.  0.
          2    1    3    3  502    0 -0.43063635483E+03  0.13264121281E+03 -0.16497444548E+03  0.47985198666E+03  0.00000000000E+00 0. -1.
         -1    1    3    3    0  502 -0.19947189642E+03  0.91247699592E+02 -0.13186751769E+03  0.25593792678E+03  0.00000000000E+00 0.  1.
         11    1    5    5    0    0  0.17794741577E+02  0.25859234885E+02 -0.32668555776E+02  0.45305489658E+02  0.00000000000E+00 0. -1.
        -11    1    5    5    0    0  0.89890013584E+02  0.29706681106E+03 -0.18993319271E+02  0.31094959552E+03  0.00000000000E+00 0.  1.
          1    1    6    6  503    0  0.10408708585E+03 -0.14975427736E+03  0.42629137019E+02  0.18729043849E+03  0.00000000000E+00 0. -1.
         -1    1    6    6    0  503  0.41833641025E+03 -0.39706068099E+03  0.18214079293E+02  0.57705657366E+03  0.00000000000E+00 0.  1.
<mgrwt>
<rscale>  0 0.18339691E+04</rscale>
<asrwt>0</asrwt>
<pdfrwt beam="1">  1        2 0.12067164E+00 0.18339691E+04</pdfrwt>
<pdfrwt beam="2">  1       -1 0.16492713E+00 0.18339691E+04</pdfrwt>
<totfact> 0.10197152E+01</totfact>
</mgrwt>
</event>
<event>
12    6  0.1556619E-007  0.2575677E+04  0.7818608E-02  0.8376510E-01
         -1   -1    0    0    0  501 -0.00000000000E+00  0.00000000000E+00  0.13967556141E+04  0.13967556141E+04  0.00000000000E+00 0.  1.
          2   -1    0    0  501    0  0.00000000000E+00 -0.00000000000E+00 -0.11874149214E+04  0.11874149214E+04  0.00000000000E+00 0. -1.
         24    2    1    2    0    0  0.21708806798E+03  0.27050814251E+03 -0.98467245137E+03  0.10472755691E+04  0.83092699918E+02 0.  0.
        254    2    1    2    0    0 -0.21708806798E+03 -0.27050814251E+03  0.11940131440E+04  0.15368949663E+04  0.90336972775E+03 0.  0.
         23    2    4    4    0    0  0.12665910312E+03 -0.16238420653E+02  0.10721174345E+04  0.10836020353E+04  0.91931294948E+02 0.  0.
         23    2    4    4    0    0 -0.34374717110E+03 -0.25426972185E+03  0.12189570956E+03  0.45329293100E+03  0.88321617915E+02 0.  0.
          4    1    3    3  502    0  0.22301217563E+03  0.27027494929E+03 -0.96160540028E+03  0.10234588045E+04  0.00000000000E+00 0. -1.
         -3    1    3    3    0  502 -0.59241076497E+01  0.23319321692E+00 -0.23067051094E+02  0.23816764614E+02  0.00000000000E+00 0.  1.
         11    1    5    5    0    0  0.45338264330E+01  0.19465309130E+02  0.54280609761E+02  0.57843222919E+02  0.00000000000E+00 0. -1.
        -11    1    5    5    0    0  0.12212527669E+03 -0.35703729782E+02  0.10178368247E+04  0.10257588124E+04  0.00000000000E+00 0.  1.
          3    1    6    6  503    0 -0.62611145295E+02 -0.75866707011E+02  0.58190493855E+02  0.11428930975E+03  0.00000000000E+00 0. -1.
         -3    1    6    6    0  503 -0.28113602581E+03 -0.17840301484E+03  0.63705215701E+02  0.33900362125E+03  0.00000000000E+00 0.  1.
<mgrwt>
<rscale>  0 0.25756774E+04</rscale>
<asrwt>0</asrwt>
<pdfrwt beam="1">  1        2 0.18267922E+00 0.25756774E+04</pdfrwt>
<pdfrwt beam="2">  1       -1 0.21488548E+00 0.25756774E+04</pdfrwt>
<totfact> 0.23190632E+00</totfact>
</mgrwt>
</event>
<event>
12    6  0.1556619E-007  0.9562375E+03  0.7818608E-02  0.9357889E-01
          2   -1    0    0  501    0  0.00000000000E+00  0.00000000000E+00  0.32546219275E+03  0.32546219275E+03  0.00000000000E+00 0. -1.
         -1   -1    0    0    0  501 -0.00000000000E+00 -0.00000000000E+00 -0.70237813936E+03  0.70237813936E+03  0.00000000000E+00 0.  1.
         24    2    1    2    0    0 -0.26564763548E+01 -0.10699736242E+03  0.16327102614E+02  0.13484445880E+03  0.80380105474E+02 0.  0.
        254    2    1    2    0    0  0.26564763548E+01  0.10699736242E+03 -0.39324304923E+03  0.89299587332E+03  0.79457286737E+03 0.  0.
         23    2    4    4    0    0  0.33667815281E+03  0.85692158193E+02  0.13762836629E+02  0.35942428511E+03  0.91110243664E+02 0.  0.
         23    2    4    4    0    0 -0.33402167645E+03  0.21305204230E+02 -0.40700588586E+03  0.53357158821E+03  0.83788164775E+02 0.  0.
          4    1    3    3  502    0  0.25774264033E+02 -0.97860433336E+01  0.19072566216E+02  0.33523754453E+02  0.00000000000E+00 0. -1.
         -3    1    3    3    0  502 -0.28430740388E+02 -0.97211319089E+02 -0.27454636016E+01  0.10132070434E+03  0.00000000000E+00 0.  1.
         11    1    5    5    0    0  0.17583220225E+03  0.76667315738E+02  0.40696506034E+02  0.19608938332E+03  0.00000000000E+00 0. -1.
        -11    1    5    5    0    0  0.16084595056E+03  0.90248424545E+01 -0.26933669405E+02  0.16333490178E+03  0.00000000000E+00 0.  1.
          3    1    6    6  503    0 -0.18213939571E+03  0.44474911536E+02 -0.26304267127E+03  0.32302356591E+03  0.00000000000E+00 0. -1.
         -3    1    6    6    0  503 -0.15188228074E+03 -0.23169707306E+02 -0.14396321459E+03  0.21054802230E+03  0.00000000000E+00 0.  1.
<mgrwt>
<rscale>  0 0.95623748E+03</rscale>
<asrwt>0</asrwt>
<pdfrwt beam="1">  1        2 0.50071107E-01 0.95623748E+03</pdfrwt>
<pdfrwt beam="2">  1       -1 0.10805817E+00 0.95623748E+03</pdfrwt>
<totfact> 0.91512714E+01</totfact>
</mgrwt>
</event>
<event>
12    6  0.1556619E-007  0.2126467E+04  0.7818608E-02  0.8549673E-01
         -1   -1    0    0    0  501 -0.00000000000E+00  0.00000000000E+00  0.27920089716E+03  0.27920089716E+03  0.00000000000E+00 0.  1.
          2   -1    0    0  501    0  0.00000000000E+00 -0.00000000000E+00 -0.40489318826E+04  0.40489318826E+04  0.00000000000E+00 0. -1.
         24    2    1    2    0    0 -0.52362977754E+03 -0.62350801490E+03 -0.92762919973E+03  0.12365103599E+04  0.74239810157E+02 0.  0.
        254    2    1    2    0    0  0.52362977754E+03  0.62350801490E+03 -0.28421017857E+04  0.30916224198E+04  0.90423240265E+03 0.  0.
         23    2    4    4    0    0  0.65134758609E+03  0.22056456933E+03 -0.22769290526E+04  0.23802502896E+04  0.91011665282E+02 0.  0.
         23    2    4    4    0    0 -0.12771780855E+03  0.40294344557E+03 -0.56517273308E+03  0.71137213027E+03  0.89189856754E+02 0.  0.
          2    1    3    3  502    0 -0.28921553302E+03 -0.29199735798E+03 -0.49020284550E+03  0.63969282577E+03  0.00000000000E+00 0. -1.
         -1    1    3    3    0  502 -0.23441424453E+03 -0.33151065692E+03 -0.43742635422E+03  0.59681753414E+03  0.00000000000E+00 0.  1.
         11    1    5    5    0    0  0.17775386766E+03  0.19039547137E+02 -0.56127746083E+03  0.58905969974E+03  0.00000000000E+00 0.  1.
        -11    1    5    5    0    0  0.47359371844E+03  0.20152502219E+03 -0.17156515918E+04  0.17911905898E+04  0.00000000000E+00 0. -1.
          3    1    6    6  503    0 -0.11055818714E+03  0.28772242122E+03 -0.34761629184E+03  0.46459056250E+03  0.00000000000E+00 0. -1.
         -3    1    6    6    0  503 -0.17159621413E+02  0.11522102435E+03 -0.21755644125E+03  0.24678156776E+03  0.00000000000E+00 0.  1.
<mgrwt>
<rscale>  0 0.21264669E+04</rscale>
<asrwt>0</asrwt>
<pdfrwt beam="1">  1        2 0.62291259E+00 0.21264669E+04</pdfrwt>
<pdfrwt beam="2">  1       -1 0.42953985E-01 0.21264669E+04</pdfrwt>
<totfact> 0.17594424E+00</totfact>
</mgrwt>
</event>
<event>
12    6  0.1556619E-007  0.1898160E+04  0.7818608E-02  0.8655773E-01
         -1   -1    0    0    0  501 -0.00000000000E+00  0.00000000000E+00  0.12428823711E+04  0.12428823711E+04  0.00000000000E+00 0.  1.
          2   -1    0    0  501    0  0.00000000000E+00 -0.00000000000E+00 -0.72472893923E+03  0.72472893923E+03  0.00000000000E+00 0. -1.
         24    2    1    2    0    0  0.29436729805E+03 -0.66884681594E+03  0.20387408138E+03  0.76287111853E+03  0.79997081659E+02 0.  0.
        254    2    1    2    0    0 -0.29436729805E+03  0.66884681594E+03  0.31427935047E+03  0.12047401918E+04  0.90477580106E+03 0.  0.
         23    2    4    4    0    0  0.28113750761E+03  0.16822491386E+03 -0.69083413095E+02  0.34712482415E+03  0.91570769046E+02 0.  0.
         23    2    4    4    0    0 -0.57550480567E+03  0.50062190209E+03  0.38336276357E+03  0.85761536763E+03  0.81908730335E+02 0.  0.
          2    1    3    3  502    0  0.29917959515E+03 -0.66395983380E+03  0.20152241165E+03  0.75562052212E+03  0.00000000000E+00 0. -1.
         -1    1    3    3    0  502 -0.48122970954E+01 -0.48869821383E+01  0.23516697385E+01  0.72505964109E+01  0.00000000000E+00 0.  1.
         11    1    5    5    0    0  0.16624573507E+03  0.14889962918E+03 -0.54258941255E+02  0.22967972638E+03  0.00000000000E+00 0. -1.
        -11    1    5    5    0    0  0.11489177254E+03  0.19325284673E+02 -0.14824471840E+02  0.11744509777E+03  0.00000000000E+00 0.  1.
          1    1    6    6  503    0 -0.11672711545E+03  0.10545936529E+03  0.43323716055E+02  0.16316813899E+03  0.00000000000E+00 0. -1.
         -1    1    6    6    0  503 -0.45877769022E+03  0.39516253680E+03  0.34003904751E+03  0.69444722864E+03  0.00000000000E+00 0.  1.
<mgrwt>
<rscale>  0 0.18981600E+04</rscale>
<asrwt>0</asrwt>
<pdfrwt beam="1">  1        2 0.11149676E+00 0.18981600E+04</pdfrwt>
<pdfrwt beam="2">  1       -1 0.19121267E+00 0.18981600E+04</pdfrwt>
<totfact> 0.72620245E+00</totfact>
</mgrwt>
</event>
<event>
12    6  0.1556619E-007  0.2604062E+04  0.7818608E-02  0.8366823E-01
         -1   -1    0    0    0  501 -0.00000000000E+00  0.00000000000E+00  0.14451888737E+04  0.14451888737E+04  0.00000000000E+00 0.  1.
          2   -1    0    0  501    0  0.00000000000E+00 -0.00000000000E+00 -0.11730544185E+04  0.11730544185E+04  0.00000000000E+00 0. -1.
         24    2    1    2    0    0  0.45016032260E+03 -0.38180433554E+03  0.11051675954E+04  0.12554187463E+04  0.79132470891E+02 0.  0.
        254    2    1    2    0    0 -0.45016032260E+03  0.38180433554E+03 -0.83303314022E+03  0.13628245458E+04  0.90273343973E+03 0.  0.
         23    2    4    4    0    0 -0.48129616122E+03  0.63657789564E+03 -0.66687137437E+03  0.10437350015E+04  0.88249143615E+02 0.  0.
         23    2    4    4    0    0  0.31135838614E+02 -0.25477356011E+03 -0.16616176585E+03  0.31908954430E+03  0.91265532796E+02 0.  0.
          4    1    3    3  502    0  0.36560701400E+03 -0.27946117572E+03  0.90414757199E+03  0.10145195264E+04  0.00000000000E+00 0. -1.
         -3    1    3    3    0  502  0.84553308601E+02 -0.10234315982E+03  0.20102002344E+03  0.24089921997E+03  0.00000000000E+00 0.  1.
         11    1    5    5    0    0 -0.31479626404E+03  0.39537002146E+03 -0.47392188435E+03  0.69283193791E+03  0.00000000000E+00 0. -1.
        -11    1    5    5    0    0 -0.16649989718E+03  0.24120787418E+03 -0.19294949003E+03  0.35090306358E+03  0.00000000000E+00 0.  1.
          2    1    6    6  503    0  0.51922795451E+02 -0.23805956978E+03 -0.16065668745E+03  0.29185425588E+03  0.00000000000E+00 0. -1.
         -2    1    6    6    0  503 -0.20786956837E+02 -0.16713990324E+02 -0.55050783928E+01  0.27235288418E+02  0.00000000000E+00 0.  1.
<mgrwt>
<rscale>  0 0.26040624E+04</rscale>
<asrwt>0</asrwt>
<pdfrwt beam="1">  1        2 0.18046991E+00 0.26040624E+04</pdfrwt>
<pdfrwt beam="2">  1       -1 0.22233675E+00 0.26040624E+04</pdfrwt>
<totfact> 0.21032026E+00</totfact>
</mgrwt>
</event>
<event>
12    6  0.1556619E-007  0.1836124E+04  0.7818608E-02  0.8687321E-01
          2   -1    0    0  501    0  0.00000000000E+00  0.00000000000E+00  0.12605433040E+04  0.12605433040E+04  0.00000000000E+00 0. -1.
         -3   -1    0    0    0  501 -0.00000000000E+00 -0.00000000000E+00 -0.66863080969E+03  0.66863080969E+03  0.00000000000E+00 0.  1.
         24    2    1    2    0    0 -0.51088390067E+03  0.31439766063E+03 -0.15802330862E+03  0.62544597278E+03  0.79768727122E+02 0.  0.
        254    2    1    2    0    0  0.51088390067E+03 -0.31439766063E+03  0.74993580290E+03  0.13037281409E+04  0.88173414808E+03 0.  0.
         23    2    4    4    0    0 -0.90318439943E+02  0.12240335547E+03  0.47375957739E+03  0.50575533832E+03  0.90555635071E+02 0.  0.
         23    2    4    4    0    0  0.60120234061E+03 -0.43680101611E+03  0.27617622551E+03  0.79797280257E+03  0.90817972172E+02 0.  0.
          2    1    3    3  502    0 -0.46836368076E+03  0.31070715248E+03 -0.15276168770E+03  0.58244279143E+03  0.00000000000E+00 0. -1.
         -3    1    3    3    0  502 -0.42520219913E+02  0.36905081487E+01 -0.52616209166E+01  0.43003181353E+02  0.00000000000E+00 0.  1.
         11    1    5    5    0    0 -0.93531267874E+02  0.10725011634E+03  0.30813645531E+03  0.33940942918E+03  0.00000000000E+00 0. -1.
        -11    1    5    5    0    0  0.32128279305E+01  0.15153239135E+02  0.16562312208E+03  0.16634590914E+03  0.00000000000E+00 0.  1.
          1    1    6    6  503    0  0.59158003493E+03 -0.43295900604E+03  0.25821185951E+03  0.77723471553E+03  0.00000000000E+00 0. -1.
         -1    1    6    6    0  503  0.96223056838E+01 -0.38420100702E+01  0.17964366004E+02  0.20738087037E+02  0.00000000000E+00 0.  1.
<mgrwt>
<rscale>  0 0.18361243E+04</rscale>
<asrwt>0</asrwt>
<pdfrwt beam="1">  1        2 0.19392974E+00 0.18361243E+04</pdfrwt>
<pdfrwt beam="2">  1       -3 0.10286628E+00 0.18361243E+04</pdfrwt>
<totfact> 0.85238121E+00</totfact>
</mgrwt>
</event>
<event>
12    6  0.1556619E-007  0.1961042E+04  0.7818608E-02  0.8625054E-01
         -1   -1    0    0    0  501 -0.00000000000E+00  0.00000000000E+00  0.17570086204E+04  0.17570086204E+04  0.00000000000E+00 0.  1.
          2   -1    0    0  501    0  0.00000000000E+00 -0.00000000000E+00 -0.54719228223E+03  0.54719228223E+03  0.00000000000E+00 0. -1.
         24    2    1    2    0    0 -0.25011385800E+03 -0.68537734567E+03  0.74775092322E+03  0.10476296289E+04  0.78085519126E+02 0.  0.
        254    2    1    2    0    0  0.25011385800E+03  0.68537734567E+03  0.46206541498E+03  0.12565712737E+04  0.91278029685E+03 0.  0.
         23    2    4    4    0    0  0.47905171632E+03  0.76790909252E+03  0.35628027996E+03  0.97688737655E+03  0.90544946253E+02 0.  0.
         23    2    4    4    0    0 -0.22893785832E+03 -0.82531746854E+02  0.10578513502E+03  0.27968389718E+03  0.88366030444E+02 0.  0.
          2    1    3    3  502    0 -0.81141205202E+02 -0.15198499365E+03  0.14467967690E+03  0.22497898210E+03  0.00000000000E+00 0. -1.
         -1    1    3    3    0  502 -0.16897265279E+03 -0.53339235202E+03  0.60307124632E+03  0.82265064682E+03  0.00000000000E+00 0.  1.
         11    1    5    5    0    0  0.23046317784E+03  0.39144463707E+03  0.22573013265E+03  0.50724380038E+03  0.00000000000E+00 0. -1.
        -11    1    5    5    0    0  0.24858853848E+03  0.37646445545E+03  0.13055014730E+03  0.46964357618E+03  0.00000000000E+00 0.  1.
          1    1    6    6  503    0 -0.33871608170E+02  0.65650144330E+01 -0.10066952371E+02  0.35940628605E+02  0.00000000000E+00 0. -1.
         -1    1    6    6    0  503 -0.19506625015E+03 -0.89096761287E+02  0.11585208739E+03  0.24374326857E+03  0.00000000000E+00 0.  1.
<mgrwt>
<rscale>  0 0.19610421E+04</rscale>
<asrwt>0</asrwt>
<pdfrwt beam="1">  1        2 0.84183429E-01 0.19610421E+04</pdfrwt>
<pdfrwt beam="2">  1       -1 0.27030902E+00 0.19610421E+04</pdfrwt>
<totfact> 0.30332650E+00</totfact>
</mgrwt>
</event>
<event>
12    6  0.1556619E-007  0.1297210E+04  0.7818608E-02  0.9031781E-01
          2   -1    0    0  501    0  0.00000000000E+00  0.00000000000E+00  0.21176792499E+04  0.21176792499E+04  0.00000000000E+00 0. -1.
         -1   -1    0    0    0  501 -0.00000000000E+00 -0.00000000000E+00 -0.19865542413E+03  0.19865542413E+03  0.00000000000E+00 0.  1.
         24    2    1    2    0    0  0.26392499629E+03  0.25765183730E+02  0.13064647458E+03  0.30638997010E+03  0.80536104294E+02 0.  0.
        254    2    1    2    0    0 -0.26392499629E+03 -0.25765183730E+02  0.17883773512E+04  0.20099447040E+04  0.87821632545E+03 0.  0.
         23    2    4    4    0    0 -0.22913125542E+03  0.31769833041E+02  0.18593693136E+04  0.18758957702E+04  0.90665548996E+02 0.  0.
         23    2    4    4    0    0 -0.34793740872E+02 -0.57535016771E+02 -0.70991962384E+02  0.13404893377E+03  0.91697193862E+02 0.  0.
          4    1    3    3  502    0  0.43235171166E+01 -0.10424996511E+02 -0.36695482560E+01  0.11867558170E+02  0.00000000000E+00 0. -1.
         -3    1    3    3    0  502  0.25960147918E+03  0.36190180241E+02  0.13431602284E+03  0.29452241193E+03  0.00000000000E+00 0.  1.
         11    1    5    5    0    0 -0.20105684326E+03 -0.91425793547E+00  0.16448173224E+04  0.16570602626E+04  0.00000000000E+00 0.  1.
        -11    1    5    5    0    0 -0.28074412160E+02  0.32684090977E+02  0.21455199125E+03  0.21883550756E+03  0.00000000000E+00 0. -1.
          1    1    6    6  503    0  0.21629506881E+02  0.97825285124E+01 -0.26530900144E+02  0.35600872103E+02  0.00000000000E+00 0. -1.
         -1    1    6    6    0  503 -0.56423247753E+02 -0.67317545283E+02 -0.44461062240E+02  0.98448061664E+02  0.00000000000E+00 0.  1.
<mgrwt>
<rscale>  0 0.12972100E+04</rscale>
<asrwt>0</asrwt>
<pdfrwt beam="1">  1        2 0.32579679E+00 0.12972100E+04</pdfrwt>
<pdfrwt beam="2">  1       -1 0.30562374E-01 0.12972100E+04</pdfrwt>
<totfact> 0.63441094E+01</totfact>
</mgrwt>
</event>
<event>
12    6  0.1556619E-007  0.2371704E+04  0.7818608E-02  0.8450174E-01
          2   -1    0    0  501    0  0.00000000000E+00  0.00000000000E+00  0.12469825968E+04  0.12469825968E+04  0.00000000000E+00 0. -1.
         -1   -1    0    0    0  501 -0.00000000000E+00 -0.00000000000E+00 -0.11277184174E+04  0.11277184174E+04  0.00000000000E+00 0.  1.
         24    2    1    2    0    0  0.51906820007E+03  0.10463173891E+03 -0.80501541436E+03  0.96726250121E+03  0.84660095601E+02 0.  0.
        254    2    1    2    0    0 -0.51906820007E+03 -0.10463173891E+03  0.92427959375E+03  0.14074385130E+04  0.91989717001E+03 0.  0.
         23    2    4    4    0    0 -0.76941152582E+03 -0.12710362913E+03  0.60485190461E+03  0.99115726396E+03  0.91637692976E+02 0.  0.
         23    2    4    4    0    0  0.25034332576E+03  0.22471890217E+02  0.31942768914E+03  0.41628124906E+03  0.89884721348E+02 0.  0.
          4    1    3    3  502    0  0.12069983950E+03  0.22542284920E+01 -0.13531948472E+03  0.18134193047E+03  0.00000000000E+00 0. -1.
         -3    1    3    3    0  502  0.39836836056E+03  0.10237751042E+03 -0.66969592964E+03  0.78592057075E+03  0.00000000000E+00 0.  1.
         11    1    5    5    0    0 -0.70058358823E+03 -0.12509329278E+03  0.57956925218E+03  0.91780510680E+03  0.00000000000E+00 0. -1.
        -11    1    5    5    0    0 -0.68827937592E+02 -0.20103363500E+01  0.25282652432E+02  0.73352157156E+02  0.00000000000E+00 0.  1.
          4    1    6    6  503    0  0.14827165318E+03  0.30923568683E+02  0.25082236769E+03  0.29300616097E+03  0.00000000000E+00 0. -1.
         -4    1    6    6    0  503  0.10207167258E+03 -0.84516784660E+01  0.68605321452E+02  0.12327508809E+03  0.00000000000E+00 0.  1.
<mgrwt>
<rscale>  0 0.23717042E+04</rscale>
<asrwt>0</asrwt>
<pdfrwt beam="1">  1        2 0.19184348E+00 0.23717042E+04</pdfrwt>
<pdfrwt beam="2">  1       -1 0.17349514E+00 0.23717042E+04</pdfrwt>
<totfact> 0.42324329E+00</totfact>
</mgrwt>
</event>
<event>
12    6  0.1556619E-007  0.1837211E+04  0.7818608E-02  0.8686758E-01
         -1   -1    0    0    0  501 -0.00000000000E+00  0.00000000000E+00  0.10619116834E+04  0.10619116834E+04  0.00000000000E+00 0.  1.
          2   -1    0    0  501    0  0.00000000000E+00 -0.00000000000E+00 -0.79463834805E+03  0.79463834805E+03  0.00000000000E+00 0. -1.
         24    2    1    2    0    0 -0.32882982127E+02 -0.47797123002E+03  0.60866639596E+03  0.77861571672E+03  0.78929497148E+02 0.  0.
        254    2    1    2    0    0  0.32882982127E+02  0.47797123002E+03 -0.34139306061E+03  0.10779343147E+04  0.90324712996E+03 0.  0.
         23    2    4    4    0    0 -0.34126752321E+03 -0.24782363070E+02  0.76518339984E+01  0.35461808547E+03  0.92831826795E+02 0.  0.
         23    2    4    4    0    0  0.37415050533E+03  0.50275359309E+03 -0.34904489461E+03  0.72331622925E+03  0.92759112942E+02 0.  0.
          4    1    3    3  502    0 -0.20643317014E+02 -0.17708125131E+03  0.28800965047E+03  0.33872330134E+03  0.00000000000E+00 0. -1.
         -3    1    3    3    0  502 -0.12239665114E+02 -0.30088997871E+03  0.32065674549E+03  0.43989241539E+03  0.00000000000E+00 0.  1.
         11    1    5    5    0    0 -0.20331247803E+03 -0.51032915501E+02  0.32138458754E+02  0.21206886315E+03  0.00000000000E+00 0. -1.
        -11    1    5    5    0    0 -0.13795504518E+03  0.26250552431E+02 -0.24486624755E+02  0.14254922232E+03  0.00000000000E+00 0.  1.
          4    1    6    6  503    0  0.37805766932E+03  0.50252044402E+03 -0.34937758753E+03  0.71938800147E+03  0.00000000000E+00 0. -1.
         -4    1    6    6    0  503 -0.39071639867E+01  0.23314906757E+00  0.33269291547E+00  0.39282277789E+01  0.00000000000E+00 0.  1.
<mgrwt>
<rscale>  0 0.18372107E+04</rscale>
<asrwt>0</asrwt>
<pdfrwt beam="1">  1        2 0.12225205E+00 0.18372107E+04</pdfrwt>
<pdfrwt beam="2">  1       -1 0.16337103E+00 0.18372107E+04</pdfrwt>
<totfact> 0.10292300E+01</totfact>
</mgrwt>
</event>
<event>
12    6  0.1556619E-007  0.2601428E+04  0.7818608E-02  0.8367716E-01
         -1   -1    0    0    0  501 -0.00000000000E+00  0.00000000000E+00  0.97392305378E+03  0.97392305378E+03  0.00000000000E+00 0.  1.
          2   -1    0    0  501    0  0.00000000000E+00 -0.00000000000E+00 -0.17371561458E+04  0.17371561458E+04  0.00000000000E+00 0. -1.
         24    2    1    2    0    0 -0.98003844255E+03 -0.42228775664E+03 -0.75077670629E+03  0.13072364649E+04  0.79995088643E+02 0.  0.
        254    2    1    2    0    0  0.98003844255E+03  0.42228775664E+03 -0.12456385781E+02  0.14038427347E+04  0.91204000132E+03 0.  0.
         23    2    4    4    0    0  0.99249987936E+03  0.21170631709E+03 -0.27392416992E+03  0.10550759644E+04  0.90968481265E+02 0.  0.
         23    2    4    4    0    0 -0.12461436816E+02  0.21058143954E+03  0.26146778414E+03  0.34876677031E+03  0.93664442766E+02 0.  0.
          4    1    3    3  502    0 -0.76794168985E+03 -0.36206175692E+03 -0.61411336169E+03  0.10478350900E+04  0.00000000000E+00 0. -1.
         -3    1    3    3    0  502 -0.21209675270E+03 -0.60225999716E+02 -0.13666334459E+03  0.25940137490E+03  0.00000000000E+00 0.  1.
         11    1    5    5    0    0  0.68140140272E+03  0.14559980598E+03 -0.23139333657E+03  0.73420028013E+03  0.00000000000E+00 0. -1.
        -11    1    5    5    0    0  0.31109847664E+03  0.66106511112E+02 -0.42530833355E+02  0.32087568428E+03  0.00000000000E+00 0.  1.
          3    1    6    6  503    0 -0.20667393948E+02  0.21799972353E+03  0.25428688409E+03  0.33557836648E+03  0.00000000000E+00 0. -1.
         -3    1    6    6    0  503  0.82059571320E+01 -0.74182839897E+01  0.71809000536E+01  0.13188403822E+02  0.00000000000E+00 0.  1.
<mgrwt>
<rscale>  0 0.26014276E+04</rscale>
<asrwt>0</asrwt>
<pdfrwt beam="1">  1        2 0.26725479E+00 0.26014276E+04</pdfrwt>
<pdfrwt beam="2">  1       -1 0.14983432E+00 0.26014276E+04</pdfrwt>
<totfact> 0.32947474E+00</totfact>
</mgrwt>
</event>
<event>
12    6  0.1556619E-007  0.2505580E+04  0.7818608E-02  0.8401000E-01
          2   -1    0    0  501    0  0.00000000000E+00  0.00000000000E+00  0.13253023264E+04  0.13253023264E+04  0.00000000000E+00 0. -1.
         -1   -1    0    0    0  501 -0.00000000000E+00 -0.00000000000E+00 -0.11842453965E+04  0.11842453965E+04  0.00000000000E+00 0.  1.
         24    2    1    2    0    0 -0.75542391919E+03  0.37332331558E+03  0.75634912768E+03  0.11351346510E+04  0.80193997656E+02 0.  0.
        254    2    1    2    0    0  0.75542391919E+03 -0.37332331558E+03 -0.61529219784E+03  0.13744130719E+04  0.89464585616E+03 0.  0.
         23    2    4    4    0    0  0.28619575670E+03 -0.12030031119E+03 -0.74958827173E+03  0.81656290850E+03  0.92261749396E+02 0.  0.
         23    2    4    4    0    0  0.46922816249E+03 -0.25302300439E+03  0.13429607388E+03  0.55785016344E+03  0.94687169997E+02 0.  0.
          4    1    3    3  502    0 -0.71999093893E+03  0.33919159876E+03  0.72637717199E+03  0.10775257254E+04  0.00000000000E+00 0. -1.
         -3    1    3    3    0  502 -0.35432980256E+02  0.34131716819E+02  0.29971955684E+02  0.57608925614E+02  0.00000000000E+00 0.  1.
         11    1    5    5    0    0  0.20412861538E+03 -0.40748473346E+02 -0.51947817992E+03  0.55963068993E+03  0.00000000000E+00 0.  1.
        -11    1    5    5    0    0  0.82067141317E+02 -0.79551837839E+02 -0.23011009180E+03  0.25693221856E+03  0.00000000000E+00 0. -1.
          3    1    6    6  503    0 -0.21188396647E+01  0.40311136378E+01  0.90383568144E+00  0.46428738540E+01  0.00000000000E+00 0. -1.
         -3    1    6    6    0  503  0.47134700215E+03 -0.25705411803E+03  0.13339223820E+03  0.55320728958E+03  0.00000000000E+00 0.  1.
<mgrwt>
<rscale>  0 0.25055803E+04</rscale>
<asrwt>0</asrwt>
<pdfrwt beam="1">  1        2 0.20389267E+00 0.25055803E+04</pdfrwt>
<pdfrwt beam="2">  1       -1 0.18219160E+00 0.25055803E+04</pdfrwt>
<totfact> 0.32580061E+00</totfact>
</mgrwt>
</event>
<event>
12    6  0.1556619E-007  0.1223861E+04  0.7818608E-02  0.9092224E-01
          2   -1    0    0  501    0  0.00000000000E+00  0.00000000000E+00  0.11409880405E+04  0.11409880405E+04  0.00000000000E+00 0. -1.
         -1   -1    0    0    0  501 -0.00000000000E+00 -0.00000000000E+00 -0.32818804986E+03  0.32818804986E+03  0.00000000000E+00 0.  1.
         24    2    1    2    0    0 -0.65535134538E+01  0.26920693073E+03  0.18267830576E+03  0.33509668801E+03  0.80019415312E+02 0.  0.
        254    2    1    2    0    0  0.65535134538E+01 -0.26920693073E+03  0.63012168486E+03  0.11340794023E+04  0.90364120810E+03 0.  0.
         23    2    4    4    0    0  0.17758331214E+03  0.44004629198E+02  0.72561106517E+03  0.75375623819E+03  0.90359330277E+02 0.  0.
         23    2    4    4    0    0 -0.17102979869E+03 -0.31321155993E+03 -0.95489380307E+02  0.38032316415E+03  0.90414678705E+02 0.  0.
          2    1    3    3  502    0  0.14338451722E+01  0.66123140571E+02  0.90086490447E+02  0.11175822740E+03  0.00000000000E+00 0. -1.
         -1    1    3    3    0  502 -0.79873586260E+01  0.20308379016E+03  0.92591815316E+02  0.22333846060E+03  0.00000000000E+00 0.  1.
         11    1    5    5    0    0  0.91722979599E+02  0.24582247553E+01  0.50709318066E+03  0.51532770324E+03  0.00000000000E+00 0. -1.
        -11    1    5    5    0    0  0.85860332542E+02  0.41546404443E+02  0.21851788451E+03  0.23842853495E+03  0.00000000000E+00 0.  1.
          1    1    6    6  503    0 -0.13010167535E+03 -0.29256330799E+03 -0.96683559197E+02  0.33446591116E+03  0.00000000000E+00 0. -1.
         -1    1    6    6    0  503 -0.40928123339E+02 -0.20648251933E+02  0.11941788893E+01  0.45857252983E+02  0.00000000000E+00 0.  1.
<mgrwt>
<rscale>  0 0.12238605E+04</rscale>
<asrwt>0</asrwt>
<pdfrwt beam="1">  1        2 0.17553662E+00 0.12238605E+04</pdfrwt>
<pdfrwt beam="2">  1       -1 0.50490470E-01 0.12238605E+04</pdfrwt>
<totfact> 0.90969884E+01</totfact>
</mgrwt>
</event>
<event>
12    6  0.1556619E-007  0.1219301E+04  0.7818608E-02  0.9096128E-01
         -1   -1    0    0    0  501 -0.00000000000E+00  0.00000000000E+00  0.21026609636E+03  0.21026609636E+03  0.00000000000E+00 0.  1.
          2   -1    0    0  501    0  0.00000000000E+00 -0.00000000000E+00 -0.17676351685E+04  0.17676351685E+04  0.00000000000E+00 0. -1.
         24    2    1    2    0    0  0.24898261555E+03  0.76968450235E+01 -0.20113481535E+03  0.32986534179E+03  0.79399908699E+02 0.  0.
        254    2    1    2    0    0 -0.24898261555E+03 -0.76968450235E+01 -0.13562342568E+04  0.16480359231E+04  0.90255163853E+03 0.  0.
         23    2    4    4    0    0  0.30304648763E+03 -0.14328667409E+03 -0.64222009640E+03  0.73106093765E+03  0.98159042927E+02 0.  0.
         23    2    4    4    0    0 -0.55202910318E+03  0.13558982907E+03 -0.71401416044E+03  0.91697498547E+03  0.88916647292E+02 0.  0.
          4    1    3    3  502    0  0.13173036232E+03  0.19401750118E+02 -0.60110154609E+02  0.14609088593E+03  0.00000000000E+00 0. -1.
         -3    1    3    3    0  502  0.11725225322E+03 -0.11704905094E+02 -0.14102466074E+03  0.18377445586E+03  0.00000000000E+00 0.  1.
         11    1    5    5    0    0  0.38901802753E+02 -0.56867669612E+02 -0.16505687263E+03  0.17886042969E+03  0.00000000000E+00 0. -1.
        -11    1    5    5    0    0  0.26414468488E+03 -0.86419004477E+02 -0.47716322376E+03  0.55220050797E+03  0.00000000000E+00 0.  1.
          2    1    6    6  503    0 -0.20820273758E+02  0.24293156510E+01 -0.58560837812E+01  0.21764169894E+02  0.00000000000E+00 0. -1.
         -2    1    6    6    0  503 -0.53120882942E+03  0.13316051341E+03 -0.70815807666E+03  0.89521081558E+03  0.00000000000E+00 0.  1.
<mgrwt>
<rscale>  0 0.12193010E+04</rscale>
<asrwt>0</asrwt>
<pdfrwt beam="1">  1        2 0.27194387E+00 0.12193010E+04</pdfrwt>
<pdfrwt beam="2">  1       -1 0.32348630E-01 0.12193010E+04</pdfrwt>
<totfact> 0.90192545E+01</totfact>
</mgrwt>
</event>
<event>
12    6  0.1556619E-007  0.3285558E+04  0.7818608E-02  0.8166580E-01
         -1   -1    0    0    0  501 -0.00000000000E+00  0.00000000000E+00  0.13369761393E+04  0.13369761393E+04  0.00000000000E+00 0.  1.
          2   -1    0    0  501    0  0.00000000000E+00 -0.00000000000E+00 -0.20185271775E+04  0.20185271775E+04  0.00000000000E+00 0. -1.
         24    2    1    2    0    0 -0.22967867284E+03 -0.14525158914E+04 -0.69674658301E+03  0.16293823164E+04  0.82923002520E+02 0.  0.
        254    2    1    2    0    0  0.22967867284E+03  0.14525158914E+04  0.15195544827E+02  0.17261210003E+04  0.90371903577E+03 0.  0.
         23    2    4    4    0    0  0.53489675439E+03  0.12066543477E+04  0.77272083421E+01  0.13228874207E+04  0.88556001210E+02 0.  0.
         23    2    4    4    0    0 -0.30521808155E+03  0.24586154371E+03  0.74683364846E+01  0.40323357965E+03  0.94528131930E+02 0.  0.
          4    1    3    3  502    0 -0.20953057466E+03 -0.13216453993E+04 -0.65944148437E+03  0.14918152347E+04  0.00000000000E+00 0. -1.
         -3    1    3    3    0  502 -0.20148098177E+02 -0.13087049218E+03 -0.37305098642E+02  0.13756708170E+03  0.00000000000E+00 0.  1.
         11    1    5    5    0    0  0.28140223717E+03  0.56697393354E+03  0.38365906938E+02  0.63412822300E+03  0.00000000000E+00 0.  1.
        -11    1    5    5    0    0  0.25349451722E+03  0.63968041420E+03 -0.30638698596E+02  0.68875919770E+03  0.00000000000E+00 0. -1.
          4    1    6    6  503    0 -0.68030632964E+02  0.18514118027E+02  0.23431585611E+02  0.74296559759E+02  0.00000000000E+00 0. -1.
         -4    1    6    6    0  503 -0.23718744858E+03  0.22734742568E+03 -0.15963249126E+02  0.32893701989E+03  0.00000000000E+00 0.  1.
<mgrwt>
<rscale>  0 0.32855579E+04</rscale>
<asrwt>0</asrwt>
<pdfrwt beam="1">  1        2 0.31054264E+00 0.32855579E+04</pdfrwt>
<pdfrwt beam="2">  1       -1 0.20568864E+00 0.32855579E+04</pdfrwt>
<totfact> 0.85357163E-01</totfact>
</mgrwt>
</event>
<event>
12    6  0.1556619E-007  0.1509852E+04  0.7818608E-02  0.8877928E-01
         -1   -1    0    0    0  501 -0.00000000000E+00  0.00000000000E+00  0.26815024183E+03  0.26815024183E+03  0.00000000000E+00 0.  1.
          2   -1    0    0  501    0  0.00000000000E+00 -0.00000000000E+00 -0.21253507581E+04  0.21253507581E+04  0.00000000000E+00 0. -1.
         24    2    1    2    0    0  0.18529671335E+02 -0.17352459323E+03 -0.13061693983E+04  0.13202055439E+04  0.80062774183E+02 0.  0.
        254    2    1    2    0    0 -0.18529671335E+02  0.17352459323E+03 -0.55103111802E+03  0.10732954561E+04  0.90436370445E+03 0.  0.
         23    2    4    4    0    0  0.34083307022E+03  0.19727695835E+03 -0.57348545991E+03  0.70172686874E+03  0.91921953534E+02 0.  0.
         23    2    4    4    0    0 -0.35936274155E+03 -0.23752365126E+02  0.22454341891E+02  0.37156858738E+03  0.88618636820E+02 0.  0.
          2    1    3    3  502    0  0.20815109432E+02 -0.14574360890E+03 -0.12354474549E+04  0.12441884432E+04  0.00000000000E+00 0. -1.
         -1    1    3    3    0  502 -0.22854380976E+01 -0.27780984329E+02 -0.70721943345E+02  0.76017100629E+02  0.00000000000E+00 0.  1.
         11    1    5    5    0    0  0.13490371609E+03  0.12915105815E+03 -0.28641678678E+03  0.34192628473E+03  0.00000000000E+00 0. -1.
        -11    1    5    5    0    0  0.20592935412E+03  0.68125900200E+02 -0.28706867313E+03  0.35980058402E+03  0.00000000000E+00 0.  1.
          4    1    6    6  503    0 -0.12702300155E+03 -0.50116881028E+02  0.17651309638E+02  0.13768846509E+03  0.00000000000E+00 0. -1.
         -4    1    6    6    0  503 -0.23233974000E+03  0.26364515902E+02  0.48030322523E+01  0.23388012229E+03  0.00000000000E+00 0.  1.
<mgrwt>
<rscale>  0 0.15098521E+04</rscale>
<asrwt>0</asrwt>
<pdfrwt beam="1">  1        2 0.32697704E+00 0.15098521E+04</pdfrwt>
<pdfrwt beam="2">  1       -1 0.41253884E-01 0.15098521E+04</pdfrwt>
<totfact> 0.36018390E+01</totfact>
</mgrwt>
</event>
<event>
12    6  0.1556619E-007  0.3749958E+04  0.7818608E-02  0.8056980E-01
         -1   -1    0    0    0  501 -0.00000000000E+00  0.00000000000E+00  0.18803312503E+04  0.18803312503E+04  0.00000000000E+00 0.  1.
          2   -1    0    0  501    0  0.00000000000E+00 -0.00000000000E+00 -0.18696420721E+04  0.18696420721E+04  0.00000000000E+00 0. -1.
         24    2    1    2    0    0 -0.83506291125E+03  0.12180254567E+04  0.97197387936E+03  0.17696861537E+04  0.78356758235E+02 0.  0.
        254    2    1    2    0    0  0.83506291125E+03 -0.12180254567E+04 -0.96128470117E+03  0.19802871687E+04  0.90363317497E+03 0.  0.
         23    2    4    4    0    0  0.35467141360E+03 -0.63097552236E+03 -0.97333111417E+03  0.12162845818E+04  0.89737420440E+02 0.  0.
         23    2    4    4    0    0  0.48039149764E+03 -0.58704993436E+03  0.12046413006E+02  0.76400258692E+03  0.90284108892E+02 0.  0.
          2    1    3    3  502    0 -0.15895811672E+03  0.28704506989E+03  0.22677885644E+03  0.39886238823E+03  0.00000000000E+00 0. -1.
         -1    1    3    3    0  502 -0.67610479453E+03  0.93098038684E+03  0.74519502292E+03  0.13708237655E+04  0.00000000000E+00 0.  1.
         11    1    5    5    0    0  0.19254390457E+02 -0.96164996954E+02 -0.13196459620E+03  0.16441743473E+03  0.00000000000E+00 0. -1.
        -11    1    5    5    0    0  0.33541702314E+03 -0.53481052541E+03 -0.84136651797E+03  0.10518671471E+04  0.00000000000E+00 0.  1.
          3    1    6    6  503    0  0.17551343491E+03 -0.26345261475E+03  0.36932792055E+02  0.31871033429E+03  0.00000000000E+00 0.  1.
         -3    1    6    6    0  503  0.30487806273E+03 -0.32359731961E+03 -0.24886379049E+02  0.44529225263E+03  0.00000000000E+00 0. -1.
<mgrwt>
<rscale>  0 0.37499581E+04</rscale>
<asrwt>0</asrwt>
<pdfrwt beam="1">  1        2 0.28763724E+00 0.37499581E+04</pdfrwt>
<pdfrwt beam="2">  1       -1 0.28928173E+00 0.37499581E+04</pdfrwt>
<totfact> 0.28023773E-01</totfact>
</mgrwt>
</event>
<event>
12    6  0.1556619E-007  0.2006394E+04  0.7818608E-02  0.8603637E-01
         -1   -1    0    0    0  501 -0.00000000000E+00  0.00000000000E+00  0.48728215960E+03  0.48728215960E+03  0.00000000000E+00 0.  1.
          2   -1    0    0  501    0  0.00000000000E+00 -0.00000000000E+00 -0.20653415140E+04  0.20653415140E+04  0.00000000000E+00 0. -1.
         24    2    1    2    0    0  0.10349768570E+03 -0.68344423219E+03 -0.11004075304E+03  0.70450799595E+03  0.80092194119E+02 0.  0.
        254    2    1    2    0    0 -0.10349768570E+03  0.68344423219E+03 -0.14680186014E+04  0.18481156777E+04  0.88467234307E+03 0.  0.
         23    2    4    4    0    0 -0.39148402765E+03  0.70693556556E+03 -0.97472122957E+03  0.12694517019E+04  0.91697930254E+02 0.  0.
         23    2    4    4    0    0  0.28798634195E+03 -0.23491333366E+02 -0.49329737183E+03  0.57866397576E+03  0.89564077002E+02 0.  0.
          4    1    3    3  502    0  0.62811824771E+02 -0.23470730296E+03 -0.66071296443E+02  0.25179011023E+03  0.00000000000E+00 0. -1.
         -3    1    3    3    0  502  0.40685860925E+02 -0.44873692923E+03 -0.43969456594E+02  0.45271788572E+03  0.00000000000E+00 0.  1.
         11    1    5    5    0    0 -0.12748946364E+03  0.22749470596E+03 -0.38369263163E+03  0.46392611497E+03  0.00000000000E+00 0.  1.
        -11    1    5    5    0    0 -0.26399456400E+03  0.47944085960E+03 -0.59102859793E+03  0.80552558696E+03  0.00000000000E+00 0. -1.
          3    1    6    6  503    0  0.15776999768E+03 -0.19621121306E+02 -0.35333257431E+03  0.38745356965E+03  0.00000000000E+00 0. -1.
         -3    1    6    6    0  503  0.13021634427E+03 -0.38702120603E+01 -0.13996479752E+03  0.19121040610E+03  0.00000000000E+00 0.  1.
<mgrwt>
<rscale>  0 0.20063939E+04</rscale>
<asrwt>0</asrwt>
<pdfrwt beam="1">  1        2 0.31774485E+00 0.20063939E+04</pdfrwt>
<pdfrwt beam="2">  1       -1 0.74966486E-01 0.20063939E+04</pdfrwt>
<totfact> 0.11623175E+01</totfact>
</mgrwt>
</event>
<event>
12    6  0.1556619E-007  0.1237984E+04  0.7818608E-02  0.9080244E-01
          2   -1    0    0  501    0  0.00000000000E+00  0.00000000000E+00  0.41369140397E+03  0.41369140397E+03  0.00000000000E+00 0. -1.
         -1   -1    0    0    0  501 -0.00000000000E+00 -0.00000000000E+00 -0.92617655114E+03  0.92617655114E+03  0.00000000000E+00 0.  1.
         24    2    1    2    0    0  0.22229866180E+03 -0.15052911124E+03 -0.30613604833E+02  0.28054061011E+03  0.75432968609E+02 0.  0.
        254    2    1    2    0    0 -0.22229866180E+03  0.15052911124E+03 -0.48187154233E+03  0.10593273450E+04  0.90437742794E+03 0.  0.
         23    2    4    4    0    0 -0.14138612010E+02 -0.34281561709E+03 -0.35346604073E+03  0.50126253201E+03  0.92754710800E+02 0.  0.
         23    2    4    4    0    0 -0.20816004979E+03  0.49334472832E+03 -0.12840550160E+03  0.55806481299E+03  0.90712377105E+02 0.  0.
          2    1    3    3  502    0  0.12793008756E+03 -0.10598325383E+03  0.14691150423E+02  0.16677645906E+03  0.00000000000E+00 0. -1.
         -1    1    3    3    0  502  0.94368574238E+02 -0.44545857410E+02 -0.45304755256E+02  0.11376415105E+03  0.00000000000E+00 0.  1.
         11    1    5    5    0    0 -0.40347335751E+02 -0.97694088364E+02 -0.13818555487E+03  0.17397496940E+03  0.00000000000E+00 0. -1.
        -11    1    5    5    0    0  0.26208723742E+02 -0.24512152872E+03 -0.21528048586E+03  0.32728756260E+03  0.00000000000E+00 0.  1.
          4    1    6    6  503    0 -0.47239390585E+02  0.22447560680E+03 -0.44352514442E+02  0.23364075760E+03  0.00000000000E+00 0.  1.
         -4    1    6    6    0  503 -0.16092065921E+03  0.26886912152E+03 -0.84052987159E+02  0.32442405539E+03  0.00000000000E+00 0. -1.
<mgrwt>
<rscale>  0 0.12379843E+04</rscale>
<asrwt>0</asrwt>
<pdfrwt beam="1">  1        2 0.63644832E-01 0.12379843E+04</pdfrwt>
<pdfrwt beam="2">  1       -1 0.14248870E+00 0.12379843E+04</pdfrwt>
<totfact> 0.34508840E+01</totfact>
</mgrwt>
</event>
<event>
12    6  0.1556619E-007  0.1738376E+04  0.7818608E-02  0.8739775E-01
          2   -1    0    0  501    0  0.00000000000E+00  0.00000000000E+00  0.30589970822E+04  0.30589970822E+04  0.00000000000E+00 0. -1.
         -1   -1    0    0    0  501 -0.00000000000E+00 -0.00000000000E+00 -0.24697235505E+03  0.24697235505E+03  0.00000000000E+00 0.  1.
         24    2    1    2    0    0  0.31149014920E+03  0.50930791795E+03  0.62486765988E+03  0.86785034437E+03  0.79271429401E+02 0.  0.
        254    2    1    2    0    0 -0.31149014920E+03 -0.50930791795E+03  0.21871570672E+04  0.24381190929E+04  0.89685450650E+03 0.  0.
         23    2    4    4    0    0  0.16845432510E+03  0.44330827486E+02  0.93531640898E+02  0.21815791048E+03  0.92209674900E+02 0.  0.
         23    2    4    4    0    0 -0.47994447430E+03 -0.55363874543E+03  0.20936254263E+04  0.22199611824E+04  0.89987035557E+02 0.  0.
          2    1    3    3  502    0  0.19036441080E+03  0.32768428320E+03  0.34145041059E+03  0.51010193221E+03  0.00000000000E+00 0. -1.
         -1    1    3    3    0  502  0.12112573839E+03  0.18162363474E+03  0.28341724930E+03  0.35774841215E+03  0.00000000000E+00 0.  1.
         11    1    5    5    0    0  0.34048288112E+02  0.51679968291E+02  0.21685031258E+02  0.65577020568E+02  0.00000000000E+00 0. -1.
        -11    1    5    5    0    0  0.13440603699E+03 -0.73491408051E+01  0.71846609639E+02  0.15258088991E+03  0.00000000000E+00 0.  1.
          3    1    6    6  503    0 -0.22768861510E+03 -0.33098444631E+03  0.11327902746E+04  0.12019178904E+04  0.00000000000E+00 0. -1.
         -3    1    6    6    0  503 -0.25225585919E+03 -0.22265429912E+03  0.96083515177E+03  0.10180432920E+04  0.00000000000E+00 0.  1.
<mgrwt>
<rscale>  0 0.17383759E+04</rscale>
<asrwt>0</asrwt>
<pdfrwt beam="1">  1        2 0.47061491E+00 0.17383759E+04</pdfrwt>
<pdfrwt beam="2">  1       -1 0.37995749E-01 0.17383759E+04</pdfrwt>
<totfact> 0.11605334E+01</totfact>
</mgrwt>
</event>
<event>
12    6  0.1556619E-007  0.2121207E+04  0.7818608E-02  0.8551959E-01
          4   -1    0    0  501    0  0.00000000000E+00  0.00000000000E+00  0.20748233741E+04  0.20748233741E+04  0.00000000000E+00 0. -1.
         -3   -1    0    0    0  501 -0.00000000000E+00 -0.00000000000E+00 -0.54215684875E+03  0.54215684875E+03  0.00000000000E+00 0.  1.
         24    2    1    2    0    0 -0.60990244893E+02  0.33952205559E+03  0.16075456146E+04  0.16460845862E+04  0.79978282580E+02 0.  0.
        254    2    1    2    0    0  0.60990244893E+02 -0.33952205559E+03 -0.74879089304E+02  0.97089563661E+03  0.90445365993E+03 0.  0.
         23    2    4    4    0    0  0.17022286907E+03 -0.39147521229E+03  0.32467944966E+03  0.54379569657E+03  0.89823981145E+02 0.  0.
         23    2    4    4    0    0 -0.10923262417E+03  0.51953156692E+02 -0.39955853897E+03  0.42709994004E+03  0.90202195344E+02 0.  0.
          4    1    3    3  502    0 -0.66659540803E+02  0.29688127134E+03  0.14938679515E+04  0.15245404029E+04  0.00000000000E+00 0. -1.
         -3    1    3    3    0  502  0.56692959092E+01  0.42640784252E+02  0.11367766314E+03  0.12154418330E+03  0.00000000000E+00 0.  1.
         11    1    5    5    0    0  0.16343448696E+03 -0.36673935336E+03  0.27130344794E+03  0.48457625375E+03  0.00000000000E+00 0.  1.
        -11    1    5    5    0    0  0.67883821062E+01 -0.24735858923E+02  0.53376001724E+02  0.59219442823E+02  0.00000000000E+00 0. -1.
          1    1    6    6  503    0 -0.96443485949E+02  0.62195143591E+02 -0.23290281692E+03  0.25964072099E+03  0.00000000000E+00 0. -1.
         -1    1    6    6    0  503 -0.12789138225E+02 -0.10241986899E+02 -0.16665572205E+03  0.16745921905E+03  0.00000000000E+00 0.  1.
<mgrwt>
<rscale>  0 0.21212069E+04</rscale>
<asrwt>0</asrwt>
<pdfrwt beam="1">  1        4 0.31920359E+00 0.21212069E+04</pdfrwt>
<pdfrwt beam="2">  1       -3 0.83408747E-01 0.21212069E+04</pdfrwt>
<totfact> 0.65049022E-02</totfact>
</mgrwt>
</event>
<event>
12    6  0.1556619E-007  0.2187734E+04  0.7818608E-02  0.8523551E-01
         -1   -1    0    0    0  501 -0.00000000000E+00  0.00000000000E+00  0.32315458221E+03  0.32315458221E+03  0.00000000000E+00 0.  1.
          2   -1    0    0  501    0  0.00000000000E+00 -0.00000000000E+00 -0.37027004104E+04  0.37027004104E+04  0.00000000000E+00 0. -1.
         24    2    1    2    0    0  0.25219943335E+03 -0.14475578692E+03 -0.29870393248E+04  0.30021850693E+04  0.78437687099E+02 0.  0.
        254    2    1    2    0    0 -0.25219943335E+03  0.14475578692E+03 -0.39250650341E+03  0.10236699233E+04  0.89959989138E+03 0.  0.
         23    2    4    4    0    0 -0.44951538843E+03  0.28325567451E+03  0.17448772926E+02  0.53940753253E+03  0.91422999805E+02 0.  0.
         23    2    4    4    0    0  0.19731595508E+03 -0.13849988759E+03 -0.40995527634E+03  0.48426239074E+03  0.91273925625E+02 0.  0.
          4    1    3    3  502    0  0.21039784724E+03 -0.12495523871E+03 -0.27359025246E+04  0.27468242918E+04  0.00000000000E+00 0. -1.
         -3    1    3    3    0  502  0.41801586116E+02 -0.19800548210E+02 -0.25113680017E+03  0.25536077755E+03  0.00000000000E+00 0.  1.
         11    1    5    5    0    0 -0.41858692285E+03  0.28264496166E+03  0.30128560549E+02  0.50597521332E+03  0.00000000000E+00 0.  1.
        -11    1    5    5    0    0 -0.30928465584E+02  0.61071284628E+00 -0.12679787623E+02  0.33432319210E+02  0.00000000000E+00 0. -1.
          1    1    6    6  503    0  0.15432161578E+02 -0.15680614331E+02 -0.34134732116E+01  0.22263986079E+02  0.00000000000E+00 0. -1.
         -1    1    6    6    0  503  0.18188379350E+03 -0.12281927326E+03 -0.40654180313E+03  0.46199840466E+03  0.00000000000E+00 0.  1.
<mgrwt>
<rscale>  0 0.21877336E+04</rscale>
<asrwt>0</asrwt>
<pdfrwt beam="1">  1        2 0.56964622E+00 0.21877336E+04</pdfrwt>
<pdfrwt beam="2">  1       -1 0.49716090E-01 0.21877336E+04</pdfrwt>
<totfact> 0.24667770E+00</totfact>
</mgrwt>
</event>
<event>
12    6  0.1556619E-007  0.1882202E+04  0.7818608E-02  0.8663766E-01
          2   -1    0    0  501    0  0.00000000000E+00  0.00000000000E+00  0.25578061243E+04  0.25578061243E+04  0.00000000000E+00 0. -1.
         -1   -1    0    0    0  501 -0.00000000000E+00 -0.00000000000E+00 -0.34626218091E+03  0.34626218091E+03  0.00000000000E+00 0.  1.
         24    2    1    2    0    0  0.30791385797E+03  0.51887973126E+03  0.14710499661E+04  0.15919039345E+04  0.78249693731E+02 0.  0.
        254    2    1    2    0    0 -0.30791385797E+03 -0.51887973126E+03  0.74049397728E+03  0.13121643707E+04  0.89966487416E+03 0.  0.
         23    2    4    4    0    0 -0.26772637518E+03 -0.70543093658E+03  0.28885581697E+03  0.81320766919E+03  0.92513847578E+02 0.  0.
         23    2    4    4    0    0 -0.40187482791E+02  0.18655120532E+03  0.45163816031E+03  0.49895670147E+03  0.92543914499E+02 0.  0.
          4    1    3    3  502    0  0.14693841750E+03  0.27396660732E+03  0.85297527217E+03  0.90786310389E+03  0.00000000000E+00 0. -1.
         -3    1    3    3    0  502  0.16097544046E+03  0.24491312394E+03  0.61807469391E+03  0.68404083062E+03  0.00000000000E+00 0.  1.
         11    1    5    5    0    0 -0.18237875608E+03 -0.36856290556E+03  0.18149591800E+03  0.44949014925E+03  0.00000000000E+00 0.  1.
        -11    1    5    5    0    0 -0.85347619101E+02 -0.33686803101E+03  0.10735989897E+03  0.36371751994E+03  0.00000000000E+00 0. -1.
          3    1    6    6  503    0 -0.52395083457E+02  0.57433960838E+02  0.12134026295E+03  0.14410886177E+03  0.00000000000E+00 0. -1.
         -3    1    6    6    0  503  0.12207600666E+02  0.12911724448E+03  0.33029789736E+03  0.35484783969E+03  0.00000000000E+00 0.  1.
<mgrwt>
<rscale>  0 0.18822025E+04</rscale>
<asrwt>0</asrwt>
<pdfrwt beam="1">  1        2 0.39350862E+00 0.18822025E+04</pdfrwt>
<pdfrwt beam="2">  1       -1 0.53271106E-01 0.18822025E+04</pdfrwt>
<totfact> 0.12239584E+01</totfact>
</mgrwt>
</event>
<event>
12    6  0.1556619E-007  0.1644562E+04  0.7818608E-02  0.8793630E-01
          2   -1    0    0  501    0  0.00000000000E+00  0.00000000000E+00  0.21669397548E+04  0.21669397548E+04  0.00000000000E+00 0. -1.
         -1   -1    0    0    0  501 -0.00000000000E+00 -0.00000000000E+00 -0.31202820394E+03  0.31202820394E+03  0.00000000000E+00 0.  1.
         24    2    1    2    0    0  0.60473212507E+02  0.34105439740E+03 -0.34093816998E+02  0.35650184996E+03  0.77175574176E+02 0.  0.
        254    2    1    2    0    0 -0.60473212507E+02 -0.34105439740E+03  0.18890053679E+04  0.21224661088E+04  0.90362934419E+03 0.  0.
         23    2    4    4    0    0 -0.41278656950E+03 -0.41372156523E+03  0.12636983755E+04  0.13953225556E+04  0.91832263198E+02 0.  0.
         23    2    4    4    0    0  0.35231335700E+03  0.72667167828E+02  0.62530699239E+03  0.72714355315E+03  0.91234277355E+02 0.  0.
          4    1    3    3  502    0  0.52292960132E+01  0.17242791712E+02 -0.21111350460E+02  0.27755153054E+02  0.00000000000E+00 0. -1.
         -3    1    3    3    0  502  0.55243916494E+02  0.32381160569E+03 -0.12982466538E+02  0.32874669691E+03  0.00000000000E+00 0.  1.
         11    1    5    5    0    0 -0.77648911779E+02 -0.50394013646E+02  0.14152671301E+03  0.16911156261E+03  0.00000000000E+00 0.  1.
        -11    1    5    5    0    0 -0.33513765772E+03 -0.36332755159E+03  0.11221716625E+04  0.12262109930E+04  0.00000000000E+00 0. -1.
          3    1    6    6  503    0  0.15855225618E+03  0.68129142527E+02  0.23719173625E+03  0.29332629910E+03  0.00000000000E+00 0. -1.
         -3    1    6    6    0  503  0.19376110082E+03  0.45380253010E+01  0.38811525614E+03  0.43381725405E+03  0.00000000000E+00 0.  1.
<mgrwt>
<rscale>  0 0.16445623E+04</rscale>
<asrwt>0</asrwt>
<pdfrwt beam="1">  1        2 0.33337534E+00 0.16445623E+04</pdfrwt>
<pdfrwt beam="2">  1       -1 0.48004341E-01 0.16445623E+04</pdfrwt>
<totfact> 0.25453964E+01</totfact>
</mgrwt>
</event>
<event>
12    6  0.1556619E-007  0.1683429E+04  0.7818608E-02  0.8770872E-01
         -1   -1    0    0    0  501 -0.00000000000E+00  0.00000000000E+00  0.64745360878E+03  0.64745360878E+03  0.00000000000E+00 0.  1.
          2   -1    0    0  501    0  0.00000000000E+00 -0.00000000000E+00 -0.10942615625E+04  0.10942615625E+04  0.00000000000E+00 0. -1.
         24    2    1    2    0    0 -0.28310382740E+03  0.14848099430E+03 -0.71203540559E+03  0.78470590210E+03  0.81083606261E+02 0.  0.
        254    2    1    2    0    0  0.28310382740E+03 -0.14848099430E+03  0.26522745190E+03  0.95700926916E+03  0.86216399673E+03 0.  0.
         23    2    4    4    0    0  0.53909565525E+03  0.62858136928E+02  0.26924124183E+03  0.61202448175E+03  0.86647845113E+02 0.  0.
         23    2    4    4    0    0 -0.25599182785E+03 -0.21133913122E+03 -0.40137899283E+01  0.34498478741E+03  0.93820833112E+02 0.  0.
          4    1    3    3  502    0 -0.24563851447E+03  0.11147656777E+03 -0.64729693675E+03  0.70125503868E+03  0.00000000000E+00 0. -1.
         -3    1    3    3    0  502 -0.37465312935E+02  0.37004426526E+02 -0.64738468845E+02  0.83450863412E+02  0.00000000000E+00 0.  1.
         11    1    5    5    0    0  0.37582509912E+03  0.67858548213E+02  0.22306908001E+03  0.44227717797E+03  0.00000000000E+00 0. -1.
        -11    1    5    5    0    0  0.16327055613E+03 -0.50004112850E+01  0.46172161822E+02  0.16974730378E+03  0.00000000000E+00 0.  1.
          2    1    6    6  503    0 -0.26912808195E+02 -0.49703598709E+02  0.27499197940E+02  0.62856605516E+02  0.00000000000E+00 0.  1.
         -2    1    6    6    0  503 -0.22907901966E+03 -0.16163553251E+03 -0.31512987869E+02  0.28212818190E+03  0.00000000000E+00 0. -1.
<mgrwt>
<rscale>  0 0.16834294E+04</rscale>
<asrwt>0</asrwt>
<pdfrwt beam="1">  1        2 0.16834793E+00 0.16834294E+04</pdfrwt>
<pdfrwt beam="2">  1       -1 0.99608248E-01 0.16834294E+04</pdfrwt>
<totfact> 0.22960489E+01</totfact>
</mgrwt>
</event>
<event>
12    6  0.1556619E-007  0.2353006E+04  0.7818608E-02  0.8457310E-01
          2   -1    0    0  501    0  0.00000000000E+00  0.00000000000E+00  0.56164719793E+03  0.56164719793E+03  0.00000000000E+00 0. -1.
         -1   -1    0    0    0  501 -0.00000000000E+00 -0.00000000000E+00 -0.24644630033E+04  0.24644630033E+04  0.00000000000E+00 0.  1.
         24    2    1    2    0    0 -0.21939271277E+03  0.39672820859E+03 -0.19598050211E+04  0.20131032486E+04  0.78883047003E+02 0.  0.
        254    2    1    2    0    0  0.21939271277E+03 -0.39672820859E+03  0.56989215717E+02  0.10130069526E+04  0.90410667588E+03 0.  0.
         23    2    4    4    0    0  0.28751437414E+03  0.15977146588E+02 -0.32251390071E+03  0.44224152931E+03  0.92965421248E+02 0.  0.
         23    2    4    4    0    0 -0.68121661364E+02 -0.41270535518E+03  0.37950311643E+03  0.57076542327E+03  0.82366753497E+02 0.  0.
          2    1    3    3  502    0 -0.64481099705E+02  0.19701901660E+03 -0.90523045461E+03  0.92866381489E+03  0.00000000000E+00 0. -1.
         -1    1    3    3    0  502 -0.15491161307E+03  0.19970919199E+03 -0.10545745665E+04  0.10844394338E+04  0.00000000000E+00 0.  1.
         11    1    5    5    0    0  0.93640025435E+02  0.45243284207E+02 -0.13975166107E+03  0.17420084932E+03  0.00000000000E+00 0. -1.
        -11    1    5    5    0    0  0.19387434870E+03 -0.29266137619E+02 -0.18276223964E+03  0.26804068000E+03  0.00000000000E+00 0.  1.
          4    1    6    6  503    0 -0.27703797120E+01 -0.26042091821E+03  0.22399450043E+03  0.34351166773E+03  0.00000000000E+00 0. -1.
         -4    1    6    6    0  503 -0.65351281652E+02 -0.15228443697E+03  0.15550861600E+03  0.22725375554E+03  0.00000000000E+00 0.  1.
<mgrwt>
<rscale>  0 0.23530055E+04</rscale>
<asrwt>0</asrwt>
<pdfrwt beam="1">  1        2 0.86407260E-01 0.23530055E+04</pdfrwt>
<pdfrwt beam="2">  1       -1 0.37914816E+00 0.23530055E+04</pdfrwt>
<totfact> 0.54884985E-01</totfact>
</mgrwt>
</event>
<event>
12    6  0.1556619E-007  0.1952354E+04  0.7818608E-02  0.8629226E-01
          2   -1    0    0  501    0  0.00000000000E+00  0.00000000000E+00  0.10808749586E+04  0.10808749586E+04  0.00000000000E+00 0. -1.
         -1   -1    0    0    0  501 -0.00000000000E+00 -0.00000000000E+00 -0.88162068377E+03  0.88162068377E+03  0.00000000000E+00 0.  1.
         24    2    1    2    0    0 -0.50087838660E+03 -0.46244815617E+03  0.41012337436E+03  0.79944725482E+03  0.78595647065E+02 0.  0.
        254    2    1    2    0    0  0.50087838660E+03  0.46244815617E+03 -0.21086909951E+03  0.11630483876E+04  0.91841075744E+03 0.  0.
         23    2    4    4    0    0  0.71629198854E+03  0.24033179296E+03  0.28303202329E+02  0.76146840064E+03  0.90550926926E+02 0.  0.
         23    2    4    4    0    0 -0.21541360194E+03  0.22211636321E+03 -0.23917230184E+03  0.40157998692E+03  0.91238134711E+02 0.  0.
          4    1    3    3  502    0 -0.43084578637E+03 -0.42950785697E+03  0.35417781632E+03  0.70395100426E+03  0.00000000000E+00 0. -1.
         -3    1    3    3    0  502 -0.70032600222E+02 -0.32940299204E+02  0.55945558046E+02  0.95496250558E+02  0.00000000000E+00 0.  1.
         11    1    5    5    0    0  0.26912046294E+03  0.80695063390E+02 -0.32282751403E+02  0.28280681192E+03  0.00000000000E+00 0. -1.
        -11    1    5    5    0    0  0.44717152559E+03  0.15963672957E+03  0.60585953733E+02  0.47866158872E+03  0.00000000000E+00 0.  1.
          4    1    6    6  503    0 -0.21274834728E+03  0.22992707761E+03 -0.23762232548E+03  0.39318276902E+03  0.00000000000E+00 0.  1.
         -4    1    6    6    0  503 -0.26652546610E+01 -0.78107143990E+01 -0.15499763583E+01  0.83972179048E+01  0.00000000000E+00 0. -1.
<mgrwt>
<rscale>  0 0.19523542E+04</rscale>
<asrwt>0</asrwt>
<pdfrwt beam="1">  1        2 0.16628845E+00 0.19523542E+04</pdfrwt>
<pdfrwt beam="2">  1       -1 0.13563395E+00 0.19523542E+04</pdfrwt>
<totfact> 0.10840021E+01</totfact>
</mgrwt>
</event>
<event>
12    6  0.1556619E-007  0.1454946E+04  0.7818608E-02  0.8914979E-01
         -1   -1    0    0    0  501 -0.00000000000E+00  0.00000000000E+00  0.25444122136E+03  0.25444122136E+03  0.00000000000E+00 0.  1.
          2   -1    0    0  501    0  0.00000000000E+00 -0.00000000000E+00 -0.20799181976E+04  0.20799181976E+04  0.00000000000E+00 0. -1.
         24    2    1    2    0    0 -0.10042681031E+03  0.22317021758E+03 -0.11662226228E+04  0.11943108166E+04  0.80078901761E+02 0.  0.
        254    2    1    2    0    0  0.10042681031E+03 -0.22317021758E+03 -0.65925435343E+03  0.11400486023E+04  0.89733161258E+03 0.  0.
         23    2    4    4    0    0 -0.38370511318E+03 -0.15682989803E+03 -0.22977398172E+03  0.48292416478E+03  0.92706178077E+02 0.  0.
         23    2    4    4    0    0  0.48413192350E+03 -0.66340319552E+02 -0.42948037171E+03  0.65712443756E+03  0.92597944915E+02 0.  0.
          2    1    3    3  502    0 -0.49405217467E+02  0.11531490864E+03 -0.78168508193E+03  0.79168805156E+03  0.00000000000E+00 0. -1.
         -1    1    3    3    0  502 -0.51021592847E+02  0.10785530894E+03 -0.38453754084E+03  0.40262276503E+03  0.00000000000E+00 0.  1.
         11    1    5    5    0    0 -0.20322252821E+03 -0.39984833177E+02 -0.13961968626E+03  0.24978358562E+03  0.00000000000E+00 0.  1.
        -11    1    5    5    0    0 -0.18048258497E+03 -0.11684506485E+03 -0.90154295467E+02  0.23314057916E+03  0.00000000000E+00 0. -1.
          3    1    6    6  503    0  0.45791938843E+03 -0.75088039070E+02 -0.42476850209E+03  0.62909193309E+03  0.00000000000E+00 0. -1.
         -3    1    6    6    0  503  0.26212535067E+02  0.87477195173E+01 -0.47118696223E+01  0.28032504468E+02  0.00000000000E+00 0.  1.
<mgrwt>
<rscale>  0 0.14549459E+04</rscale>
<asrwt>0</asrwt>
<pdfrwt beam="1">  1        2 0.31998742E+00 0.14549459E+04</pdfrwt>
<pdfrwt beam="2">  1       -1 0.39144802E-01 0.14549459E+04</pdfrwt>
<totfact> 0.42222429E+01</totfact>
</mgrwt>
</event>
<event>
12    6  0.1556619E-007  0.2176668E+04  0.7818608E-02  0.8528203E-01
          2   -1    0    0  501    0  0.00000000000E+00  0.00000000000E+00  0.16021149454E+04  0.16021149454E+04  0.00000000000E+00 0. -1.
         -1   -1    0    0    0  501 -0.00000000000E+00 -0.00000000000E+00 -0.73931708804E+03  0.73931708804E+03  0.00000000000E+00 0.  1.
         24    2    1    2    0    0 -0.17215442157E+02 -0.88631049820E+03  0.48215614191E+03  0.10122757624E+04  0.79906215998E+02 0.  0.
        254    2    1    2    0    0  0.17215442157E+02  0.88631049820E+03  0.38064171542E+03  0.13291562710E+04  0.91428967320E+03 0.  0.
         23    2    4    4    0    0  0.31869922175E+03  0.38086283822E+03  0.51186928538E+03  0.71936309020E+03  0.94060590836E+02 0.  0.
         23    2    4    4    0    0 -0.30148377959E+03  0.50544765998E+03 -0.13122756996E+03  0.60979318079E+03  0.90869367114E+02 0.  0.
          4    1    3    3  502    0 -0.19618614839E+02 -0.45215939212E+03  0.20232446805E+03  0.49575013495E+03  0.00000000000E+00 0. -1.
         -3    1    3    3    0  502  0.24031726820E+01 -0.43415110608E+03  0.27983167386E+03  0.51652562748E+03  0.00000000000E+00 0.  1.
         11    1    5    5    0    0  0.18319479620E+03  0.14967082359E+03  0.26153055500E+03  0.35264701897E+03  0.00000000000E+00 0. -1.
        -11    1    5    5    0    0  0.13550442555E+03  0.23119201463E+03  0.25033873038E+03  0.36671607123E+03  0.00000000000E+00 0.  1.
          3    1    6    6  503    0 -0.30708181075E+03  0.48286394395E+03 -0.12616214435E+03  0.58598098393E+03  0.00000000000E+00 0. -1.
         -3    1    6    6    0  503  0.55980311561E+01  0.22583716034E+02 -0.50654256151E+01  0.23812196862E+02  0.00000000000E+00 0.  1.
<mgrwt>
<rscale>  0 0.21766681E+04</rscale>
<asrwt>0</asrwt>
<pdfrwt beam="1">  1        2 0.24647922E+00 0.21766681E+04</pdfrwt>
<pdfrwt beam="2">  1       -1 0.11374109E+00 0.21766681E+04</pdfrwt>
<totfact> 0.81758308E+00</totfact>
</mgrwt>
</event>
<event>
12    6  0.1556619E-007  0.2296226E+04  0.7818608E-02  0.8479411E-01
          2   -1    0    0  501    0  0.00000000000E+00  0.00000000000E+00  0.13578629925E+04  0.13578629925E+04  0.00000000000E+00 0. -1.
         -1   -1    0    0    0  501 -0.00000000000E+00 -0.00000000000E+00 -0.97076332507E+03  0.97076332507E+03  0.00000000000E+00 0.  1.
         24    2    1    2    0    0 -0.85298088143E+03 -0.28163578189E+03 -0.20194901456E+03  0.92377100346E+03  0.75328378594E+02 0.  0.
        254    2    1    2    0    0  0.85298088143E+03  0.28163578189E+03  0.58904868195E+03  0.14048553141E+04  0.90539770599E+03 0.  0.
         23    2    4    4    0    0  0.19307281282E+03 -0.30786681187E+03  0.92537312559E+02  0.38611227288E+03  0.91980694434E+02 0.  0.
         23    2    4    4    0    0  0.65990806862E+03  0.58950259376E+03  0.49651136939E+03  0.10187430412E+04  0.91224322198E+02 0.  0.
          4    1    3    3  502    0 -0.22200277871E+03 -0.60967603085E+02 -0.20518161899E+02  0.23113476014E+03  0.00000000000E+00 0. -1.
         -3    1    3    3    0  502 -0.63097810272E+03 -0.22066817880E+03 -0.18143085266E+03  0.69263624331E+03  0.00000000000E+00 0.  1.
         11    1    5    5    0    0  0.10330197073E+03 -0.92935653367E+02  0.11244912560E+02  0.13940868295E+03  0.00000000000E+00 0. -1.
        -11    1    5    5    0    0  0.89770842090E+02 -0.21493115851E+03  0.81292399999E+02  0.24670358993E+03  0.00000000000E+00 0.  1.
          4    1    6    6  503    0  0.16052903934E+03  0.18426538355E+03  0.16820597220E+03  0.29667583847E+03  0.00000000000E+00 0. -1.
         -4    1    6    6    0  503  0.49937902928E+03  0.40523721021E+03  0.32830539718E+03  0.72206720272E+03  0.00000000000E+00 0.  1.
<mgrwt>
<rscale>  0 0.22962261E+04</rscale>
<asrwt>0</asrwt>
<pdfrwt beam="1">  1        2 0.20890200E+00 0.22962261E+04</pdfrwt>
<pdfrwt beam="2">  1       -1 0.14934820E+00 0.22962261E+04</pdfrwt>
<totfact> 0.55823872E+00</totfact>
</mgrwt>
</event>
<event>
12    6  0.1556619E-007  0.1300365E+04  0.7818608E-02  0.9029276E-01
          2   -1    0    0  501    0  0.00000000000E+00  0.00000000000E+00  0.45492247333E+03  0.45492247333E+03  0.00000000000E+00 0. -1.
         -1   -1    0    0    0  501 -0.00000000000E+00 -0.00000000000E+00 -0.92925083463E+03  0.92925083463E+03  0.00000000000E+00 0.  1.
         24    2    1    2    0    0 -0.27463805607E+03 -0.10307652703E+02  0.68535518360E+02  0.29483512066E+03  0.81843274295E+02 0.  0.
        254    2    1    2    0    0  0.27463805607E+03  0.10307652703E+02 -0.54286387967E+03  0.10893381873E+04  0.90356194305E+03 0.  0.
         23    2    4    4    0    0 -0.31600913979E+03 -0.77563787552E+02 -0.24628651971E+03  0.41737090690E+03  0.87541456278E+02 0.  0.
         23    2    4    4    0    0  0.59064719586E+03  0.87871440256E+02 -0.29657735995E+03  0.67196728040E+03  0.83644458902E+02 0.  0.
          4    1    3    3  502    0 -0.24100663968E+03  0.19368687100E+02  0.54658624828E+02  0.24788487586E+03  0.00000000000E+00 0. -1.
         -3    1    3    3    0  502 -0.33631416394E+02 -0.29676339803E+02  0.13876893532E+02  0.46950244801E+02  0.00000000000E+00 0.  1.
         11    1    5    5    0    0 -0.18691107632E+03 -0.56397287032E+02 -0.19760685817E+03  0.27778566347E+03  0.00000000000E+00 0.  1.
        -11    1    5    5    0    0 -0.12909806347E+03 -0.21166500520E+02 -0.48679661546E+02  0.13958524343E+03  0.00000000000E+00 0. -1.
          4    1    6    6  503    0  0.44699876282E+03  0.99341538227E+02 -0.20909252446E+03  0.50338486168E+03  0.00000000000E+00 0.  1.
         -4    1    6    6    0  503  0.14364843303E+03 -0.11470097972E+02 -0.87484835490E+02  0.16858241872E+03  0.00000000000E+00 0. -1.
<mgrwt>
<rscale>  0 0.13003647E+04</rscale>
<asrwt>0</asrwt>
<pdfrwt beam="1">  1        2 0.69988073E-01 0.13003647E+04</pdfrwt>
<pdfrwt beam="2">  1       -1 0.14296167E+00 0.13003647E+04</pdfrwt>
<totfact> 0.30554103E+01</totfact>
</mgrwt>
</event>
<event>
12    6  0.1556619E-007  0.1772602E+04  0.7818608E-02  0.8721007E-01
         -1   -1    0    0    0  501 -0.00000000000E+00  0.00000000000E+00  0.86658959753E+03  0.86658959753E+03  0.00000000000E+00 0.  1.
          2   -1    0    0  501    0  0.00000000000E+00 -0.00000000000E+00 -0.90646077530E+03  0.90646077530E+03  0.00000000000E+00 0. -1.
         24    2    1    2    0    0 -0.62591458626E+03 -0.16350309016E+03  0.76468054604E+02  0.65634260451E+03  0.80224194169E+02 0.  0.
        254    2    1    2    0    0  0.62591458626E+03  0.16350309016E+03 -0.11633923237E+03  0.11167077683E+04  0.90277300195E+03 0.  0.
         23    2    4    4    0    0  0.78018068382E+03  0.10096352977E+03  0.13374335299E+03  0.80303577123E+03  0.90020173626E+02 0.  0.
         23    2    4    4    0    0 -0.15426609756E+03  0.62539560398E+02 -0.25008258536E+03  0.31367199709E+03  0.90219713950E+02 0.  0.
          4    1    3    3  502    0 -0.73141346009E+02  0.36383398754E+01 -0.36445383728E+01  0.73322415897E+02  0.00000000000E+00 0. -1.
         -3    1    3    3    0  502 -0.55277324025E+03 -0.16714143004E+03  0.80112592977E+02  0.58302018861E+03  0.00000000000E+00 0.  1.
         11    1    5    5    0    0  0.74698808685E+03  0.84721075776E+02  0.11176333393E+03  0.76003941042E+03  0.00000000000E+00 0.  1.
        -11    1    5    5    0    0  0.33192596969E+02  0.16242453990E+02  0.21980019065E+02  0.42996360814E+02  0.00000000000E+00 0. -1.
          2    1    6    6  503    0 -0.94890276678E+01 -0.15880999710E+02 -0.56952795471E+02  0.59882123458E+02  0.00000000000E+00 0. -1.
         -2    1    6    6    0  503 -0.14477706989E+03  0.78420560108E+02 -0.19312978989E+03  0.25378987363E+03  0.00000000000E+00 0.  1.
<mgrwt>
<rscale>  0 0.17726020E+04</rscale>
<asrwt>0</asrwt>
<pdfrwt beam="1">  1        2 0.13945550E+00 0.17726020E+04</pdfrwt>
<pdfrwt beam="2">  1       -1 0.13332148E+00 0.17726020E+04</pdfrwt>
<totfact> 0.14909099E+01</totfact>
</mgrwt>
</event>
<event>
12    6  0.1556619E-007  0.1421606E+04  0.7818608E-02  0.8938326E-01
         -1   -1    0    0    0  501 -0.00000000000E+00  0.00000000000E+00  0.78321287538E+03  0.78321287538E+03  0.00000000000E+00 0.  1.
          2   -1    0    0  501    0  0.00000000000E+00 -0.00000000000E+00 -0.64508784910E+03  0.64508784910E+03  0.00000000000E+00 0. -1.
         24    2    1    2    0    0  0.27166184837E+03  0.25157681593E+03 -0.15134280134E+03  0.40747205162E+03  0.77703121987E+02 0.  0.
        254    2    1    2    0    0 -0.27166184837E+03 -0.25157681593E+03  0.28946782762E+03  0.10208286728E+04  0.90620555169E+03 0.  0.
         23    2    4    4    0    0  0.28963072877E+03 -0.79942258276E+02  0.28977955780E+03  0.42720087407E+03  0.90838708611E+02 0.  0.
         23    2    4    4    0    0 -0.56129257714E+03 -0.17163455765E+03 -0.31173017752E+00  0.59362779878E+03  0.88803647323E+02 0.  0.
          4    1    3    3  502    0  0.17596300680E+03  0.16173696021E+03 -0.13686288829E+03  0.27541473136E+03  0.00000000000E+00 0. -1.
         -3    1    3    3    0  502  0.95698841569E+02  0.89839855719E+02 -0.14479913049E+02  0.13205732026E+03  0.00000000000E+00 0.  1.
         11    1    5    5    0    0  0.11402313464E+03 -0.62845229454E+02  0.78865047435E+02  0.15221857247E+03  0.00000000000E+00 0. -1.
        -11    1    5    5    0    0  0.17560759413E+03 -0.17097028822E+02  0.21091451036E+03  0.27498230160E+03  0.00000000000E+00 0.  1.
          3    1    6    6  503    0 -0.41324056724E+03 -0.13570331353E+03  0.37775763456E+02  0.43658923947E+03  0.00000000000E+00 0. -1.
         -3    1    6    6    0  503 -0.14805200989E+03 -0.35931244124E+02 -0.38087493634E+02  0.15703855931E+03  0.00000000000E+00 0.  1.
<mgrwt>
<rscale>  0 0.14216063E+04</rscale>
<asrwt>0</asrwt>
<pdfrwt beam="1">  1        2 0.99244285E-01 0.14216063E+04</pdfrwt>
<pdfrwt beam="2">  1       -1 0.12049429E+00 0.14216063E+04</pdfrwt>
<totfact> 0.30893545E+01</totfact>
</mgrwt>
</event>
<event>
12    6  0.1556619E-007  0.2566866E+04  0.7818608E-02  0.8379544E-01
         -1   -1    0    0    0  501 -0.00000000000E+00  0.00000000000E+00  0.94244005401E+03  0.94244005401E+03  0.00000000000E+00 0.  1.
          2   -1    0    0  501    0  0.00000000000E+00 -0.00000000000E+00 -0.17478035872E+04  0.17478035872E+04  0.00000000000E+00 0. -1.
         24    2    1    2    0    0  0.47238750082E+03  0.82204059054E+03  0.27013358282E+03  0.98917728179E+03  0.81233360146E+02 0.  0.
        254    2    1    2    0    0 -0.47238750082E+03 -0.82204059054E+03 -0.10754971160E+04  0.17010663594E+04  0.91544089335E+03 0.  0.
         23    2    4    4    0    0 -0.50487528286E+03 -0.34160121035E+03 -0.10389000298E+04  0.12079542253E+04  0.90827861256E+02 0.  0.
         23    2    4    4    0    0  0.32487782041E+02 -0.48043938020E+03 -0.36597086252E+02  0.49311213416E+03  0.99713470016E+02 0.  0.
          4    1    3    3  502    0  0.10055348975E+03  0.12680084609E+03  0.26668587742E+02  0.16401424463E+03  0.00000000000E+00 0. -1.
         -3    1    3    3    0  502  0.37183401107E+03  0.69523974445E+03  0.24346499508E+03  0.82516303715E+03  0.00000000000E+00 0.  1.
         11    1    5    5    0    0 -0.32112392921E+03 -0.16913668219E+03 -0.65218149888E+03  0.74637021822E+03  0.00000000000E+00 0.  1.
        -11    1    5    5    0    0 -0.18375135365E+03 -0.17246452816E+03 -0.38671853088E+03  0.46158400705E+03  0.00000000000E+00 0. -1.
          4    1    6    6  503    0 -0.35364219747E+01 -0.13267758880E+03  0.32687324270E+02  0.13669056302E+03  0.00000000000E+00 0. -1.
         -4    1    6    6    0  503  0.36024204015E+02 -0.34776179140E+03 -0.69284410522E+02  0.35642157114E+03  0.00000000000E+00 0.  1.
<mgrwt>
<rscale>  0 0.25668659E+04</rscale>
<asrwt>0</asrwt>
<pdfrwt beam="1">  1        2 0.26889286E+00 0.25668659E+04</pdfrwt>
<pdfrwt beam="2">  1       -1 0.14499078E+00 0.25668659E+04</pdfrwt>
<totfact> 0.35593505E+00</totfact>
</mgrwt>
</event>
<event>
12    6  0.1556619E-007  0.2376291E+04  0.7818608E-02  0.8448434E-01
         -1   -1    0    0    0  501 -0.00000000000E+00  0.00000000000E+00  0.17329211409E+04  0.17329211409E+04  0.00000000000E+00 0.  1.
          2   -1    0    0  501    0  0.00000000000E+00 -0.00000000000E+00 -0.81462999948E+03  0.81462999948E+03  0.00000000000E+00 0. -1.
         24    2    1    2    0    0 -0.70850339745E+03 -0.45956355575E+03 -0.20975210060E+03  0.87526871917E+03  0.94465131604E+02 0.  0.
        254    2    1    2    0    0  0.70850339745E+03  0.45956355575E+03  0.11280432420E+04  0.16722824212E+04  0.90048387793E+03 0.  0.
         23    2    4    4    0    0  0.21673686819E+03  0.53488217455E+03  0.98941963552E+03  0.11492710877E+04  0.93803023635E+02 0.  0.
         23    2    4    4    0    0  0.49176652925E+03 -0.75318618797E+02  0.13862360649E+03  0.52301133346E+03  0.82565955601E+02 0.  0.
          2    1    3    3  502    0 -0.54109158223E+02 -0.17054541063E+02 -0.33479229514E+02  0.65875011828E+02  0.00000000000E+00 0. -1.
         -1    1    3    3    0  502 -0.65439423922E+03 -0.44250901469E+03 -0.17627287108E+03  0.80939370734E+03  0.00000000000E+00 0.  1.
         11    1    5    5    0    0 -0.44902107696E+01  0.66616000478E+02  0.11716940555E+03  0.13485741770E+03  0.00000000000E+00 0. -1.
        -11    1    5    5    0    0  0.22122707896E+03  0.46826617407E+03  0.87225022997E+03  0.10144136700E+04  0.00000000000E+00 0.  1.
          1    1    6    6  503    0  0.32545953614E+03 -0.63537000552E+02  0.12964516017E+03  0.35604596285E+03  0.00000000000E+00 0. -1.
         -1    1    6    6    0  503  0.16630699311E+03 -0.11781618245E+02  0.89784463155E+01  0.16696537061E+03  0.00000000000E+00 0.  1.
<mgrwt>
<rscale>  0 0.23762908E+04</rscale>
<asrwt>0</asrwt>
<pdfrwt beam="1">  1        2 0.12532769E+00 0.23762908E+04</pdfrwt>
<pdfrwt beam="2">  1       -1 0.26660325E+00 0.23762908E+04</pdfrwt>
<totfact> 0.18783062E+00</totfact>
</mgrwt>
</event>
<event>
12    6  0.1556619E-007  0.2044850E+04  0.7818608E-02  0.8585934E-01
          2   -1    0    0  501    0  0.00000000000E+00  0.00000000000E+00  0.15362073549E+04  0.15362073549E+04  0.00000000000E+00 0. -1.
         -1   -1    0    0    0  501 -0.00000000000E+00 -0.00000000000E+00 -0.68047626771E+03  0.68047626771E+03  0.00000000000E+00 0.  1.
         24    2    1    2    0    0 -0.60247252397E+03  0.54655289646E+03  0.28172437720E+03  0.86440073410E+03  0.78273837472E+02 0.  0.
        254    2    1    2    0    0  0.60247252397E+03 -0.54655289646E+03  0.57400670999E+03  0.13522828885E+04  0.91514594281E+03 0.  0.
         23    2    4    4    0    0  0.21548260464E+03 -0.73144850424E+03  0.47530317057E+03  0.90385900244E+03  0.97971042074E+02 0.  0.
         23    2    4    4    0    0  0.38698991933E+03  0.18489560777E+03  0.98703539419E+02  0.44842388606E+03  0.85988426310E+02 0.  0.
          4    1    3    3  502    0 -0.50501682147E+02  0.79197550561E+02  0.34406586283E+02  0.10003242022E+03  0.00000000000E+00 0. -1.
         -3    1    3    3    0  502 -0.55197084183E+03  0.46735534590E+03  0.24731779092E+03  0.76436831389E+03  0.00000000000E+00 0.  1.
         11    1    5    5    0    0  0.44804287789E+02 -0.13689780009E+03  0.47120492277E+02  0.15155452044E+03  0.00000000000E+00 0.  1.
        -11    1    5    5    0    0  0.17067831686E+03 -0.59455070414E+03  0.42818267829E+03  0.75230448200E+03  0.00000000000E+00 0. -1.
          3    1    6    6  503    0  0.33780467968E+03  0.16530591620E+03  0.55634712081E+02  0.38017531316E+03  0.00000000000E+00 0. -1.
         -3    1    6    6    0  503  0.49185239648E+02  0.19589691576E+02  0.43068827338E+02  0.68248572905E+02  0.00000000000E+00 0.  1.
<mgrwt>
<rscale>  0 0.20448498E+04</rscale>
<asrwt>0</asrwt>
<pdfrwt beam="1">  1        2 0.23633959E+00 0.20448498E+04</pdfrwt>
<pdfrwt beam="2">  1       -1 0.10468866E+00 0.20448498E+04</pdfrwt>
<totfact> 0.10949135E+01</totfact>
</mgrwt>
</event>
<event>
12    6  0.1556619E-007  0.2721724E+04  0.7818608E-02  0.8327991E-01
          2   -1    0    0  501    0  0.00000000000E+00  0.00000000000E+00  0.27056877580E+04  0.27056877580E+04  0.00000000000E+00 0. -1.
         -1   -1    0    0    0  501 -0.00000000000E+00 -0.00000000000E+00 -0.68446368451E+03  0.68446368451E+03  0.00000000000E+00 0.  1.
         24    2    1    2    0    0  0.11243277495E+03  0.81743560600E+03 -0.20312479940E+03  0.85326934556E+03  0.77245019949E+02 0.  0.
        254    2    1    2    0    0 -0.11243277495E+03 -0.81743560600E+03  0.22243488729E+04  0.25368820970E+04  0.89844352449E+03 0.  0.
         23    2    4    4    0    0  0.91918244264E+02  0.97251147727E+02  0.56121013954E+02  0.17296449044E+03  0.94129683848E+02 0.  0.
         23    2    4    4    0    0 -0.20435101921E+03 -0.91468675373E+03  0.21682278589E+04  0.23639176065E+04  0.92104319444E+02 0.  0.
          2    1    3    3  502    0  0.10721393089E+02  0.98349099569E+01 -0.10854990258E+01  0.14589449330E+02  0.00000000000E+00 0. -1.
         -1    1    3    3    0  502  0.10171138186E+03  0.80760069604E+03 -0.20203930037E+03  0.83867989623E+03  0.00000000000E+00 0.  1.
         11    1    5    5    0    0  0.77627118099E+02  0.94847916952E+02  0.81309405725E+01  0.12283407104E+03  0.00000000000E+00 0. -1.
        -11    1    5    5    0    0  0.14291126165E+02  0.24032307758E+01  0.47990073382E+02  0.50130419392E+02  0.00000000000E+00 0.  1.
          4    1    6    6  503    0 -0.11944272439E+03 -0.52264483349E+03  0.11245507693E+04  0.12458084199E+04  0.00000000000E+00 0. -1.
         -4    1    6    6    0  503 -0.84908294821E+02 -0.39204192023E+03  0.10436770897E+04  0.11181091866E+04  0.00000000000E+00 0.  1.
<mgrwt>
<rscale>  0 0.27217237E+04</rscale>
<asrwt>0</asrwt>
<pdfrwt beam="1">  1        2 0.41625965E+00 0.27217237E+04</pdfrwt>
<pdfrwt beam="2">  1       -1 0.10530211E+00 0.27217237E+04</pdfrwt>
<totfact> 0.22176292E+00</totfact>
</mgrwt>
</event>
<event>
12    6  0.1556619E-007  0.1819849E+04  0.7818608E-02  0.8695815E-01
          2   -1    0    0  501    0  0.00000000000E+00  0.00000000000E+00  0.84451029727E+03  0.84451029727E+03  0.00000000000E+00 0. -1.
         -1   -1    0    0    0  501 -0.00000000000E+00 -0.00000000000E+00 -0.98040531195E+03  0.98040531195E+03  0.00000000000E+00 0.  1.
         24    2    1    2    0    0 -0.33150931866E+03  0.37532931842E+03  0.41991867961E+03  0.65834960094E+03  0.79510841692E+02 0.  0.
        254    2    1    2    0    0  0.33150931866E+03 -0.37532931842E+03 -0.55581369429E+03  0.11665660083E+04  0.89508483581E+03 0.  0.
         23    2    4    4    0    0  0.93655864076E+02  0.24434122188E+03 -0.38584088750E+03  0.47521737228E+03  0.92110297240E+02 0.  0.
         23    2    4    4    0    0  0.23785345459E+03 -0.61967054030E+03 -0.16997280679E+03  0.69134863601E+03  0.92229805835E+02 0.  0.
          4    1    3    3  502    0 -0.32735928679E+03  0.34257761692E+03  0.38797629976E+03  0.61241255330E+03  0.00000000000E+00 0. -1.
         -3    1    3    3    0  502 -0.41500318753E+01  0.32751701497E+02  0.31942379849E+02  0.45937047640E+02  0.00000000000E+00 0.  1.
         11    1    5    5    0    0  0.13761782603E+02  0.13962998954E+03 -0.24540195853E+03  0.28268010522E+03  0.00000000000E+00 0. -1.
        -11    1    5    5    0    0  0.79894081473E+02  0.10471123234E+03 -0.14043892898E+03  0.19253726705E+03  0.00000000000E+00 0.  1.
          3    1    6    6  503    0  0.13309682055E+03 -0.25824267915E+03 -0.10815067740E+03  0.31000099032E+03  0.00000000000E+00 0. -1.
         -3    1    6    6    0  503  0.10475663403E+03 -0.36142786115E+03 -0.61822129386E+02  0.38134764569E+03  0.00000000000E+00 0.  1.
<mgrwt>
<rscale>  0 0.18198488E+04</rscale>
<asrwt>0</asrwt>
<pdfrwt beam="1">  1        2 0.12992466E+00 0.18198488E+04</pdfrwt>
<pdfrwt beam="2">  1       -1 0.15083159E+00 0.18198488E+04</pdfrwt>
<totfact> 0.11841202E+01</totfact>
</mgrwt>
</event>
<event>
12    6  0.1556619E-007  0.1200859E+04  0.7818608E-02  0.9112105E-01
          2   -1    0    0  501    0  0.00000000000E+00  0.00000000000E+00  0.19362631735E+04  0.19362631735E+04  0.00000000000E+00 0. -1.
         -1   -1    0    0    0  501 -0.00000000000E+00 -0.00000000000E+00 -0.18619148043E+03  0.18619148043E+03  0.00000000000E+00 0.  1.
         24    2    1    2    0    0 -0.16773988451E+03  0.35780141722E+02  0.50486910998E+02  0.19573684208E+03  0.79668662401E+02 0.  0.
        254    2    1    2    0    0  0.16773988451E+03 -0.35780141722E+02  0.16995847821E+04  0.19267178118E+04  0.89119930858E+03 0.  0.
         23    2    4    4    0    0  0.33074779379E+03 -0.16253776688E+02  0.16709438506E+03  0.38207666494E+03  0.91672002366E+02 0.  0.
         23    2    4    4    0    0 -0.16300790928E+03 -0.19526365034E+02  0.15324903970E+04  0.15446411469E+04  0.10215967090E+03 0.  0.
          2    1    3    3  502    0 -0.15647445781E+02 -0.21449774161E+02  0.88096563348E+01  0.27974013222E+02  0.00000000000E+00 0. -1.
         -1    1    3    3    0  502 -0.15209243873E+03  0.57229915883E+02  0.41677254663E+02  0.16776282886E+03  0.00000000000E+00 0.  1.
         11    1    5    5    0    0  0.20717985527E+03 -0.21900595143E+02  0.15107747473E+03  0.25734710387E+03  0.00000000000E+00 0. -1.
        -11    1    5    5    0    0  0.12356793851E+03  0.56468184545E+01  0.16016910328E+02  0.12472956107E+03  0.00000000000E+00 0.  1.
          2    1    6    6  503    0 -0.37645162301E+02 -0.16016012906E+02  0.12391276340E+03  0.13049154704E+03  0.00000000000E+00 0. -1.
         -2    1    6    6    0  503 -0.12536274698E+03 -0.35103521279E+01  0.14085776336E+04  0.14141495998E+04  0.00000000000E+00 0.  1.
<mgrwt>
<rscale>  0 0.12008592E+04</rscale>
<asrwt>0</asrwt>
<pdfrwt beam="1">  1        2 0.29788663E+00 0.12008592E+04</pdfrwt>
<pdfrwt beam="2">  1       -1 0.28644845E-01 0.12008592E+04</pdfrwt>
<totfact> 0.90246125E+01</totfact>
</mgrwt>
</event>
<event>
12    6  0.1556619E-007  0.1303478E+04  0.7818608E-02  0.9026811E-01
         -1   -1    0    0    0  501 -0.00000000000E+00  0.00000000000E+00  0.34631910744E+03  0.34631910744E+03  0.00000000000E+00 0.  1.
          2   -1    0    0  501    0  0.00000000000E+00 -0.00000000000E+00 -0.12265101800E+04  0.12265101800E+04  0.00000000000E+00 0. -1.
         24    2    1    2    0    0 -0.33109296115E+03  0.14941900811E+02 -0.23150589172E+03  0.41197471308E+03  0.79261447070E+02 0.  0.
        254    2    1    2    0    0  0.33109296115E+03 -0.14941900811E+02 -0.64868518084E+03  0.11608545744E+04  0.90385013673E+03 0.  0.
         23    2    4    4    0    0  0.13737269448E+03 -0.39349292389E+03 -0.58111094530E+03  0.72082555255E+03  0.90507503134E+02 0.  0.
         23    2    4    4    0    0  0.19372026667E+03  0.37855102308E+03 -0.67574235542E+02  0.44002902182E+03  0.90723998694E+02 0.  0.
          4    1    3    3  502    0 -0.24483629439E+03 -0.66038422242E+01 -0.20444864665E+03  0.31904180118E+03  0.00000000000E+00 0. -1.
         -3    1    3    3    0  502 -0.86256666754E+02  0.21545743035E+02 -0.27057245073E+02  0.92932911895E+02  0.00000000000E+00 0.  1.
         11    1    5    5    0    0  0.38809021577E+02 -0.37903341706E+02 -0.10774245903E+03  0.12062852459E+03  0.00000000000E+00 0.  1.
        -11    1    5    5    0    0  0.98563672900E+02 -0.35558958219E+03 -0.47336848627E+03  0.60019702796E+03  0.00000000000E+00 0. -1.
          3    1    6    6  503    0  0.17164879096E+03  0.36025221371E+03 -0.82817485172E+02  0.40755821765E+03  0.00000000000E+00 0. -1.
         -3    1    6    6    0  503  0.22071475707E+02  0.18298809376E+02  0.15243249630E+02  0.32470804175E+02  0.00000000000E+00 0.  1.
<mgrwt>
<rscale>  0 0.13034783E+04</rscale>
<asrwt>0</asrwt>
<pdfrwt beam="1">  1        2 0.18869388E+00 0.13034783E+04</pdfrwt>
<pdfrwt beam="2">  1       -1 0.53279862E-01 0.13034783E+04</pdfrwt>
<totfact> 0.72486563E+01</totfact>
</mgrwt>
</event>
<event>
12    6  0.1556619E-007  0.2239477E+04  0.7818608E-02  0.8502174E-01
          2   -1    0    0  501    0  0.00000000000E+00  0.00000000000E+00  0.35819901131E+04  0.35819901131E+04  0.00000000000E+00 0. -1.
         -1   -1    0    0    0  501 -0.00000000000E+00 -0.00000000000E+00 -0.35003301032E+03  0.35003301032E+03  0.00000000000E+00 0.  1.
         24    2    1    2    0    0 -0.67741358753E+03  0.27710195070E+03  0.23891331285E+04  0.25001289223E+04  0.83742836312E+02 0.  0.
        254    2    1    2    0    0  0.67741358753E+03 -0.27710195070E+03  0.84282397424E+03  0.14318942011E+04  0.89682444879E+03 0.  0.
         23    2    4    4    0    0  0.28372799034E+03  0.30763916163E+03  0.44263679538E+03  0.61599198403E+03  0.91517022968E+02 0.  0.
         23    2    4    4    0    0  0.39368559719E+03 -0.58474111233E+03  0.40018717886E+03  0.81590221707E+03  0.92930790509E+02 0.  0.
          4    1    3    3  502    0 -0.49501472535E+03  0.23978022264E+03  0.17456257469E+04  0.18302304177E+04  0.00000000000E+00 0. -1.
         -3    1    3    3    0  502 -0.18239886218E+03  0.37321728062E+02  0.64350738160E+03  0.66989850461E+03  0.00000000000E+00 0.  1.
         11    1    5    5    0    0  0.63586962895E+02  0.22844441917E+02  0.56256948901E+02  0.87920502025E+02  0.00000000000E+00 0. -1.
        -11    1    5    5    0    0  0.22014102745E+03  0.28479471971E+03  0.38637984648E+03  0.52807148200E+03  0.00000000000E+00 0.  1.
          3    1    6    6  503    0  0.72331283223E+01 -0.24264829033E+02 -0.16313530622E+01  0.25372453294E+02  0.00000000000E+00 0. -1.
         -3    1    6    6    0  503  0.38645246887E+03 -0.56047628329E+03  0.40181853192E+03  0.79052976378E+03  0.00000000000E+00 0.  1.
<mgrwt>
<rscale>  0 0.22394774E+04</rscale>
<asrwt>0</asrwt>
<pdfrwt beam="1">  1        2 0.55107538E+00 0.22394774E+04</pdfrwt>
<pdfrwt beam="2">  1       -1 0.53851235E-01 0.22394774E+04</pdfrwt>
<totfact> 0.25756236E+00</totfact>
</mgrwt>
</event>
<event>
12    6  0.1556619E-007  0.3141925E+04  0.7818608E-02  0.8204325E-01
          2   -1    0    0  501    0  0.00000000000E+00  0.00000000000E+00  0.18575901611E+04  0.18575901611E+04  0.00000000000E+00 0. -1.
         -1   -1    0    0    0  501 -0.00000000000E+00 -0.00000000000E+00 -0.13285617311E+04  0.13285617311E+04  0.00000000000E+00 0.  1.
         24    2    1    2    0    0  0.19597422396E+03  0.14275432078E+04  0.26211398745E+03  0.14668100145E+04  0.80884916927E+02 0.  0.
        254    2    1    2    0    0 -0.19597422396E+03 -0.14275432078E+04  0.26691444255E+03  0.17193418778E+04  0.89922614873E+03 0.  0.
         23    2    4    4    0    0 -0.34120251309E+03 -0.37262204113E+03 -0.20210311024E+03  0.55188402197E+03  0.91999815556E+02 0.  0.
         23    2    4    4    0    0  0.14522828913E+03 -0.10549211666E+04  0.46901755279E+03  0.11674578558E+04  0.95028714110E+02 0.  0.
          4    1    3    3  502    0  0.13675345359E+03  0.10993460310E+04  0.16966687645E+03  0.11207363882E+04  0.00000000000E+00 0. -1.
         -3    1    3    3    0  502  0.59220770373E+02  0.32819717677E+03  0.92447110998E+02  0.34607362629E+03  0.00000000000E+00 0.  1.
         11    1    5    5    0    0 -0.16671114159E+03 -0.15511365225E+03 -0.13625728435E+03  0.26536559193E+03  0.00000000000E+00 0. -1.
        -11    1    5    5    0    0 -0.17449137150E+03 -0.21750838889E+03 -0.65845825883E+02  0.28651843004E+03  0.00000000000E+00 0.  1.
          1    1    6    6  503    0  0.17315633954E+02 -0.36675640778E+03  0.12785088750E+03  0.38878778693E+03  0.00000000000E+00 0. -1.
         -1    1    6    6    0  503  0.12791265517E+03 -0.68816475883E+03  0.34116666528E+03  0.77867006887E+03  0.00000000000E+00 0.  1.
<mgrwt>
<rscale>  0 0.31419250E+04</rscale>
<asrwt>0</asrwt>
<pdfrwt beam="1">  1        2 0.28578310E+00 0.31419250E+04</pdfrwt>
<pdfrwt beam="2">  1       -1 0.20439411E+00 0.31419250E+04</pdfrwt>
<totfact> 0.10834469E+00</totfact>
</mgrwt>
</event>
<event>
12    6  0.1556619E-007  0.1387618E+04  0.7818608E-02  0.8962830E-01
         -1   -1    0    0    0  501 -0.00000000000E+00  0.00000000000E+00  0.17550322340E+03  0.17550322340E+03  0.00000000000E+00 0.  1.
          2   -1    0    0  501    0  0.00000000000E+00 -0.00000000000E+00 -0.27428057414E+04  0.27428057414E+04  0.00000000000E+00 0. -1.
         24    2    1    2    0    0 -0.13000585199E+03 -0.38287911402E+03 -0.81744688710E+03  0.91551197264E+03  0.80279644471E+02 0.  0.
        254    2    1    2    0    0  0.13000585199E+03  0.38287911402E+03 -0.17498556309E+04  0.20027969922E+04  0.88639896509E+03 0.  0.
         23    2    4    4    0    0 -0.12468645804E+03 -0.21360401073E+03 -0.23507428041E+03  0.35249004203E+03  0.88407727043E+02 0.  0.
         23    2    4    4    0    0  0.25469231002E+03  0.59648312475E+03 -0.15147813505E+04  0.16503069501E+04  0.91050529830E+02 0.  0.
          4    1    3    3  502    0 -0.54661624463E+02 -0.22419007333E+03 -0.53850903589E+03  0.58586778705E+03  0.00000000000E+00 0. -1.
         -3    1    3    3    0  502 -0.75344227522E+02 -0.15868904069E+03 -0.27893785121E+03  0.32964418559E+03  0.00000000000E+00 0.  1.
         11    1    5    5    0    0 -0.75041295894E+02 -0.79367232693E+02 -0.15144785268E+03  0.18672655354E+03  0.00000000000E+00 0. -1.
        -11    1    5    5    0    0 -0.49645162143E+02 -0.13423677803E+03 -0.83626427732E+02  0.16576348849E+03  0.00000000000E+00 0.  1.
          3    1    6    6  503    0  0.22663994261E+02  0.18068377439E+02 -0.10478586110E+03  0.10872074129E+03  0.00000000000E+00 0. -1.
         -3    1    6    6    0  503  0.23202831576E+03  0.57841474731E+03 -0.14099954894E+04  0.15415862088E+04  0.00000000000E+00 0.  1.
<mgrwt>
<rscale>  0 0.13876185E+04</rscale>
<asrwt>0</asrwt>
<pdfrwt beam="1">  1        2 0.42197011E+00 0.13876185E+04</pdfrwt>
<pdfrwt beam="2">  1       -1 0.27000496E-01 0.13876185E+04</pdfrwt>
<totfact> 0.34277068E+01</totfact>
</mgrwt>
</event>
<event>
12    6  0.1556619E-007  0.3154479E+04  0.7818608E-02  0.8200944E-01
          2   -1    0    0  501    0  0.00000000000E+00  0.00000000000E+00  0.19946792331E+04  0.19946792331E+04  0.00000000000E+00 0. -1.
         -3   -1    0    0    0  501 -0.00000000000E+00 -0.00000000000E+00 -0.12471597980E+04  0.12471597980E+04  0.00000000000E+00 0.  1.
         24    2    1    2    0    0  0.14574171526E+02 -0.77658591233E+03  0.15972100946E+04  0.17778598509E+04  0.80046721259E+02 0.  0.
        254    2    1    2    0    0 -0.14574171526E+02  0.77658591233E+03 -0.84969065950E+03  0.14639791801E+04  0.90441292414E+03 0.  0.
         23    2    4    4    0    0  0.14415301727E+01 -0.12745568597E+03  0.68505715427E+02  0.17218565427E+03  0.93315789622E+02 0.  0.
         23    2    4    4    0    0 -0.16015701699E+02  0.90404159830E+03 -0.91819637493E+03  0.12917935259E+04  0.89990090643E+02 0.  0.
          4    1    3    3  502    0  0.28857662475E+02 -0.61938368316E+03  0.12075337321E+04  0.13574264716E+04  0.00000000000E+00 0. -1.
         -3    1    3    3    0  502 -0.14283490949E+02 -0.15720222916E+03  0.38967636246E+03  0.42043337930E+03  0.00000000000E+00 0.  1.
         11    1    5    5    0    0  0.25785823828E+02 -0.97437258485E+02  0.83343410832E+02  0.13078628438E+03  0.00000000000E+00 0.  1.
        -11    1    5    5    0    0 -0.24344293655E+02 -0.30018427487E+02 -0.14837695405E+02  0.41399369890E+02  0.00000000000E+00 0. -1.
          3    1    6    6  503    0  0.90923550982E+01  0.16826996711E+03 -0.22040267053E+03  0.27744330940E+03  0.00000000000E+00 0. -1.
         -3    1    6    6    0  503 -0.25108056797E+02  0.73577163118E+03 -0.69779370440E+03  0.10143502165E+04  0.00000000000E+00 0.  1.
<mgrwt>
<rscale>  0 0.31544786E+04</rscale>
<asrwt>0</asrwt>
<pdfrwt beam="1">  1        2 0.30687373E+00 0.31544786E+04</pdfrwt>
<pdfrwt beam="2">  1       -3 0.19187074E+00 0.31544786E+04</pdfrwt>
<totfact> 0.59412192E-01</totfact>
</mgrwt>
</event>
<event>
12    6  0.1556619E-007  0.1823562E+04  0.7818608E-02  0.8693869E-01
         -1   -1    0    0    0  501 -0.00000000000E+00  0.00000000000E+00  0.64760678018E+03  0.64760678018E+03  0.00000000000E+00 0.  1.
          2   -1    0    0  501    0  0.00000000000E+00 -0.00000000000E+00 -0.12837175894E+04  0.12837175894E+04  0.00000000000E+00 0. -1.
         24    2    1    2    0    0 -0.48595532951E+03  0.25509681264E+03 -0.68155487389E+03  0.87874208451E+03  0.80272279503E+02 0.  0.
        254    2    1    2    0    0  0.48595532951E+03 -0.25509681264E+03  0.45444064654E+02  0.10525822851E+04  0.89701579573E+03 0.  0.
         23    2    4    4    0    0  0.41221425325E+03 -0.13802382481E+03  0.43963635468E+03  0.62481450689E+03  0.90232349296E+02 0.  0.
         23    2    4    4    0    0  0.73741076265E+02 -0.11707298783E+03 -0.39419229003E+03  0.42776777821E+03  0.91944982187E+02 0.  0.
          4    1    3    3  502    0 -0.23254678585E+03  0.16483128655E+03 -0.37164723291E+03  0.46836847285E+03  0.00000000000E+00 0. -1.
         -3    1    3    3    0  502 -0.25340854366E+03  0.90265526091E+02 -0.30990764098E+03  0.41037361165E+03  0.00000000000E+00 0.  1.
         11    1    5    5    0    0  0.18633763998E+03 -0.36135446021E+02  0.24380792288E+03  0.30898185997E+03  0.00000000000E+00 0.  1.
        -11    1    5    5    0    0  0.22587661327E+03 -0.10188837879E+03  0.19582843180E+03  0.31583264691E+03  0.00000000000E+00 0. -1.
          3    1    6    6  503    0  0.18822542446E+02  0.14324682276E+02 -0.60246275408E+02  0.64723244101E+02  0.00000000000E+00 0. -1.
         -3    1    6    6    0  503  0.54918533819E+02 -0.13139767010E+03 -0.33394601462E+03  0.36304453411E+03  0.00000000000E+00 0.  1.
<mgrwt>
<rscale>  0 0.18235616E+04</rscale>
<asrwt>0</asrwt>
<pdfrwt beam="1">  1        2 0.19749501E+00 0.18235616E+04</pdfrwt>
<pdfrwt beam="2">  1       -1 0.99631813E-01 0.18235616E+04</pdfrwt>
<totfact> 0.17449359E+01</totfact>
</mgrwt>
</event>
<event>
12    6  0.1556619E-007  0.1220161E+04  0.7818608E-02  0.9095391E-01
         -1   -1    0    0    0  501 -0.00000000000E+00  0.00000000000E+00  0.39369096424E+03  0.39369096424E+03  0.00000000000E+00 0.  1.
          2   -1    0    0  501    0  0.00000000000E+00 -0.00000000000E+00 -0.94540683792E+03  0.94540683792E+03  0.00000000000E+00 0. -1.
         24    2    1    2    0    0  0.16527624072E+03  0.18076369226E+03 -0.27805191836E+03  0.37752167250E+03  0.72235695600E+02 0.  0.
        254    2    1    2    0    0 -0.16527624072E+03 -0.18076369226E+03 -0.27366395533E+03  0.96157612967E+03  0.88867595023E+03 0.  0.
         23    2    4    4    0    0 -0.24553512903E+03 -0.30418528901E+03  0.20663466638E+03  0.45098016842E+03  0.88707594507E+02 0.  0.
         23    2    4    4    0    0  0.80258888310E+02  0.12342159675E+03 -0.48029862170E+03  0.51059596125E+03  0.91362409843E+02 0.  0.
          4    1    3    3  502    0  0.10322852228E+03  0.11502975910E+03 -0.22417342609E+03  0.27228973219E+03  0.00000000000E+00 0. -1.
         -3    1    3    3    0  502  0.62047718433E+02  0.65733933165E+02 -0.53878492263E+02  0.10523194031E+03  0.00000000000E+00 0.  1.
         11    1    5    5    0    0 -0.19555898434E+03 -0.25435514514E+03  0.12830280935E+03  0.34554517376E+03  0.00000000000E+00 0. -1.
        -11    1    5    5    0    0 -0.49976144684E+02 -0.49830143867E+02  0.78331857021E+02  0.10543499466E+03  0.00000000000E+00 0.  1.
          4    1    6    6  503    0  0.41484742423E+02  0.12038389670E+03 -0.29578776362E+03  0.32203053822E+03  0.00000000000E+00 0. -1.
         -4    1    6    6    0  503  0.38774145887E+02  0.30377000553E+01 -0.18451085808E+03  0.18856542303E+03  0.00000000000E+00 0.  1.
<mgrwt>
<rscale>  0 0.12201609E+04</rscale>
<asrwt>0</asrwt>
<pdfrwt beam="1">  1        2 0.14544721E+00 0.12201609E+04</pdfrwt>
<pdfrwt beam="2">  1       -1 0.60567841E-01 0.12201609E+04</pdfrwt>
<totfact> 0.84979522E+01</totfact>
</mgrwt>
</event>
<event>
12    6  0.1556619E-007  0.1353642E+04  0.7818608E-02  0.8988076E-01
         -1   -1    0    0    0  501 -0.00000000000E+00  0.00000000000E+00  0.16379033534E+03  0.16379033534E+03  0.00000000000E+00 0.  1.
          2   -1    0    0  501    0  0.00000000000E+00 -0.00000000000E+00 -0.27967866145E+04  0.27967866145E+04  0.00000000000E+00 0. -1.
         24    2    1    2    0    0  0.34796561067E+03  0.10969145997E+03 -0.57866971844E+03  0.68867080996E+03  0.79350859188E+02 0.  0.
        254    2    1    2    0    0 -0.34796561067E+03 -0.10969145997E+03 -0.20543265607E+04  0.22719061399E+04  0.89899255155E+03 0.  0.
         23    2    4    4    0    0 -0.14176370885E+03  0.46660069466E+02  0.22435361322E+02  0.17710768897E+03  0.92680509401E+02 0.  0.
         23    2    4    4    0    0 -0.20620190181E+03 -0.15635152943E+03 -0.20767619221E+04  0.20947984509E+04  0.90969467547E+02 0.  0.
          2    1    3    3  502    0  0.83932358641E+01  0.17101428222E+02 -0.15493887881E+02  0.24555362290E+02  0.00000000000E+00 0. -1.
         -1    1    3    3    0  502  0.33957237480E+03  0.92590031745E+02 -0.56317583056E+03  0.66411544767E+03  0.00000000000E+00 0.  1.
         11    1    5    5    0    0 -0.25598294378E+02 -0.25463455853E+02 -0.81043002502E+01  0.37004593520E+02  0.00000000000E+00 0.  1.
        -11    1    5    5    0    0 -0.11616541448E+03  0.72123525319E+02  0.30539661573E+02  0.14010309545E+03  0.00000000000E+00 0. -1.
          1    1    6    6  503    0 -0.19746598400E+03 -0.16625036793E+03 -0.20247067574E+04  0.20410951602E+04  0.00000000000E+00 0. -1.
         -1    1    6    6    0  503 -0.87359178102E+01  0.98988384932E+01 -0.52055164661E+02  0.53703290694E+02  0.00000000000E+00 0.  1.
<mgrwt>
<rscale>  0 0.13536419E+04</rscale>
<asrwt>0</asrwt>
<pdfrwt beam="1">  1        2 0.43027484E+00 0.13536419E+04</pdfrwt>
<pdfrwt beam="2">  1       -1 0.25198515E-01 0.13536419E+04</pdfrwt>
<totfact> 0.35961003E+01</totfact>
</mgrwt>
</event>
<event>
12    6  0.1556619E-007  0.1329421E+04  0.7818608E-02  0.9006554E-01
         -1   -1    0    0    0  501 -0.00000000000E+00  0.00000000000E+00  0.76684085114E+03  0.76684085114E+03  0.00000000000E+00 0.  1.
          2   -1    0    0  501    0  0.00000000000E+00 -0.00000000000E+00 -0.57618183331E+03  0.57618183331E+03  0.00000000000E+00 0. -1.
         24    2    1    2    0    0  0.24130250798E+03 -0.79071354722E+02 -0.20236106379E+03  0.33449903331E+03  0.80376760664E+02 0.  0.
        254    2    1    2    0    0 -0.24130250798E+03  0.79071354722E+02  0.39302008161E+03  0.10085236511E+04  0.89340695702E+03 0.  0.
         23    2    4    4    0    0  0.22268738851E+03  0.34055795149E+02  0.46847589272E+03  0.52778340773E+03  0.91302755867E+02 0.  0.
         23    2    4    4    0    0 -0.46398989649E+03  0.45015559572E+02 -0.75455811107E+02  0.48074024340E+03  0.90025427247E+02 0.  0.
          4    1    3    3  502    0  0.17680459358E+03 -0.74180108119E+02 -0.18740279773E+03  0.26810886100E+03  0.00000000000E+00 0. -1.
         -3    1    3    3    0  502  0.64497914404E+02 -0.48912466022E+01 -0.14958266052E+02  0.66390172308E+02  0.00000000000E+00 0.  1.
         11    1    5    5    0    0  0.20417971842E+03  0.45456802768E+01  0.36054055162E+03  0.41436639582E+03  0.00000000000E+00 0.  1.
        -11    1    5    5    0    0  0.18507670093E+02  0.29510114873E+02  0.10793534110E+03  0.11341701190E+03  0.00000000000E+00 0. -1.
          1    1    6    6  503    0 -0.11669102227E+03  0.47547480376E+02 -0.34901771297E+01  0.12605450767E+03  0.00000000000E+00 0. -1.
         -1    1    6    6    0  503 -0.34729887422E+03 -0.25319208037E+01 -0.71965633977E+02  0.35468573573E+03  0.00000000000E+00 0.  1.
<mgrwt>
<rscale>  0 0.13294206E+04</rscale>
<asrwt>0</asrwt>
<pdfrwt beam="1">  1        2 0.88643359E-01 0.13294206E+04</pdfrwt>
<pdfrwt beam="2">  1       -1 0.11797552E+00 0.13294206E+04</pdfrwt>
<totfact> 0.37591955E+01</totfact>
</mgrwt>
</event>
<event>
12    6  0.1556619E-007  0.2052137E+04  0.7818608E-02  0.8582625E-01
         -1   -1    0    0    0  501 -0.00000000000E+00  0.00000000000E+00  0.11571133025E+04  0.11571133025E+04  0.00000000000E+00 0.  1.
          2   -1    0    0  501    0  0.00000000000E+00 -0.00000000000E+00 -0.90986488318E+03  0.90986488318E+03  0.00000000000E+00 0. -1.
         24    2    1    2    0    0  0.79469460080E+03  0.22245998533E+03 -0.15974925726E+02  0.82931746236E+03  0.80525160630E+02 0.  0.
        254    2    1    2    0    0 -0.79469460080E+03 -0.22245998533E+03  0.26322334502E+03  0.12376607233E+04  0.88401899472E+03 0.  0.
         23    2    4    4    0    0 -0.65710411585E+03 -0.13836909140E+03 -0.22524107450E+03  0.71418581845E+03  0.91629782876E+02 0.  0.
         23    2    4    4    0    0 -0.13759048495E+03 -0.84090893937E+02  0.48846441952E+03  0.52347490486E+03  0.97087933789E+02 0.  0.
          2    1    3    3  502    0  0.24351096950E+03  0.81239186610E+02  0.30120334393E+02  0.25846592087E+03  0.00000000000E+00 0. -1.
         -1    1    3    3    0  502  0.55118363131E+03  0.14122079872E+03 -0.46095260120E+02  0.57085154149E+03  0.00000000000E+00 0.  1.
         11    1    5    5    0    0 -0.45030599889E+03 -0.10743530605E+03 -0.11162058241E+03  0.47621107930E+03  0.00000000000E+00 0.  1.
        -11    1    5    5    0    0 -0.20679811696E+03 -0.30933785347E+02 -0.11362049209E+03  0.23797473915E+03  0.00000000000E+00 0. -1.
          4    1    6    6  503    0 -0.46582296846E+01  0.96694331958E+01  0.25185215510E+01  0.11024517809E+02  0.00000000000E+00 0.  1.
         -4    1    6    6    0  503 -0.13293225527E+03 -0.93760327133E+02  0.48594589797E+03  0.51245038705E+03  0.00000000000E+00 0. -1.
<mgrwt>
<rscale>  0 0.20521372E+04</rscale>
<asrwt>0</asrwt>
<pdfrwt beam="1">  1        2 0.13997921E+00 0.20521372E+04</pdfrwt>
<pdfrwt beam="2">  1       -1 0.17801743E+00 0.20521372E+04</pdfrwt>
<totfact> 0.65545691E+00</totfact>
</mgrwt>
</event>
<event>
12    6  0.1556619E-007  0.1149925E+04  0.7818608E-02  0.9157852E-01
          2   -1    0    0  501    0  0.00000000000E+00  0.00000000000E+00  0.43717365031E+03  0.43717365031E+03  0.00000000000E+00 0. -1.
         -1   -1    0    0    0  501 -0.00000000000E+00 -0.00000000000E+00 -0.75618012438E+03  0.75618012438E+03  0.00000000000E+00 0.  1.
         24    2    1    2    0    0 -0.77874375186E+02  0.24138718406E+03 -0.18039641725E+03  0.32076189994E+03  0.77544427003E+02 0.  0.
        254    2    1    2    0    0  0.77874375186E+02 -0.24138718406E+03 -0.13861005682E+03  0.87259187474E+03  0.82332960658E+03 0.  0.
         23    2    4    4    0    0 -0.23003589692E+03  0.10886352049E+03 -0.26812969392E+03  0.38012578901E+03  0.88511596685E+02 0.  0.
         23    2    4    4    0    0  0.30791027211E+03 -0.35025070455E+03  0.12951963710E+03  0.49246608573E+03  0.90902241401E+02 0.  0.
          2    1    3    3  502    0  0.88962777566E+01  0.83818143497E+02 -0.44475622900E+02  0.95303231684E+02  0.00000000000E+00 0. -1.
         -1    1    3    3    0  502 -0.86770652943E+02  0.15756904057E+03 -0.13592079435E+03  0.22545866826E+03  0.00000000000E+00 0.  1.
         11    1    5    5    0    0 -0.20256479678E+03  0.10545750479E+03 -0.26844362553E+03  0.35244256596E+03  0.00000000000E+00 0. -1.
        -11    1    5    5    0    0 -0.27471100140E+02  0.34060156951E+01  0.31393160773E+00  0.27683223058E+02  0.00000000000E+00 0.  1.
          1    1    6    6  503    0  0.29304068151E+03 -0.29642603206E+03  0.12999462422E+03  0.43662321953E+03  0.00000000000E+00 0. -1.
         -1    1    6    6    0  503  0.14869590595E+02 -0.53824672484E+02 -0.47498711887E+00  0.55842866198E+02  0.00000000000E+00 0.  1.
<mgrwt>
<rscale>  0 0.11499253E+04</rscale>
<asrwt>0</asrwt>
<pdfrwt beam="1">  1        2 0.67257484E-01 0.11499253E+04</pdfrwt>
<pdfrwt beam="2">  1       -1 0.11633540E+00 0.11499253E+04</pdfrwt>
<totfact> 0.54378500E+01</totfact>
</mgrwt>
</event>
<event>
12    6  0.1556619E-007  0.1851376E+04  0.7818608E-02  0.8679446E-01
         -1   -1    0    0    0  501 -0.00000000000E+00  0.00000000000E+00  0.87120565416E+03  0.87120565416E+03  0.00000000000E+00 0.  1.
          2   -1    0    0  501    0  0.00000000000E+00 -0.00000000000E+00 -0.98357714562E+03  0.98357714562E+03  0.00000000000E+00 0. -1.
         24    2    1    2    0    0 -0.66896958660E+03  0.16381163521E+03 -0.22080486797E+03  0.72753120878E+03  0.78691234635E+02 0.  0.
        254    2    1    2    0    0  0.66896958660E+03 -0.16381163521E+03  0.10843337651E+03  0.11272515910E+04  0.88576734680E+03 0.  0.
         23    2    4    4    0    0 -0.20413865660E+03 -0.75078670526E+02  0.60946769774E+02  0.24365424316E+03  0.91342671179E+02 0.  0.
         23    2    4    4    0    0  0.87310824320E+03 -0.88732964681E+02  0.47486606736E+02  0.88359734784E+03  0.91091997114E+02 0.  0.
          4    1    3    3  502    0 -0.41287989437E+03  0.13691287113E+03 -0.15475081082E+03  0.46169552186E+03  0.00000000000E+00 0. -1.
         -3    1    3    3    0  502 -0.25608969223E+03  0.26898764075E+02 -0.66054057151E+02  0.26583568693E+03  0.00000000000E+00 0.  1.
         11    1    5    5    0    0 -0.10283376210E+03 -0.84901113120E+02  0.24755117788E+02  0.13563110814E+03  0.00000000000E+00 0. -1.
        -11    1    5    5    0    0 -0.10130489449E+03  0.98224425932E+01  0.36191651985E+02  0.10802313502E+03  0.00000000000E+00 0.  1.
          1    1    6    6  503    0  0.86921914125E+03 -0.89048777812E+02  0.54611919132E+02  0.87547362157E+03  0.00000000000E+00 0.  1.
         -1    1    6    6    0  503  0.38891019447E+01  0.31581313114E+00 -0.71253123964E+01  0.81237262766E+01  0.00000000000E+00 0. -1.
<mgrwt>
<rscale>  0 0.18513757E+04</rscale>
<asrwt>0</asrwt>
<pdfrwt beam="1">  1        2 0.15131956E+00 0.18513757E+04</pdfrwt>
<pdfrwt beam="2">  1       -1 0.13403164E+00 0.18513757E+04</pdfrwt>
<totfact> 0.12992581E+01</totfact>
</mgrwt>
</event>
<event>
12    6  0.1556619E-007  0.1579212E+04  0.7818608E-02  0.8833421E-01
         -1   -1    0    0    0  501 -0.00000000000E+00  0.00000000000E+00  0.22654010729E+03  0.22654010729E+03  0.00000000000E+00 0.  1.
          2   -1    0    0  501    0  0.00000000000E+00 -0.00000000000E+00 -0.27521743641E+04  0.27521743641E+04  0.00000000000E+00 0. -1.
         24    2    1    2    0    0  0.25527051942E+03 -0.12732659819E+03 -0.19384775841E+02  0.29703547327E+03  0.80493491370E+02 0.  0.
        254    2    1    2    0    0 -0.25527051942E+03  0.12732659819E+03 -0.25062494809E+04  0.26816789981E+04  0.91035195798E+03 0.  0.
         23    2    4    4    0    0  0.21358689537E+03 -0.18303611108E+03 -0.14636836889E+04  0.14935367746E+04  0.95710899071E+02 0.  0.
         23    2    4    4    0    0 -0.46885741478E+03  0.31036270928E+03 -0.10425657921E+04  0.11881422235E+04  0.92661889292E+02 0.  0.
          2    1    3    3  502    0 -0.44905718903E+01  0.33282447466E+00 -0.57174632491E+01  0.72777327539E+01  0.00000000000E+00 0. -1.
         -1    1    3    3    0  502  0.25976109131E+03 -0.12765942267E+03 -0.13667312592E+02  0.28975774051E+03  0.00000000000E+00 0.  1.
         11    1    5    5    0    0  0.60894395977E+02 -0.63459229339E+02 -0.26366009873E+03  0.27794216829E+03  0.00000000000E+00 0. -1.
        -11    1    5    5    0    0  0.15269249939E+03 -0.11957688175E+03 -0.12000235901E+04  0.12155946063E+04  0.00000000000E+00 0.  1.
          3    1    6    6  503    0 -0.26258923909E+03  0.22781374574E+03 -0.64349938532E+03  0.73139843461E+03  0.00000000000E+00 0. -1.
         -3    1    6    6    0  503 -0.20626817570E+03  0.82548963535E+02 -0.39906640675E+03  0.45674378888E+03  0.00000000000E+00 0.  1.
<mgrwt>
<rscale>  0 0.15792123E+04</rscale>
<asrwt>0</asrwt>
<pdfrwt beam="1">  1        2 0.42341146E+00 0.15792123E+04</pdfrwt>
<pdfrwt beam="2">  1       -1 0.34852322E-01 0.15792123E+04</pdfrwt>
<totfact> 0.21218221E+01</totfact>
</mgrwt>
</event>
<event>
12    6  0.1556619E-007  0.1236059E+04  0.7818608E-02  0.9081867E-01
          2   -1    0    0  501    0  0.00000000000E+00  0.00000000000E+00  0.14691985380E+04  0.14691985380E+04  0.00000000000E+00 0. -1.
         -1   -1    0    0    0  501 -0.00000000000E+00 -0.00000000000E+00 -0.25997883182E+03  0.25997883182E+03  0.00000000000E+00 0.  1.
         24    2    1    2    0    0  0.22552327862E+03  0.15206484720E+03  0.18015685870E+03  0.33857532592E+03  0.90511273513E+02 0.  0.
        254    2    1    2    0    0 -0.22552327862E+03 -0.15206484720E+03  0.10290628475E+04  0.13906020439E+04  0.89488503926E+03 0.  0.
         23    2    4    4    0    0 -0.14746350827E+02 -0.47608555320E+03  0.79041764328E+03  0.92738840046E+03  0.91729415512E+02 0.  0.
         23    2    4    4    0    0 -0.21077692779E+03  0.32402070600E+03  0.23864520419E+03  0.46321364344E+03  0.90548411240E+02 0.  0.
          4    1    3    3  502    0  0.98886245086E+02  0.89790716779E+02  0.39404269475E+02  0.13926075808E+03  0.00000000000E+00 0. -1.
         -3    1    3    3    0  502  0.12663703353E+03  0.62274130418E+02  0.14075258923E+03  0.19931456784E+03  0.00000000000E+00 0.  1.
         11    1    5    5    0    0  0.37131027129E+02 -0.26772707391E+03  0.44753410711E+03  0.52282241374E+03  0.00000000000E+00 0.  1.
        -11    1    5    5    0    0 -0.51877377956E+02 -0.20835847929E+03  0.34288353617E+03  0.40456598672E+03  0.00000000000E+00 0. -1.
          3    1    6    6  503    0 -0.13637797304E+03  0.27766042426E+03  0.18535085340E+03  0.36062335141E+03  0.00000000000E+00 0. -1.
         -3    1    6    6    0  503 -0.74398954753E+02  0.46360281745E+02  0.53294350794E+02  0.10259029203E+03  0.00000000000E+00 0.  1.
<mgrwt>
<rscale>  0 0.12360591E+04</rscale>
<asrwt>0</asrwt>
<pdfrwt beam="1">  1        2 0.22603054E+00 0.12360591E+04</pdfrwt>
<pdfrwt beam="2">  1       -1 0.39996744E-01 0.12360591E+04</pdfrwt>
<totfact> 0.90256971E+01</totfact>
</mgrwt>
</event>
<event>
12    6  0.1556619E-007  0.1277660E+04  0.7818608E-02  0.9047471E-01
         -1   -1    0    0    0  501 -0.00000000000E+00  0.00000000000E+00  0.64829096997E+03  0.64829096997E+03  0.00000000000E+00 0.  1.
          2   -1    0    0  501    0  0.00000000000E+00 -0.00000000000E+00 -0.62950700805E+03  0.62950700805E+03  0.00000000000E+00 0. -1.
         24    2    1    2    0    0  0.18999105320E+03 -0.25099682342E+03 -0.11512968372E+02  0.32482030399E+03  0.79244405343E+02 0.  0.
        254    2    1    2    0    0 -0.18999105320E+03  0.25099682342E+03  0.30296930288E+02  0.95297767402E+03  0.89897304606E+03 0.  0.
         23    2    4    4    0    0  0.18017953032E+03 -0.18071899531E+03  0.21947608981E+03  0.34689398840E+03  0.83914639818E+02 0.  0.
         23    2    4    4    0    0 -0.37017058352E+03  0.43171581873E+03 -0.18917915953E+03  0.60608368563E+03  0.90243396076E+02 0.  0.
          4    1    3    3  502    0  0.18542580486E+03 -0.25497220027E+03 -0.41584395797E+01  0.31529485349E+03  0.00000000000E+00 0. -1.
         -3    1    3    3    0  502  0.45652483492E+01  0.39753768452E+01 -0.73545287923E+01  0.95254505042E+01  0.00000000000E+00 0.  1.
         11    1    5    5    0    0  0.17914669848E+03 -0.14985434217E+03  0.21127982416E+03  0.31494289568E+03  0.00000000000E+00 0.  1.
        -11    1    5    5    0    0  0.10328318342E+01 -0.30864653138E+02  0.81962656541E+01  0.31951092714E+02  0.00000000000E+00 0. -1.
          2    1    6    6  503    0 -0.87433403811E+02  0.14394325599E+03 -0.23864125018E+02  0.17009925782E+03  0.00000000000E+00 0. -1.
         -2    1    6    6    0  503 -0.28273717971E+03  0.28777256274E+03 -0.16531503451E+03  0.43598442781E+03  0.00000000000E+00 0.  1.
<mgrwt>
<rscale>  0 0.12776599E+04</rscale>
<asrwt>0</asrwt>
<pdfrwt beam="1">  1        2 0.96847232E-01 0.12776599E+04</pdfrwt>
<pdfrwt beam="2">  1       -1 0.99737073E-01 0.12776599E+04</pdfrwt>
<totfact> 0.50336357E+01</totfact>
</mgrwt>
</event>
<event>
12    6  0.1556619E-007  0.3354725E+04  0.7818608E-02  0.8149108E-01
          2   -1    0    0  501    0  0.00000000000E+00  0.00000000000E+00  0.15564816934E+04  0.15564816934E+04  0.00000000000E+00 0. -1.
         -1   -1    0    0    0  501 -0.00000000000E+00 -0.00000000000E+00 -0.18076315072E+04  0.18076315072E+04  0.00000000000E+00 0.  1.
         24    2    1    2    0    0  0.36161038846E+03  0.52825302423E+03  0.13108210659E+04  0.14606213508E+04  0.73140502093E+02 0.  0.
        254    2    1    2    0    0 -0.36161038846E+03 -0.52825302423E+03 -0.15619708797E+04  0.19034918498E+04  0.87961063129E+03 0.  0.
         23    2    4    4    0    0 -0.57354309949E+03 -0.53522316285E+03 -0.14397581943E+04  0.16421826709E+04  0.91895296334E+02 0.  0.
         23    2    4    4    0    0  0.21193271104E+03  0.69701386178E+01 -0.12221268535E+03  0.26130917890E+03  0.91555937408E+02 0.  0.
          4    1    3    3  502    0  0.28179838286E+03  0.43596351481E+03  0.11146465388E+04  0.12295980730E+04  0.00000000000E+00 0. -1.
         -3    1    3    3    0  502  0.79812005598E+02  0.92289509413E+02  0.19617452710E+03  0.23102327776E+03  0.00000000000E+00 0.  1.
         11    1    5    5    0    0 -0.13151598886E+03 -0.97659665661E+02 -0.23668075127E+03  0.28783961445E+03  0.00000000000E+00 0.  1.
        -11    1    5    5    0    0 -0.44202711063E+03 -0.43756349718E+03 -0.12030774431E+04  0.13543430565E+04  0.00000000000E+00 0. -1.
          3    1    6    6  503    0  0.70545695529E+02 -0.73616204045E+01  0.42782267731E+01  0.71057665575E+02  0.00000000000E+00 0. -1.
         -3    1    6    6    0  503  0.14138701551E+03  0.14331759022E+02 -0.12649091212E+03  0.19025151332E+03  0.00000000000E+00 0.  1.
<mgrwt>
<rscale>  0 0.33547252E+04</rscale>
<asrwt>0</asrwt>
<pdfrwt beam="1">  1        2 0.23945872E+00 0.33547252E+04</pdfrwt>
<pdfrwt beam="2">  1       -1 0.27809715E+00 0.33547252E+04</pdfrwt>
<totfact> 0.51126102E-01</totfact>
</mgrwt>
</event>
<event>
12    6  0.1556619E-007  0.1439507E+04  0.7818608E-02  0.8925708E-01
         -1   -1    0    0    0  501 -0.00000000000E+00  0.00000000000E+00  0.10058330932E+04  0.10058330932E+04  0.00000000000E+00 0.  1.
          2   -1    0    0  501    0  0.00000000000E+00 -0.00000000000E+00 -0.51504046736E+03  0.51504046736E+03  0.00000000000E+00 0. -1.
         24    2    1    2    0    0 -0.57766660606E+02  0.25482211948E+03 -0.21694939781E+03  0.34868938959E+03  0.79031320072E+02 0.  0.
        254    2    1    2    0    0  0.57766660606E+02 -0.25482211948E+03  0.70774202365E+03  0.11721841710E+04  0.89713190724E+03 0.  0.
         23    2    4    4    0    0  0.38647073300E+03  0.69042500662E+02  0.53984579307E+03  0.67356040730E+03  0.90131279932E+02 0.  0.
         23    2    4    4    0    0 -0.32870407239E+03 -0.32386462014E+03  0.16789623058E+03  0.49862376368E+03  0.86613244237E+02 0.  0.
          4    1    3    3  502    0 -0.66066293715E+02  0.20555656118E+03 -0.20408280317E+03  0.29709938667E+03  0.00000000000E+00 0. -1.
         -3    1    3    3    0  502  0.82996331087E+01  0.49265558294E+02 -0.12866594638E+02  0.51590002921E+02  0.00000000000E+00 0.  1.
         11    1    5    5    0    0  0.26485999370E+03  0.83352590001E+02  0.33740566014E+03  0.43696801945E+03  0.00000000000E+00 0. -1.
        -11    1    5    5    0    0  0.12161073930E+03 -0.14310089339E+02  0.20244013293E+03  0.23659238785E+03  0.00000000000E+00 0.  1.
          1    1    6    6  503    0 -0.28252260536E+03 -0.29496086326E+03  0.17369238585E+03  0.44383553069E+03  0.00000000000E+00 0. -1.
         -1    1    6    6    0  503 -0.46181467029E+02 -0.28903756879E+02 -0.57961552691E+01  0.54788232994E+02  0.00000000000E+00 0.  1.
<mgrwt>
<rscale>  0 0.14395065E+04</rscale>
<asrwt>0</asrwt>
<pdfrwt beam="1">  1        2 0.79236995E-01 0.14395065E+04</pdfrwt>
<pdfrwt beam="2">  1       -1 0.15474355E+00 0.14395065E+04</pdfrwt>
<totfact> 0.21159347E+01</totfact>
</mgrwt>
</event>
<event>
12    6  0.1556619E-007  0.2574624E+04  0.7818608E-02  0.8376872E-01
          2   -1    0    0  501    0  0.00000000000E+00  0.00000000000E+00  0.24840355841E+04  0.24840355841E+04  0.00000000000E+00 0. -1.
         -1   -1    0    0    0  501 -0.00000000000E+00 -0.00000000000E+00 -0.66712888417E+03  0.66712888417E+03  0.00000000000E+00 0.  1.
         24    2    1    2    0    0 -0.15128720646E+03  0.84910379481E+03  0.16170670349E+04  0.18344895169E+04  0.81122863693E+02 0.  0.
        254    2    1    2    0    0  0.15128720646E+03 -0.84910379481E+03  0.19983966501E+03  0.13166749514E+04  0.97459322932E+03 0.  0.
         23    2    4    4    0    0 -0.67727702982E+02 -0.10032351904E+04  0.21624247079E+03  0.10330104561E+04  0.96342655802E+02 0.  0.
         23    2    4    4    0    0  0.21901490945E+03  0.15413139555E+03 -0.16402805773E+02  0.28366449526E+03  0.92046054671E+02 0.  0.
          2    1    3    3  502    0 -0.71922835401E+02  0.26100520606E+03  0.56759998241E+03  0.62886115469E+03  0.00000000000E+00 0. -1.
         -1    1    3    3    0  502 -0.79364371063E+02  0.58809858875E+03  0.10494670525E+04  0.12056283622E+04  0.00000000000E+00 0.  1.
         11    1    5    5    0    0 -0.99835360866E+01 -0.28258909541E+03  0.17854389582E+02  0.28332851439E+03  0.00000000000E+00 0. -1.
        -11    1    5    5    0    0 -0.57744166896E+02 -0.72064609495E+03  0.19838808120E+03  0.74968194172E+03  0.00000000000E+00 0.  1.
          1    1    6    6  503    0 -0.12643526076E+00  0.28935769004E+02 -0.11773745042E+02  0.31239650863E+02  0.00000000000E+00 0. -1.
         -1    1    6    6    0  503  0.21914134471E+03  0.12519562654E+03 -0.46290607316E+01  0.25242484440E+03  0.00000000000E+00 0.  1.
<mgrwt>
<rscale>  0 0.25746238E+04</rscale>
<asrwt>0</asrwt>
<pdfrwt beam="1">  1        2 0.38215932E+00 0.25746238E+04</pdfrwt>
<pdfrwt beam="2">  1       -1 0.10263521E+00 0.25746238E+04</pdfrwt>
<totfact> 0.32171677E+00</totfact>
</mgrwt>
</event>
<event>
12    6  0.1556619E-007  0.2029035E+04  0.7818608E-02  0.8593165E-01
          2   -1    0    0  501    0  0.00000000000E+00  0.00000000000E+00  0.24083827743E+04  0.24083827743E+04  0.00000000000E+00 0. -1.
         -1   -1    0    0    0  501 -0.00000000000E+00 -0.00000000000E+00 -0.42735985651E+03  0.42735985651E+03  0.00000000000E+00 0.  1.
         24    2    1    2    0    0  0.28899167432E+03 -0.85968092695E+02  0.17858495748E+04  0.18130467388E+04  0.83504924451E+02 0.  0.
        254    2    1    2    0    0 -0.28899167432E+03  0.85968092695E+02  0.19517334301E+03  0.10226958920E+04  0.95755289827E+03 0.  0.
         23    2    4    4    0    0  0.94231787137E+02  0.36321516746E+03  0.34494671638E+03  0.51783887995E+03  0.91454802289E+02 0.  0.
         23    2    4    4    0    0 -0.38322346145E+03 -0.27724707477E+03 -0.14977337338E+03  0.50485701209E+03  0.93393669009E+02 0.  0.
          2    1    3    3  502    0  0.19879992816E+03 -0.64865544181E+02  0.99130805735E+03  0.10131241853E+04  0.00000000000E+00 0. -1.
         -1    1    3    3    0  502  0.90191746157E+02 -0.21102548513E+02  0.79454151743E+03  0.79992255347E+03  0.00000000000E+00 0.  1.
         11    1    5    5    0    0  0.91090143067E+01  0.35601706742E+01 -0.30024655071E+01  0.10230530582E+02  0.00000000000E+00 0.  1.
        -11    1    5    5    0    0  0.85122772830E+02  0.35965499679E+03  0.34794918189E+03  0.50760834937E+03  0.00000000000E+00 0. -1.
          1    1    6    6  503    0 -0.27136617884E+03 -0.18966169105E+03 -0.14832227601E+03  0.36278183201E+03  0.00000000000E+00 0. -1.
         -1    1    6    6    0  503 -0.11185728261E+03 -0.87585383713E+02 -0.14510973690E+01  0.14207518009E+03  0.00000000000E+00 0.  1.
<mgrwt>
<rscale>  0 0.20290354E+04</rscale>
<asrwt>0</asrwt>
<pdfrwt beam="1">  1        2 0.37052042E+00 0.20290354E+04</pdfrwt>
<pdfrwt beam="2">  1       -1 0.65747672E-01 0.20290354E+04</pdfrwt>
<totfact> 0.97296912E+00</totfact>
</mgrwt>
</event>
<event>
12    6  0.1556619E-007  0.1443018E+04  0.7818608E-02  0.8923256E-01
          2   -1    0    0  501    0  0.00000000000E+00  0.00000000000E+00  0.21442335574E+04  0.21442335574E+04  0.00000000000E+00 0. -1.
         -1   -1    0    0    0  501 -0.00000000000E+00 -0.00000000000E+00 -0.24277902986E+03  0.24277902986E+03  0.00000000000E+00 0.  1.
         24    2    1    2    0    0 -0.34104299338E+03 -0.75802631415E+02  0.14796174725E+03  0.38700195084E+03  0.76298552063E+02 0.  0.
        254    2    1    2    0    0  0.34104299338E+03  0.75802631415E+02  0.17534927802E+04  0.20000106364E+04  0.89624173800E+03 0.  0.
         23    2    4    4    0    0  0.29512709670E+03 -0.40266184441E+02  0.18088420374E+04  0.18356141363E+04  0.94065785373E+02 0.  0.
         23    2    4    4    0    0  0.45915896679E+02  0.11606881586E+03 -0.55349257201E+02  0.16439650011E+03  0.91555608197E+02 0.  0.
          2    1    3    3  502    0 -0.20702164774E+03 -0.12948345365E+02  0.10706659716E+03  0.23342852976E+03  0.00000000000E+00 0. -1.
         -1    1    3    3    0  502 -0.13402134564E+03 -0.62854286050E+02  0.40895150089E+02  0.15357342108E+03  0.00000000000E+00 0.  1.
         11    1    5    5    0    0  0.43620415294E+02 -0.37328268482E+02  0.45475118674E+03  0.45836097357E+03  0.00000000000E+00 0. -1.
        -11    1    5    5    0    0  0.25150668141E+03 -0.29379159591E+01  0.13540908507E+04  0.13772531627E+04  0.00000000000E+00 0.  1.
          4    1    6    6  503    0  0.32576949608E+01  0.32296531479E+01  0.21090696595E+02  0.21583806865E+02  0.00000000000E+00 0. -1.
         -4    1    6    6    0  503  0.42658201718E+02  0.11283916271E+03 -0.76439953796E+02  0.14281269324E+03  0.00000000000E+00 0.  1.
<mgrwt>
<rscale>  0 0.14430176E+04</rscale>
<asrwt>0</asrwt>
<pdfrwt beam="1">  1        2 0.32988207E+00 0.14430176E+04</pdfrwt>
<pdfrwt beam="2">  1       -1 0.37350622E-01 0.14430176E+04</pdfrwt>
<totfact> 0.42376222E+01</totfact>
</mgrwt>
</event>
<event>
12    6  0.1556619E-007  0.1266720E+04  0.7818608E-02  0.9056381E-01
          2   -1    0    0  501    0  0.00000000000E+00  0.00000000000E+00  0.14390207635E+04  0.14390207635E+04  0.00000000000E+00 0. -1.
         -1   -1    0    0    0  501 -0.00000000000E+00 -0.00000000000E+00 -0.27876255232E+03  0.27876255232E+03  0.00000000000E+00 0.  1.
         24    2    1    2    0    0 -0.28280908562E+03  0.46719343108E+02  0.15334249554E+03  0.33476775950E+03  0.79949083389E+02 0.  0.
        254    2    1    2    0    0  0.28280908562E+03 -0.46719343108E+02  0.10069157156E+04  0.13830155563E+04  0.90370852305E+03 0.  0.
         23    2    4    4    0    0  0.50278793167E+03 -0.10594485816E+03  0.23358720688E+03  0.57164218299E+03  0.90508479989E+02 0.  0.
         23    2    4    4    0    0 -0.21997884606E+03  0.59225515057E+02  0.77332850872E+03  0.81137337328E+03  0.91604662117E+02 0.  0.
          4    1    3    3  502    0 -0.33996168581E+01  0.69219285614E+01 -0.67895756346E+01  0.10274669196E+02  0.00000000000E+00 0. -1.
         -3    1    3    3    0  502 -0.27940946876E+03  0.39797414547E+02  0.16013207118E+03  0.32449309031E+03  0.00000000000E+00 0.  1.
         11    1    5    5    0    0  0.99930359625E+02 -0.70248700081E+01  0.10745218146E+02  0.10075160191E+03  0.00000000000E+00 0.  1.
        -11    1    5    5    0    0  0.40285757205E+03 -0.98919988157E+02  0.22284198873E+03  0.47089058109E+03  0.00000000000E+00 0. -1.
          1    1    6    6  503    0 -0.22584811511E+03  0.64531653655E+02  0.71704492435E+03  0.75453636689E+03  0.00000000000E+00 0. -1.
         -1    1    6    6    0  503  0.58692690501E+01 -0.53061385984E+01  0.56283584365E+02  0.56837006386E+02  0.00000000000E+00 0.  1.
<mgrwt>
<rscale>  0 0.12667203E+04</rscale>
<asrwt>0</asrwt>
<pdfrwt beam="1">  1        2 0.22138780E+00 0.12667203E+04</pdfrwt>
<pdfrwt beam="2">  1       -1 0.42886547E-01 0.12667203E+04</pdfrwt>
<totfact> 0.82399831E+01</totfact>
</mgrwt>
</event>
<event>
12    6  0.1556619E-007  0.1936615E+04  0.7818608E-02  0.8636842E-01
          2   -1    0    0  501    0  0.00000000000E+00  0.00000000000E+00  0.18415437884E+04  0.18415437884E+04  0.00000000000E+00 0. -1.
         -3   -1    0    0    0  501 -0.00000000000E+00 -0.00000000000E+00 -0.50914879286E+03  0.50914879286E+03  0.00000000000E+00 0.  1.
         24    2    1    2    0    0 -0.31711399805E+03 -0.36476635211E+03 -0.17955507739E+03  0.52618919598E+03  0.10497268579E+03 0.  0.
        254    2    1    2    0    0  0.31711399805E+03  0.36476635211E+03  0.15119500729E+04  0.18245033853E+04  0.89955755817E+03 0.  0.
         23    2    4    4    0    0 -0.78033155226E+02  0.39864691999E+02 -0.80906037003E+02  0.14898167451E+03  0.89282616075E+02 0.  0.
         23    2    4    4    0    0  0.39514715327E+03  0.32490166011E+03  0.15928561099E+04  0.16755217108E+04  0.92087213079E+02 0.  0.
          2    1    3    3  502    0 -0.79638918349E+02 -0.67472212476E+02  0.24395811095E+01  0.10440693621E+03  0.00000000000E+00 0. -1.
         -1    1    3    3    0  502 -0.23747507970E+03 -0.29729413963E+03 -0.18199465850E+03  0.42178225977E+03  0.00000000000E+00 0.  1.
         11    1    5    5    0    0 -0.83436698304E+02  0.36303630962E+02 -0.96174872382E+02  0.13239804501E+03  0.00000000000E+00 0.  1.
        -11    1    5    5    0    0  0.54035430779E+01  0.35610610370E+01  0.15268835379E+02  0.16583629498E+02  0.00000000000E+00 0. -1.
          1    1    6    6  503    0  0.73515210808E+02  0.20507083037E+02  0.20621699131E+03  0.21988741251E+03  0.00000000000E+00 0. -1.
         -1    1    6    6    0  503  0.32163194247E+03  0.30439457707E+03  0.13866391186E+04  0.14556342983E+04  0.00000000000E+00 0.  1.
<mgrwt>
<rscale>  0 0.19366154E+04</rscale>
<asrwt>0</asrwt>
<pdfrwt beam="1">  1        2 0.28331443E+00 0.19366154E+04</pdfrwt>
<pdfrwt beam="2">  1       -3 0.78330584E-01 0.19366154E+04</pdfrwt>
<totfact> 0.74406821E+00</totfact>
</mgrwt>
</event>
<event>
12    6  0.1556619E-007  0.1317105E+04  0.7818608E-02  0.9016110E-01
          2   -1    0    0  501    0  0.00000000000E+00  0.00000000000E+00  0.51570100679E+03  0.51570100679E+03  0.00000000000E+00 0. -1.
         -1   -1    0    0    0  501 -0.00000000000E+00 -0.00000000000E+00 -0.84097402672E+03  0.84097402672E+03  0.00000000000E+00 0.  1.
         24    2    1    2    0    0  0.26868533999E+03 -0.11318826338E+03  0.88896049141E+02  0.31501171077E+03  0.79539144307E+02 0.  0.
        254    2    1    2    0    0 -0.26868533999E+03  0.11318826338E+03 -0.41416906907E+03  0.10416633227E+04  0.91023242377E+03 0.  0.
         23    2    4    4    0    0 -0.14903914430E+03  0.49488741341E+03 -0.12337078504E+03  0.53888421848E+03  0.89719740530E+02 0.  0.
         23    2    4    4    0    0 -0.11964619570E+03 -0.38169915003E+03 -0.29079828403E+03  0.50277910426E+03  0.90629644206E+02 0.  0.
          4    1    3    3  502    0  0.25721585161E+03 -0.88149861939E+02  0.92569903081E+02  0.28722740021E+03  0.00000000000E+00 0. -1.
         -3    1    3    3    0  502  0.11469488388E+02 -0.25038401437E+02 -0.36738539402E+01  0.27784310558E+02  0.00000000000E+00 0.  1.
         11    1    5    5    0    0 -0.52767028383E+01  0.45013701372E+02 -0.37566948931E+02  0.58867245188E+02  0.00000000000E+00 0. -1.
        -11    1    5    5    0    0 -0.14376244146E+03  0.44987371204E+03 -0.85803836105E+02  0.48001697329E+03  0.00000000000E+00 0.  1.
          2    1    6    6  503    0  0.74149458003E+01 -0.84959263436E+02 -0.41063347093E+02  0.94653348273E+02  0.00000000000E+00 0. -1.
         -2    1    6    6    0  503 -0.12706114150E+03 -0.29673988660E+03 -0.24973493694E+03  0.40812575599E+03  0.00000000000E+00 0.  1.
<mgrwt>
<rscale>  0 0.13171046E+04</rscale>
<asrwt>0</asrwt>
<pdfrwt beam="1">  1        2 0.79338617E-01 0.13171046E+04</pdfrwt>
<pdfrwt beam="2">  1       -1 0.12938062E+00 0.13171046E+04</pdfrwt>
<totfact> 0.34138144E+01</totfact>
</mgrwt>
</event>
<event>
12    6  0.1556619E-007  0.1928921E+04  0.7818608E-02  0.8640593E-01
         -1   -1    0    0    0  501 -0.00000000000E+00  0.00000000000E+00  0.13457922956E+04  0.13457922956E+04  0.00000000000E+00 0.  1.
          2   -1    0    0  501    0  0.00000000000E+00 -0.00000000000E+00 -0.69117967938E+03  0.69117967938E+03  0.00000000000E+00 0. -1.
         24    2    1    2    0    0 -0.37150563030E+03  0.51738072182E+03 -0.18988418283E+03  0.66954096583E+03  0.80807532965E+02 0.  0.
        254    2    1    2    0    0  0.37150563030E+03 -0.51738072182E+03  0.84449679903E+03  0.13674310091E+04  0.86659879788E+03 0.  0.
         23    2    4    4    0    0  0.36082448494E+03 -0.59757043952E+03  0.23033249460E+03  0.74072531927E+03  0.91302800692E+02 0.  0.
         23    2    4    4    0    0  0.10681145362E+02  0.80189717698E+02  0.61416430443E+03  0.62670568986E+03  0.94961840664E+02 0.  0.
          4    1    3    3  502    0 -0.34255593080E+03  0.49491725094E+03 -0.19463785145E+03  0.63259113511E+03  0.00000000000E+00 0. -1.
         -1    1    3    3    0  502 -0.28949699501E+02  0.22463470880E+02  0.47536686161E+01  0.36949830724E+02  0.00000000000E+00 0.  1.
         11    1    5    5    0    0  0.81668164487E+01 -0.51162055279E+02  0.33364147573E+01  0.51917092125E+02  0.00000000000E+00 0. -1.
        -11    1    5    5    0    0  0.35265766849E+03 -0.54640838424E+03  0.22699607985E+03  0.68880822714E+03  0.00000000000E+00 0.  1.
          3    1    6    6  503    0  0.12727808250E+02 -0.19544807868E+02  0.16183434693E+03  0.16350642943E+03  0.00000000000E+00 0. -1.
         -3    1    6    6    0  503 -0.20466628883E+01  0.99734525567E+02  0.45232995749E+03  0.46319926043E+03  0.00000000000E+00 0.  1.
<mgrwt>
<rscale>  0 0.19289212E+04</rscale>
<asrwt>0</asrwt>
<pdfrwt beam="1">  1        2 0.10633534E+00 0.19289212E+04</pdfrwt>
<pdfrwt beam="2">  1       -1 0.20704497E+00 0.19289212E+04</pdfrwt>
<totfact> 0.59800212E+00</totfact>
</mgrwt>
</event>
<event>
12    6  0.1556619E-007  0.1333764E+04  0.7818608E-02  0.9003210E-01
         -1   -1    0    0    0  501 -0.00000000000E+00  0.00000000000E+00  0.18114122932E+03  0.18114122932E+03  0.00000000000E+00 0.  1.
          2   -1    0    0  501    0  0.00000000000E+00 -0.00000000000E+00 -0.24551662079E+04  0.24551662079E+04  0.00000000000E+00 0. -1.
         24    2    1    2    0    0  0.22856572421E+03 -0.16472064742E+03 -0.10352345642E+04  0.10761446993E+04  0.83675736882E+02 0.  0.
        254    2    1    2    0    0 -0.22856572421E+03  0.16472064742E+03 -0.12387904144E+04  0.15601627380E+04  0.90561078620E+03 0.  0.
         23    2    4    4    0    0 -0.14907582559E+03  0.46717003517E+03 -0.33740365621E+03  0.60187344093E+03  0.89100887375E+02 0.  0.
         23    2    4    4    0    0 -0.79489898629E+02 -0.30244938775E+03 -0.90138675821E+03  0.95828929704E+03  0.89588017093E+02 0.  0.
          2    1    3    3  502    0  0.13380675086E+03 -0.10192815690E+03 -0.75937398177E+03  0.77778045741E+03  0.00000000000E+00 0. -1.
         -1    1    3    3    0  502  0.94758973359E+02 -0.62792490519E+02 -0.27586058242E+03  0.29836424188E+03  0.00000000000E+00 0.  1.
         11    1    5    5    0    0 -0.64226016355E+02  0.33329823662E+03 -0.21756398001E+03  0.40317090806E+03  0.00000000000E+00 0.  1.
        -11    1    5    5    0    0 -0.84849809230E+02  0.13387179855E+03 -0.11983967621E+03  0.19870253287E+03  0.00000000000E+00 0. -1.
          4    1    6    6  503    0  0.14478607065E+02 -0.10650637417E+03 -0.32386896937E+03  0.34123942785E+03  0.00000000000E+00 0. -1.
         -4    1    6    6    0  503 -0.93968505694E+02 -0.19594301358E+03 -0.57751778885E+03  0.61704986919E+03  0.00000000000E+00 0.  1.
<mgrwt>
<rscale>  0 0.13337643E+04</rscale>
<asrwt>0</asrwt>
<pdfrwt beam="1">  1        2 0.37771788E+00 0.13337643E+04</pdfrwt>
<pdfrwt beam="2">  1       -1 0.27867881E-01 0.13337643E+04</pdfrwt>
<totfact> 0.47968094E+01</totfact>
</mgrwt>
</event>
<event>
12    6  0.1556619E-007  0.1435926E+04  0.7818608E-02  0.8928216E-01
          2   -1    0    0  501    0  0.00000000000E+00  0.00000000000E+00  0.57969790923E+03  0.57969790923E+03  0.00000000000E+00 0. -1.
         -1   -1    0    0    0  501 -0.00000000000E+00 -0.00000000000E+00 -0.88920629374E+03  0.88920629374E+03  0.00000000000E+00 0.  1.
         24    2    1    2    0    0 -0.29302606662E+03  0.66730493150E+02  0.22629201677E+03  0.38570204339E+03  0.85092625954E+02 0.  0.
        254    2    1    2    0    0  0.29302606662E+03 -0.66730493150E+02 -0.53580040128E+03  0.10832021596E+04  0.89214775350E+03 0.  0.
         23    2    4    4    0    0  0.43788013029E+03 -0.32519514652E+03 -0.54089550943E+03  0.77325983102E+03  0.88723854291E+02 0.  0.
         23    2    4    4    0    0 -0.14485406367E+03  0.25846465337E+03  0.50951081568E+01  0.30994232856E+03  0.90838373524E+02 0.  0.
          2    1    3    3  502    0 -0.27122890251E+03  0.84398801504E+02  0.20159912315E+03  0.34832525275E+03  0.00000000000E+00 0. -1.
         -1    1    3    3    0  502 -0.21797164108E+02 -0.17668308354E+02  0.24692893619E+02  0.37376790640E+02  0.00000000000E+00 0.  1.
         11    1    5    5    0    0  0.16715631901E+03 -0.17901641282E+03 -0.24114915781E+03  0.34371649271E+03  0.00000000000E+00 0. -1.
        -11    1    5    5    0    0  0.27072381128E+03 -0.14617873369E+03 -0.29974635162E+03  0.42954333831E+03  0.00000000000E+00 0.  1.
          4    1    6    6  503    0 -0.65172775829E+02  0.92646355826E+02  0.44672040832E+02  0.12176382545E+03  0.00000000000E+00 0. -1.
         -4    1    6    6    0  503 -0.79681287845E+02  0.16581829754E+03 -0.39576932676E+02  0.18817850311E+03  0.00000000000E+00 0.  1.
<mgrwt>
<rscale>  0 0.14359262E+04</rscale>
<asrwt>0</asrwt>
<pdfrwt beam="1">  1        2 0.89184294E-01 0.14359262E+04</pdfrwt>
<pdfrwt beam="2">  1       -1 0.13680097E+00 0.14359262E+04</pdfrwt>
<totfact> 0.25540718E+01</totfact>
</mgrwt>
</event>
<event>
12    6  0.1556619E-007  0.1951563E+04  0.7818608E-02  0.8629607E-01
         -1   -1    0    0    0  501 -0.00000000000E+00  0.00000000000E+00  0.10054456988E+04  0.10054456988E+04  0.00000000000E+00 0.  1.
          2   -1    0    0  501    0  0.00000000000E+00 -0.00000000000E+00 -0.94699266900E+03  0.94699266900E+03  0.00000000000E+00 0. -1.
         24    2    1    2    0    0  0.22257092743E+03  0.25852912600E+03  0.70841221538E+03  0.79025269851E+03  0.79223316489E+02 0.  0.
        254    2    1    2    0    0 -0.22257092743E+03 -0.25852912600E+03 -0.64995918553E+03  0.11621856693E+04  0.90102911187E+03 0.  0.
         23    2    4    4    0    0  0.97641628935E+01 -0.18223440447E+03  0.19222602823E+03  0.28028188765E+03  0.91117361490E+02 0.  0.
         23    2    4    4    0    0 -0.23233509032E+03 -0.76294721531E+02 -0.84218521376E+03  0.88190378169E+03  0.93155070526E+02 0.  0.
          2    1    3    3  502    0  0.16748959698E+03  0.14755822187E+03  0.50415335167E+03  0.55135904449E+03  0.00000000000E+00 0. -1.
         -1    1    3    3    0  502  0.55081330444E+02  0.11097090413E+03  0.20425886370E+03  0.23889365402E+03  0.00000000000E+00 0.  1.
         11    1    5    5    0    0  0.79961866068E+01  0.75423167864E+01  0.25093124572E+02  0.27395080645E+02  0.00000000000E+00 0.  1.
        -11    1    5    5    0    0  0.17679762867E+01 -0.18977672126E+03  0.16713290366E+03  0.25288680700E+03  0.00000000000E+00 0. -1.
          3    1    6    6  503    0 -0.16099205590E+03 -0.73784688600E+02 -0.70911521889E+03  0.73089466820E+03  0.00000000000E+00 0. -1.
         -3    1    6    6    0  503 -0.71343034417E+02 -0.25100329318E+01 -0.13306999487E+03  0.15100911350E+03  0.00000000000E+00 0.  1.
<mgrwt>
<rscale>  0 0.19515632E+04</rscale>
<asrwt>0</asrwt>
<pdfrwt beam="1">  1        2 0.14569118E+00 0.19515632E+04</pdfrwt>
<pdfrwt beam="2">  1       -1 0.15468395E+00 0.19515632E+04</pdfrwt>
<totfact> 0.93142884E+00</totfact>
</mgrwt>
</event>
<event>
12    6  0.1556619E-007  0.2205644E+04  0.7818608E-02  0.8516083E-01
         -1   -1    0    0    0  501 -0.00000000000E+00  0.00000000000E+00  0.73168438205E+03  0.73168438205E+03  0.00000000000E+00 0.  1.
          2   -1    0    0  501    0  0.00000000000E+00 -0.00000000000E+00 -0.16622141578E+04  0.16622141578E+04  0.00000000000E+00 0. -1.
         24    2    1    2    0    0 -0.82595481247E+03 -0.24921403580E+03 -0.46226883742E+03  0.98195220353E+03  0.78921885963E+02 0.  0.
        254    2    1    2    0    0  0.82595481247E+03  0.24921403580E+03 -0.46826093836E+03  0.14119463364E+04  0.10148966265E+04 0.  0.
         23    2    4    4    0    0  0.14786949910E+03 -0.33502519040E+03  0.38418943251E+02  0.37893064137E+03  0.89471497143E+02 0.  0.
         23    2    4    4    0    0  0.67808531336E+03  0.58423922620E+03 -0.50667988161E+03  0.10330156950E+04  0.96238027955E+02 0.  0.
          4    1    3    3  502    0 -0.25448290887E+01 -0.55902652414E+00  0.30555080927E+01  0.40155691315E+01  0.00000000000E+00 0. -1.
         -3    1    3    3    0  502 -0.82340998338E+03 -0.24865500928E+03 -0.46532434551E+03  0.97793663440E+03  0.00000000000E+00 0.  1.
         11    1    5    5    0    0  0.12049718437E+03 -0.27058623896E+03 -0.55532800626E+01  0.29625550303E+03  0.00000000000E+00 0.  1.
        -11    1    5    5    0    0  0.27372314732E+02 -0.64438951440E+02  0.43972223313E+02  0.82675138340E+02  0.00000000000E+00 0. -1.
          2    1    6    6  503    0  0.33571013136E+02  0.61779893629E+02 -0.33391316949E+02  0.77837961351E+02  0.00000000000E+00 0. -1.
         -2    1    6    6    0  503  0.64451430023E+03  0.52245933258E+03 -0.47328856466E+03  0.95517773364E+03  0.00000000000E+00 0.  1.
<mgrwt>
<rscale>  0 0.22056438E+04</rscale>
<asrwt>0</asrwt>
<pdfrwt beam="1">  1        2 0.25572525E+00 0.22056438E+04</pdfrwt>
<pdfrwt beam="2">  1       -1 0.11256683E+00 0.22056438E+04</pdfrwt>
<totfact> 0.77379238E+00</totfact>
</mgrwt>
</event>
<event>
12    6  0.1556619E-007  0.1088325E+04  0.7818608E-02  0.9216646E-01
         -3   -1    0    0    0  501 -0.00000000000E+00  0.00000000000E+00  0.57507463624E+03  0.57507463624E+03  0.00000000000E+00 0.  1.
          2   -1    0    0  501    0  0.00000000000E+00 -0.00000000000E+00 -0.51491194835E+03  0.51491194835E+03  0.00000000000E+00 0. -1.
         24    2    1    2    0    0 -0.10251024947E+03 -0.59920132631E+02 -0.70964990536E+02  0.15999319998E+03  0.80392913978E+02 0.  0.
        254    2    1    2    0    0  0.10251024947E+03  0.59920132631E+02  0.13112767843E+03  0.92999338460E+03  0.91301393955E+03 0.  0.
         23    2    4    4    0    0 -0.27715620524E+03 -0.24393103490E+03  0.20122962746E+03  0.43046816820E+03  0.92149709590E+02 0.  0.
         23    2    4    4    0    0  0.37966645471E+03  0.30385116753E+03 -0.70101949034E+02  0.49952521640E+03  0.90216460364E+02 0.  0.
          2    1    3    3  502    0 -0.38156355867E+02 -0.67960997391E+02 -0.45985629411E+02  0.90494656040E+02  0.00000000000E+00 0. -1.
         -1    1    3    3    0  502 -0.64353893602E+02  0.80408647605E+01 -0.24979361125E+02  0.69498543942E+02  0.00000000000E+00 0.  1.
         11    1    5    5    0    0 -0.88556130393E+02 -0.87383016818E+02  0.11839668625E+03  0.17174328276E+03  0.00000000000E+00 0. -1.
        -11    1    5    5    0    0 -0.18860007484E+03 -0.15654801808E+03  0.82832941212E+02  0.25872488544E+03  0.00000000000E+00 0.  1.
          3    1    6    6  503    0  0.78238301195E+02  0.35362016202E+02 -0.40058610557E+02  0.94743845412E+02  0.00000000000E+00 0. -1.
         -3    1    6    6    0  503  0.30142815351E+03  0.26848915133E+03 -0.30043338477E+02  0.40478137099E+03  0.00000000000E+00 0.  1.
<mgrwt>
<rscale>  0 0.10883250E+04</rscale>
<asrwt>0</asrwt>
<pdfrwt beam="1">  1        2 0.79217223E-01 0.10883250E+04</pdfrwt>
<pdfrwt beam="2">  1       -3 0.88473021E-01 0.10883250E+04</pdfrwt>
<totfact> 0.43196062E+01</totfact>
</mgrwt>
</event>
<event>
12    6  0.1556619E-007  0.1389663E+04  0.7818608E-02  0.8961335E-01
          2   -1    0    0  501    0  0.00000000000E+00  0.00000000000E+00  0.17466354096E+04  0.17466354096E+04  0.00000000000E+00 0. -1.
         -1   -1    0    0    0  501 -0.00000000000E+00 -0.00000000000E+00 -0.27641194229E+03  0.27641194229E+03  0.00000000000E+00 0.  1.
         24    2    1    2    0    0  0.13729977603E+02 -0.12205105722E+03  0.96233163864E+03  0.97340587679E+03  0.79698465374E+02 0.  0.
        254    2    1    2    0    0 -0.13729977603E+02  0.12205105722E+03  0.50789182864E+03  0.10496414751E+04  0.91033408358E+03 0.  0.
         23    2    4    4    0    0  0.39421414339E+03  0.24952594862E+03  0.20806353926E+03  0.51914942717E+03  0.92507845477E+02 0.  0.
         23    2    4    4    0    0 -0.40794412099E+03 -0.12747489140E+03  0.29982828937E+03  0.53049204790E+03  0.94109276859E+02 0.  0.
          4    1    3    3  502    0 -0.40474563653E+01 -0.12445385249E+03  0.74493496779E+03  0.75527031554E+03  0.00000000000E+00 0. -1.
         -3    1    3    3    0  502  0.17777433968E+02  0.24027952636E+01  0.21739667085E+03  0.21813556125E+03  0.00000000000E+00 0.  1.
         11    1    5    5    0    0  0.36417705842E+03  0.23067036176E+03  0.16088573924E+03  0.46012820688E+03  0.00000000000E+00 0. -1.
        -11    1    5    5    0    0  0.30037084969E+02  0.18855586856E+02  0.47177800025E+02  0.59021220289E+02  0.00000000000E+00 0.  1.
          3    1    6    6  503    0 -0.33820529246E+03 -0.71966806514E+02  0.26122116613E+03  0.43335728761E+03  0.00000000000E+00 0. -1.
         -3    1    6    6    0  503 -0.69738828533E+02 -0.55508084884E+02  0.38607123239E+02  0.97134760294E+02  0.00000000000E+00 0.  1.
<mgrwt>
<rscale>  0 0.13896631E+04</rscale>
<asrwt>0</asrwt>
<pdfrwt beam="1">  1        2 0.26871313E+00 0.13896631E+04</pdfrwt>
<pdfrwt beam="2">  1       -1 0.42524915E-01 0.13896631E+04</pdfrwt>
<totfact> 0.55779788E+01</totfact>
</mgrwt>
</event>
<event>
12    6  0.1556619E-007  0.2318580E+04  0.7818608E-02  0.8470631E-01
         -1   -1    0    0    0  501 -0.00000000000E+00  0.00000000000E+00  0.10550329128E+04  0.10550329128E+04  0.00000000000E+00 0.  1.
          2   -1    0    0  501    0  0.00000000000E+00 -0.00000000000E+00 -0.12738500477E+04  0.12738500477E+04  0.00000000000E+00 0. -1.
         24    2    1    2    0    0  0.33570321496E+03 -0.88782228839E+01 -0.10186698597E+04  0.10753598788E+04  0.77039694562E+02 0.  0.
        254    2    1    2    0    0 -0.33570321496E+03  0.88782228839E+01  0.79985272483E+03  0.12535230817E+04  0.90486477638E+03 0.  0.
         23    2    4    4    0    0 -0.14432091836E+03  0.43520146230E+03  0.52606325144E+03  0.70368921017E+03  0.90593155031E+02 0.  0.
         23    2    4    4    0    0 -0.19138229660E+03 -0.42632323941E+03  0.27378947339E+03  0.54983387151E+03  0.94751900298E+02 0.  0.
          2    1    3    3  502    0  0.33211566479E+03 -0.19448558955E+02 -0.97139118608E+03  0.10267813290E+04  0.00000000000E+00 0. -1.
         -1    1    3    3    0  502  0.35875501727E+01  0.10570336071E+02 -0.47278673585E+02  0.48578549761E+02  0.00000000000E+00 0.  1.
         11    1    5    5    0    0 -0.46780268716E+02  0.11095848832E+03  0.20101954904E+03  0.23432677774E+03  0.00000000000E+00 0. -1.
        -11    1    5    5    0    0 -0.97540649646E+02  0.32424297398E+03  0.32504370239E+03  0.46936243243E+03  0.00000000000E+00 0.  1.
          2    1    6    6  503    0 -0.69422296218E+02 -0.25077568556E+03  0.12024496966E+03  0.28664743572E+03  0.00000000000E+00 0. -1.
         -2    1    6    6    0  503 -0.12196000038E+03 -0.17554755385E+03  0.15354450373E+03  0.26318643579E+03  0.00000000000E+00 0.  1.
<mgrwt>
<rscale>  0 0.23185804E+04</rscale>
<asrwt>0</asrwt>
<pdfrwt beam="1">  1        2 0.19597693E+00 0.23185804E+04</pdfrwt>
<pdfrwt beam="2">  1       -1 0.16231276E+00 0.23185804E+04</pdfrwt>
<totfact> 0.49597545E+00</totfact>
</mgrwt>
</event>
<event>
12    6  0.1556619E-007  0.2351539E+04  0.7818608E-02  0.8457873E-01
          2   -1    0    0  501    0  0.00000000000E+00  0.00000000000E+00  0.10993443046E+04  0.10993443046E+04  0.00000000000E+00 0. -1.
         -1   -1    0    0    0  501 -0.00000000000E+00 -0.00000000000E+00 -0.12575073201E+04  0.12575073201E+04  0.00000000000E+00 0.  1.
         24    2    1    2    0    0 -0.94444690743E+03 -0.91927640949E+02  0.25373001053E+03  0.98564729330E+03  0.81798633314E+02 0.  0.
        254    2    1    2    0    0  0.94444690743E+03  0.91927640949E+02 -0.41189302595E+03  0.13712043314E+04  0.90006377635E+03 0.  0.
         23    2    4    4    0    0  0.96170269659E+03  0.11338945949E+02 -0.25911331591E+02  0.96645094338E+03  0.91407770611E+02 0.  0.
         23    2    4    4    0    0 -0.17255789162E+02  0.80588695000E+02 -0.38598169436E+03  0.40475338802E+03  0.89728126652E+02 0.  0.
          2    1    3    3  502    0 -0.84253419968E+03 -0.59341848287E+02  0.23790868821E+03  0.87748839110E+03  0.00000000000E+00 0. -1.
         -1    1    3    3    0  502 -0.10191270775E+03 -0.32585792662E+02  0.15821322324E+02  0.10815890220E+03  0.00000000000E+00 0.  1.
         11    1    5    5    0    0  0.10283936688E+03 -0.27071772868E+02 -0.55639964022E+01  0.10648837647E+03  0.00000000000E+00 0.  1.
        -11    1    5    5    0    0  0.85886332971E+03  0.38410718817E+02 -0.20347335189E+02  0.85996256691E+03  0.00000000000E+00 0. -1.
          4    1    6    6  503    0 -0.17757348584E+02  0.99690457098E+02 -0.29844555803E+03  0.31515593247E+03  0.00000000000E+00 0. -1.
         -4    1    6    6    0  503  0.50155942281E+00 -0.19101762098E+02 -0.87536136334E+02  0.89597455552E+02  0.00000000000E+00 0.  1.
<mgrwt>
<rscale>  0 0.23515387E+04</rscale>
<asrwt>0</asrwt>
<pdfrwt beam="1">  1        2 0.16912989E+00 0.23515387E+04</pdfrwt>
<pdfrwt beam="2">  1       -1 0.19346267E+00 0.23515387E+04</pdfrwt>
<totfact> 0.37503747E+00</totfact>
</mgrwt>
</event>
<event>
12    6  0.1556619E-007  0.1288501E+04  0.7818608E-02  0.9038734E-01
         -1   -1    0    0    0  501 -0.00000000000E+00  0.00000000000E+00  0.14640822588E+03  0.14640822588E+03  0.00000000000E+00 0.  1.
          2   -1    0    0  501    0  0.00000000000E+00 -0.00000000000E+00 -0.28349417972E+04  0.28349417972E+04  0.00000000000E+00 0. -1.
         24    2    1    2    0    0 -0.15777766579E+03  0.14894969004E+03 -0.15565263638E+03  0.27879626401E+03  0.80123726971E+02 0.  0.
        254    2    1    2    0    0  0.15777766579E+03 -0.14894969004E+03 -0.25328809350E+04  0.27025537591E+04  0.91718656125E+03 0.  0.
         23    2    4    4    0    0  0.45109839731E+03  0.15255356259E+03 -0.10217950785E+04  0.11312867042E+04  0.94773788752E+02 0.  0.
         23    2    4    4    0    0 -0.29332073151E+03 -0.30150325264E+03 -0.15110858564E+04  0.15712670549E+04  0.92511780211E+02 0.  0.
          2    1    3    3  502    0 -0.73145481605E+01  0.19407410477E+02  0.72535072610E+01  0.21971881207E+02  0.00000000000E+00 0. -1.
         -1    1    3    3    0  502 -0.15046311763E+03  0.12954227957E+03 -0.16290614365E+03  0.25682438280E+03  0.00000000000E+00 0.  1.
         11    1    5    5    0    0  0.33675056951E+03  0.76468001102E+02 -0.67301357971E+03  0.75643610419E+03  0.00000000000E+00 0.  1.
        -11    1    5    5    0    0  0.11434782780E+03  0.76085561490E+02 -0.34878149881E+03  0.37485059997E+03  0.00000000000E+00 0. -1.
          3    1    6    6  503    0 -0.11910952726E+03 -0.18816211185E+03 -0.80353072470E+03  0.83381873651E+03  0.00000000000E+00 0. -1.
         -3    1    6    6    0  503 -0.17421120425E+03 -0.11334114078E+03 -0.70755513174E+03  0.73744831842E+03  0.00000000000E+00 0.  1.
<mgrwt>
<rscale>  0 0.12885011E+04</rscale>
<asrwt>0</asrwt>
<pdfrwt beam="1">  1        2 0.43614486E+00 0.12885011E+04</pdfrwt>
<pdfrwt beam="2">  1       -1 0.22524344E-01 0.12885011E+04</pdfrwt>
<totfact> 0.41559083E+01</totfact>
</mgrwt>
</event>
<event>
12    6  0.1556619E-007  0.3355726E+04  0.7818608E-02  0.8148859E-01
         -1   -1    0    0    0  501 -0.00000000000E+00  0.00000000000E+00  0.17737865074E+04  0.17737865074E+04  0.00000000000E+00 0.  1.
          2   -1    0    0  501    0  0.00000000000E+00 -0.00000000000E+00 -0.15871271107E+04  0.15871271107E+04  0.00000000000E+00 0. -1.
         24    2    1    2    0    0  0.10731042582E+04  0.10880796244E+04  0.34004438172E+03  0.15676540680E+04  0.80243861715E+02 0.  0.
        254    2    1    2    0    0 -0.10731042582E+04 -0.10880796244E+04 -0.15338498504E+03  0.17932595501E+04  0.92562564914E+03 0.  0.
         23    2    4    4    0    0 -0.11454075228E+04 -0.62256795933E+03 -0.11451203822E+03  0.13117858252E+04  0.90109861846E+02 0.  0.
         23    2    4    4    0    0  0.72303264546E+02 -0.46551166504E+03 -0.38872946811E+02  0.48147372484E+03  0.91525785282E+02 0.  0.
          4    1    3    3  502    0  0.81539373766E+03  0.80412282753E+03  0.22285765674E+03  0.11666816208E+04  0.00000000000E+00 0. -1.
         -3    1    3    3    0  502  0.25771052056E+03  0.28395679684E+03  0.11718672498E+03  0.40097244717E+03  0.00000000000E+00 0.  1.
         11    1    5    5    0    0 -0.83394806918E+02 -0.65366162256E+02 -0.26661748670E+02  0.10926242644E+03  0.00000000000E+00 0.  1.
        -11    1    5    5    0    0 -0.10620127159E+04 -0.55720179708E+03 -0.87850289555E+02  0.12025233988E+04  0.00000000000E+00 0. -1.
          4    1    6    6  503    0  0.44295518808E+02 -0.36852780049E+03  0.54606980279E+01  0.37122048966E+03  0.00000000000E+00 0. -1.
         -4    1    6    6    0  503  0.28007745738E+02 -0.96983864549E+02 -0.44333644839E+02  0.11025323519E+03  0.00000000000E+00 0.  1.
<mgrwt>
<rscale>  0 0.33557262E+04</rscale>
<asrwt>0</asrwt>
<pdfrwt beam="1">  1        2 0.24417340E+00 0.33557262E+04</pdfrwt>
<pdfrwt beam="2">  1       -1 0.27289023E+00 0.33557262E+04</pdfrwt>
<totfact> 0.53103818E-01</totfact>
</mgrwt>
</event>
<event>
12    6  0.1556619E-007  0.1486974E+04  0.7818608E-02  0.8893161E-01
          2   -1    0    0  501    0  0.00000000000E+00  0.00000000000E+00  0.14260717697E+04  0.14260717697E+04  0.00000000000E+00 0. -1.
         -1   -1    0    0    0  501 -0.00000000000E+00 -0.00000000000E+00 -0.38761935239E+03  0.38761935239E+03  0.00000000000E+00 0.  1.
         24    2    1    2    0    0  0.42627883216E+03  0.98444697092E+02  0.14601046238E+03  0.46817337167E+03  0.80388119032E+02 0.  0.
        254    2    1    2    0    0 -0.42627883216E+03 -0.98444697092E+02  0.89244195490E+03  0.13455177504E+04  0.90695114125E+03 0.  0.
         23    2    4    4    0    0 -0.43890128783E+02  0.36893594166E+03  0.45571711708E+03  0.59493738464E+03  0.90732179496E+02 0.  0.
         23    2    4    4    0    0 -0.38238870338E+03 -0.46738063875E+03  0.43672483782E+03  0.75058036575E+03  0.89311362817E+02 0.  0.
          4    1    3    3  502    0  0.26257254388E+02  0.27978950372E+02  0.80730996914E+01  0.39210202888E+02  0.00000000000E+00 0. -1.
         -3    1    3    3    0  502  0.40002157777E+03  0.70465746720E+02  0.13793736269E+03  0.42896316878E+03  0.00000000000E+00 0.  1.
         11    1    5    5    0    0 -0.19696870541E+02  0.68245905085E+02  0.14723484650E+03  0.16347345440E+03  0.00000000000E+00 0. -1.
        -11    1    5    5    0    0 -0.24193258242E+02  0.30069003657E+03  0.30848227058E+03  0.43146393024E+03  0.00000000000E+00 0.  1.
          4    1    6    6  503    0 -0.88455983752E+02 -0.12467774586E+03  0.66500495850E+02  0.16670728035E+03  0.00000000000E+00 0. -1.
         -4    1    6    6    0  503 -0.29393271963E+03 -0.34270289289E+03  0.37022434197E+03  0.58387308539E+03  0.00000000000E+00 0.  1.
<mgrwt>
<rscale>  0 0.14869741E+04</rscale>
<asrwt>0</asrwt>
<pdfrwt beam="1">  1        2 0.21939566E+00 0.14869741E+04</pdfrwt>
<pdfrwt beam="2">  1       -1 0.59633747E-01 0.14869741E+04</pdfrwt>
<totfact> 0.43933328E+01</totfact>
</mgrwt>
</event>
<event>
12    6  0.1556619E-007  0.1957214E+04  0.7818608E-02  0.8626890E-01
          2   -1    0    0  501    0  0.00000000000E+00  0.00000000000E+00  0.51270037660E+03  0.51270037660E+03  0.00000000000E+00 0. -1.
         -1   -1    0    0    0  501 -0.00000000000E+00 -0.00000000000E+00 -0.18678968724E+04  0.18678968724E+04  0.00000000000E+00 0.  1.
         24    2    1    2    0    0  0.33578550557E+03  0.43952706941E+03 -0.11828638865E+04  0.13082493687E+04  0.80084243834E+02 0.  0.
        254    2    1    2    0    0 -0.33578550557E+03 -0.43952706941E+03 -0.17233260929E+03  0.10723478803E+04  0.90238323219E+03 0.  0.
         23    2    4    4    0    0 -0.63634809269E+02  0.16645962960E+03  0.21826534892E+03  0.29622723740E+03  0.91392649584E+02 0.  0.
         23    2    4    4    0    0 -0.27215069630E+03 -0.60598669901E+03 -0.39059795822E+03  0.77612064293E+03  0.92252948700E+02 0.  0.
          4    1    3    3  502    0  0.78701252241E+02  0.14110641292E+03 -0.41285374843E+03  0.44334312272E+03  0.00000000000E+00 0. -1.
         -3    1    3    3    0  502  0.25708425333E+03  0.29842065649E+03 -0.77001013812E+03  0.86490624598E+03  0.00000000000E+00 0.  1.
         11    1    5    5    0    0 -0.57896323211E+02  0.64564274153E+02  0.15057587601E+03  0.17376312662E+03  0.00000000000E+00 0.  1.
        -11    1    5    5    0    0 -0.57384860573E+01  0.10189535545E+03  0.67689472916E+02  0.12246411078E+03  0.00000000000E+00 0. -1.
          3    1    6    6  503    0 -0.22987316222E+03 -0.48711138656E+03 -0.27395124181E+03  0.60429169820E+03  0.00000000000E+00 0. -1.
         -3    1    6    6    0  503 -0.42277534082E+02 -0.11887531246E+03 -0.11664671641E+03  0.17182894473E+03  0.00000000000E+00 0.  1.
<mgrwt>
<rscale>  0 0.19572138E+04</rscale>
<asrwt>0</asrwt>
<pdfrwt beam="1">  1        2 0.78876980E-01 0.19572138E+04</pdfrwt>
<pdfrwt beam="2">  1       -1 0.28736875E+00 0.19572138E+04</pdfrwt>
<totfact> 0.25410868E+00</totfact>
</mgrwt>
</event>
<event>
12    6  0.1556619E-007  0.2095852E+04  0.7818608E-02  0.8563073E-01
         -1   -1    0    0    0  501 -0.00000000000E+00  0.00000000000E+00  0.47938206600E+03  0.47938206600E+03  0.00000000000E+00 0.  1.
          2   -1    0    0  501    0  0.00000000000E+00 -0.00000000000E+00 -0.22907583242E+04  0.22907583242E+04  0.00000000000E+00 0. -1.
         24    2    1    2    0    0 -0.42642549182E+03 -0.65600679319E+03 -0.11933692716E+04  0.14291861174E+04  0.79114645148E+02 0.  0.
        254    2    1    2    0    0  0.42642549182E+03  0.65600679319E+03 -0.61800698666E+03  0.13409542728E+04  0.89668395406E+03 0.  0.
         23    2    4    4    0    0 -0.14856614193E+03  0.47065145215E+02  0.12292986603E+03  0.21898143636E+03  0.92488329460E+02 0.  0.
         23    2    4    4    0    0  0.57499163375E+03  0.60894164797E+03 -0.74093685269E+03  0.11219728365E+04  0.91707778163E+02 0.  0.
          2    1    3    3  502    0 -0.19619204400E+03 -0.35403493236E+03 -0.66551183099E+03  0.77893391802E+03  0.00000000000E+00 0. -1.
         -1    1    3    3    0  502 -0.23023344782E+03 -0.30197186083E+03 -0.52785744060E+03  0.65025219940E+03  0.00000000000E+00 0.  1.
         11    1    5    5    0    0 -0.70735350918E+02  0.45828567219E+02  0.11231222453E+03  0.14042002429E+03  0.00000000000E+00 0.  1.
        -11    1    5    5    0    0 -0.77830791014E+02  0.12365779959E+01  0.10617641492E+02  0.78561412066E+02  0.00000000000E+00 0. -1.
          2    1    6    6  503    0  0.38746968763E+03  0.34975657369E+03 -0.48030822223E+03  0.70933659712E+03  0.00000000000E+00 0.  1.
         -2    1    6    6    0  503  0.18752194612E+03  0.25918507428E+03 -0.26062863046E+03  0.41263623934E+03  0.00000000000E+00 0. -1.
<mgrwt>
<rscale>  0 0.20958516E+04</rscale>
<asrwt>0</asrwt>
<pdfrwt beam="1">  1        2 0.35242436E+00 0.20958516E+04</pdfrwt>
<pdfrwt beam="2">  1       -1 0.73751087E-01 0.20958516E+04</pdfrwt>
<totfact> 0.89163821E+00</totfact>
</mgrwt>
</event>
<event>
12    6  0.1556619E-007  0.1400636E+04  0.7818608E-02  0.8953359E-01
          2   -1    0    0  501    0  0.00000000000E+00  0.00000000000E+00  0.16664148829E+04  0.16664148829E+04  0.00000000000E+00 0. -1.
         -1   -1    0    0    0  501 -0.00000000000E+00 -0.00000000000E+00 -0.29431151246E+03  0.29431151246E+03  0.00000000000E+00 0.  1.
         24    2    1    2    0    0  0.24790569775E+03 -0.18300088225E+03  0.87245029016E+03  0.92859063871E+03  0.78514378443E+02 0.  0.
        254    2    1    2    0    0 -0.24790569775E+03  0.18300088225E+03  0.49965308029E+03  0.10321357567E+04  0.84894314394E+03 0.  0.
         23    2    4    4    0    0 -0.35204126338E+03  0.40267526866E+03  0.54402326248E+03  0.76840728750E+03  0.91695290230E+02 0.  0.
         23    2    4    4    0    0  0.10413556563E+03 -0.21967438641E+03 -0.44370182193E+02  0.26372846915E+03  0.92102878887E+02 0.  0.
          2    1    3    3  502    0  0.11169491354E+03 -0.13102992601E+03  0.47689625120E+03  0.50702527514E+03  0.00000000000E+00 0. -1.
         -1    1    3    3    0  502  0.13621078420E+03 -0.51970956237E+02  0.39555403896E+03  0.42156536358E+03  0.00000000000E+00 0.  1.
         11    1    5    5    0    0 -0.81873907016E+02  0.50285343007E+02  0.69883841794E+02  0.11880952704E+03  0.00000000000E+00 0. -1.
        -11    1    5    5    0    0 -0.27016735636E+03  0.35238992565E+03  0.47413942069E+03  0.64959776046E+03  0.00000000000E+00 0.  1.
          2    1    6    6  503    0  0.47877100999E+02 -0.18963143045E+02 -0.72851871873E+01  0.52008571857E+02  0.00000000000E+00 0. -1.
         -2    1    6    6    0  503  0.56258464632E+02 -0.20071124337E+03 -0.37084995006E+02  0.21171989730E+03  0.00000000000E+00 0.  1.
<mgrwt>
<rscale>  0 0.14006357E+04</rscale>
<asrwt>0</asrwt>
<pdfrwt beam="1">  1        2 0.25637151E+00 0.14006357E+04</pdfrwt>
<pdfrwt beam="2">  1       -1 0.45278695E-01 0.14006357E+04</pdfrwt>
<totfact> 0.54957396E+01</totfact>
</mgrwt>
</event>
<event>
12    6  0.1556619E-007  0.1563896E+04  0.7818608E-02  0.8843040E-01
         -1   -1    0    0    0  501 -0.00000000000E+00  0.00000000000E+00  0.45763831500E+03  0.45763831500E+03  0.00000000000E+00 0.  1.
          2   -1    0    0  501    0  0.00000000000E+00 -0.00000000000E+00 -0.13360830333E+04  0.13360830333E+04  0.00000000000E+00 0. -1.
         24    2    1    2    0    0  0.13489668087E+03 -0.20445750987E+03 -0.82786680897E+03  0.86723644894E+03  0.82070805545E+02 0.  0.
        254    2    1    2    0    0 -0.13489668087E+03  0.20445750987E+03 -0.50577909339E+02  0.92648489937E+03  0.89208528515E+03 0.  0.
         23    2    4    4    0    0 -0.12810990675E+03  0.32943795654E+03 -0.40175673124E+03  0.54281612941E+03  0.91100844288E+02 0.  0.
         23    2    4    4    0    0 -0.67867741283E+01 -0.12498044667E+03  0.35117882191E+03  0.38366876996E+03  0.90603464242E+02 0.  0.
          2    1    3    3  502    0  0.81766528400E+02 -0.12862789560E+03 -0.63858023070E+03  0.65651779240E+03  0.00000000000E+00 0. -1.
         -1    1    3    3    0  502  0.53130152474E+02 -0.75829614268E+02 -0.18928657827E+03  0.21071865654E+03  0.00000000000E+00 0.  1.
         11    1    5    5    0    0 -0.27124119560E+02  0.99292477228E+01 -0.21658623545E+02  0.36102684057E+02  0.00000000000E+00 0. -1.
        -11    1    5    5    0    0 -0.10098578719E+03  0.31950870882E+03 -0.38009810770E+03  0.50671344535E+03  0.00000000000E+00 0.  1.
          3    1    6    6  503    0  0.20895080053E+02 -0.13535699895E+02  0.14976523078E+03  0.15182043306E+03  0.00000000000E+00 0. -1.
         -3    1    6    6    0  503 -0.27681854181E+02 -0.11144474677E+03  0.20141359112E+03  0.23184833690E+03  0.00000000000E+00 0.  1.
<mgrwt>
<rscale>  0 0.15638961E+04</rscale>
<asrwt>0</asrwt>
<pdfrwt beam="1">  1        2 0.20555123E+00 0.15638961E+04</pdfrwt>
<pdfrwt beam="2">  1       -1 0.70405896E-01 0.15638961E+04</pdfrwt>
<totfact> 0.35200387E+01</totfact>
</mgrwt>
</event>
<event>
12    6  0.1556619E-007  0.1608040E+04  0.7818608E-02  0.8815624E-01
          2   -1    0    0  501    0  0.00000000000E+00  0.00000000000E+00  0.37024945297E+04  0.37024945297E+04  0.00000000000E+00 0. -1.
         -1   -1    0    0    0  501 -0.00000000000E+00 -0.00000000000E+00 -0.17459803757E+03  0.17459803757E+03  0.00000000000E+00 0.  1.
         24    2    1    2    0    0  0.24577890363E+03 -0.10645325508E+01  0.35359428600E+02  0.26104209263E+03  0.80525041028E+02 0.  0.
        254    2    1    2    0    0 -0.24577890363E+03  0.10645325508E+01  0.34925370636E+04  0.36160504747E+04  0.90421097776E+03 0.  0.
         23    2    4    4    0    0  0.14661674974E+03 -0.34168383781E+03  0.18745563055E+04  0.19133123151E+04  0.92511384596E+02 0.  0.
         23    2    4    4    0    0 -0.39239565337E+03  0.34274837036E+03  0.16179807580E+04  0.17027381595E+04  0.10002355939E+03 0.  0.
          2    1    3    3  502    0  0.74029570829E+02  0.36895540418E+02  0.95322383021E+01  0.83261766898E+02  0.00000000000E+00 0. -1.
         -1    1    3    3    0  502  0.17174933280E+03 -0.37960072969E+02  0.25827190298E+02  0.17778032573E+03  0.00000000000E+00 0.  1.
         11    1    5    5    0    0  0.13365638641E+02  0.13575296769E+01  0.10786474539E+03  0.10869814387E+03  0.00000000000E+00 0. -1.
        -11    1    5    5    0    0  0.13325111110E+03 -0.34304136749E+03  0.17666915602E+04  0.18046141713E+04  0.00000000000E+00 0.  1.
          4    1    6    6  503    0 -0.27110347881E+02 -0.49911374376E+00  0.54508903190E+02  0.60880543721E+02  0.00000000000E+00 0. -1.
         -4    1    6    6    0  503 -0.36528530549E+03  0.34324748411E+03  0.15634718548E+04  0.16418576158E+04  0.00000000000E+00 0.  1.
<mgrwt>
<rscale>  0 0.16080401E+04</rscale>
<asrwt>0</asrwt>
<pdfrwt beam="1">  1        2 0.56961448E+00 0.16080401E+04</pdfrwt>
<pdfrwt beam="2">  1       -1 0.26861239E-01 0.16080401E+04</pdfrwt>
<totfact> 0.79652130E+00</totfact>
</mgrwt>
</event>
<event>
12    6  0.1556619E-007  0.1462566E+04  0.7818608E-02  0.8909735E-01
         -1   -1    0    0    0  501 -0.00000000000E+00  0.00000000000E+00  0.81683096640E+03  0.81683096640E+03  0.00000000000E+00 0.  1.
          2   -1    0    0  501    0  0.00000000000E+00 -0.00000000000E+00 -0.65469447956E+03  0.65469447956E+03  0.00000000000E+00 0. -1.
         24    2    1    2    0    0 -0.27289829581E+03 -0.20953556225E+00  0.40491453285E+03  0.49476862705E+03  0.79791551194E+02 0.  0.
        254    2    1    2    0    0  0.27289829581E+03  0.20953556225E+00 -0.24277804601E+03  0.97675681892E+03  0.90589137314E+03 0.  0.
         23    2    4    4    0    0  0.52238664393E+03  0.13542773709E+03  0.62459157397E+02  0.55020764501E+03  0.87171259914E+02 0.  0.
         23    2    4    4    0    0 -0.24948834812E+03 -0.13521820152E+03 -0.30523720340E+03  0.42654917391E+03  0.90807761513E+02 0.  0.
          2    1    3    3  502    0  0.33502882081E+01  0.25413634167E+01  0.23161892593E+02  0.23540523095E+02  0.00000000000E+00 0. -1.
         -1    1    3    3    0  502 -0.27624858402E+03 -0.27508989790E+01  0.38175264025E+03  0.47122810395E+03  0.00000000000E+00 0.  1.
         11    1    5    5    0    0  0.39931703492E+03  0.65326694521E+02  0.55366986300E+02  0.40839585522E+03  0.00000000000E+00 0.  1.
        -11    1    5    5    0    0  0.12306960901E+03  0.70101042565E+02  0.70921710979E+01  0.14181178978E+03  0.00000000000E+00 0. -1.
          3    1    6    6  503    0 -0.59423577388E+02  0.70523924620E+01 -0.50177690630E+02  0.78094163841E+02  0.00000000000E+00 0. -1.
         -3    1    6    6    0  503 -0.19006477073E+03 -0.14227059399E+03 -0.25505951277E+03  0.34845501007E+03  0.00000000000E+00 0.  1.
<mgrwt>
<rscale>  0 0.14625659E+04</rscale>
<asrwt>0</asrwt>
<pdfrwt beam="1">  1        2 0.10072223E+00 0.14625659E+04</pdfrwt>
<pdfrwt beam="2">  1       -1 0.12566630E+00 0.14625659E+04</pdfrwt>
<totfact> 0.27247891E+01</totfact>
</mgrwt>
</event>
<event>
12    6  0.1556619E-007  0.1759296E+04  0.7818608E-02  0.8728250E-01
          2   -1    0    0  501    0  0.00000000000E+00  0.00000000000E+00  0.15956759806E+04  0.15956759806E+04  0.00000000000E+00 0. -1.
         -3   -1    0    0    0  501 -0.00000000000E+00 -0.00000000000E+00 -0.48492319979E+03  0.48492319979E+03  0.00000000000E+00 0.  1.
         24    2    1    2    0    0 -0.27806300894E+03 -0.49720848349E+03  0.77960675465E+03  0.96887066183E+03  0.79927182215E+02 0.  0.
        254    2    1    2    0    0  0.27806300894E+03  0.49720848349E+03  0.33114602615E+03  0.11117285186E+04  0.89540342603E+03 0.  0.
         23    2    4    4    0    0  0.56321663649E+03  0.43616442498E+03  0.36302672755E+03  0.80439529464E+03  0.88379861315E+02 0.  0.
         23    2    4    4    0    0 -0.28515362754E+03  0.61044058516E+02 -0.31880701401E+02  0.30733322392E+03  0.91642583035E+02 0.  0.
          4    1    3    3  502    0 -0.23883218533E+03 -0.41492559721E+03  0.69870940262E+03  0.84699403379E+03  0.00000000000E+00 0. -1.
         -3    1    3    3    0  502 -0.39230823616E+02 -0.82282886281E+02  0.80897352035E+02  0.12187662804E+03  0.00000000000E+00 0.  1.
         11    1    5    5    0    0  0.49328003340E+03  0.39722097100E+03  0.29210671190E+03  0.69744965574E+03  0.00000000000E+00 0.  1.
        -11    1    5    5    0    0  0.69936603084E+02  0.38943453972E+02  0.70920015652E+02  0.10694563889E+03  0.00000000000E+00 0. -1.
          4    1    6    6  503    0 -0.21905055978E+03  0.56305863084E+01 -0.16780709514E+02  0.21976451818E+03  0.00000000000E+00 0.  1.
         -4    1    6    6    0  503 -0.66103067765E+02  0.55413472208E+02 -0.15099991887E+02  0.87568705740E+02  0.00000000000E+00 0. -1.
<mgrwt>
<rscale>  0 0.17592957E+04</rscale>
<asrwt>0</asrwt>
<pdfrwt beam="1">  1        2 0.24548861E+00 0.17592957E+04</pdfrwt>
<pdfrwt beam="2">  1       -3 0.74603570E-01 0.17592957E+04</pdfrwt>
<totfact> 0.11509364E+01</totfact>
</mgrwt>
</event>
<event>
12    6  0.1556619E-007  0.1095070E+04  0.7818608E-02  0.9210010E-01
          2   -1    0    0  501    0  0.00000000000E+00  0.00000000000E+00  0.17981111504E+04  0.17981111504E+04  0.00000000000E+00 0. -1.
         -1   -1    0    0    0  501 -0.00000000000E+00 -0.00000000000E+00 -0.16672755970E+03  0.16672755970E+03  0.00000000000E+00 0.  1.
         24    2    1    2    0    0 -0.20684988524E+03 -0.49654782347E+02  0.16674687008E+03  0.28193794896E+03  0.80199850037E+02 0.  0.
        254    2    1    2    0    0  0.20684988524E+03  0.49654782347E+02  0.14646367206E+04  0.16829007612E+04  0.80108787035E+03 0.  0.
         23    2    4    4    0    0  0.24834003552E+02 -0.19473364533E+03  0.13125935760E+04  0.13301660729E+04  0.88892999623E+02 0.  0.
         23    2    4    4    0    0  0.18201588169E+03  0.24438842768E+03  0.15204314460E+03  0.35273468822E+03  0.91919299834E+02 0.  0.
          2    1    3    3  502    0 -0.60211778494E+02 -0.12018098301E+01  0.93002222968E+02  0.11079853832E+03  0.00000000000E+00 0. -1.
         -1    1    3    3    0  502 -0.14663810675E+03 -0.48452972517E+02  0.73744647111E+02  0.17113941064E+03  0.00000000000E+00 0.  1.
         11    1    5    5    0    0  0.58438388941E+02 -0.13095589126E+03  0.87841753534E+03  0.89004598597E+03  0.00000000000E+00 0.  1.
        -11    1    5    5    0    0 -0.33604385389E+02 -0.63777754068E+02  0.43417604070E+03  0.44012008696E+03  0.00000000000E+00 0. -1.
          4    1    6    6  503    0  0.12129600128E+03  0.86104781854E+02  0.70335607385E+02  0.16454133538E+03  0.00000000000E+00 0. -1.
         -4    1    6    6    0  503  0.60719880411E+02  0.15828364582E+03  0.81707537218E+02  0.18819335283E+03  0.00000000000E+00 0.  1.
<mgrwt>
<rscale>  0 0.10950702E+04</rscale>
<asrwt>0</asrwt>
<pdfrwt beam="1">  1        2 0.27663247E+00 0.10950702E+04</pdfrwt>
<pdfrwt beam="2">  1       -1 0.25650395E-01 0.10950702E+04</pdfrwt>
<totfact> 0.13123169E+02</totfact>
</mgrwt>
</event>
<event>
12    6  0.1556619E-007  0.2410550E+04  0.7818608E-02  0.8435564E-01
         -1   -1    0    0    0  501 -0.00000000000E+00  0.00000000000E+00  0.69324900349E+03  0.69324900349E+03  0.00000000000E+00 0.  1.
          2   -1    0    0  501    0  0.00000000000E+00 -0.00000000000E+00 -0.20954780640E+04  0.20954780640E+04  0.00000000000E+00 0. -1.
         24    2    1    2    0    0 -0.31868957294E+03 -0.42468372825E+03 -0.16450821209E+04  0.17304741818E+04  0.79538647273E+02 0.  0.
        254    2    1    2    0    0  0.31868957294E+03  0.42468372825E+03  0.24285306040E+03  0.10582528857E+04  0.88261104014E+03 0.  0.
         23    2    4    4    0    0 -0.70786670264E+01  0.37007702012E+03  0.50013801439E+03  0.62881733440E+03  0.90918085428E+02 0.  0.
         23    2    4    4    0    0  0.32576823996E+03  0.54606708127E+02 -0.25728495399E+03  0.42943555128E+03  0.95459449058E+02 0.  0.
          4    1    3    3  502    0 -0.26100800071E+03 -0.38025787582E+03 -0.13528495852E+04  0.14293086541E+04  0.00000000000E+00 0. -1.
         -3    1    3    3    0  502 -0.57681572225E+02 -0.44425852431E+02 -0.29223253573E+03  0.30116552770E+03  0.00000000000E+00 0.  1.
         11    1    5    5    0    0  0.23232264784E+02  0.69334998660E+02  0.14550736812E+03  0.16284800995E+03  0.00000000000E+00 0.  1.
        -11    1    5    5    0    0 -0.30310931811E+02  0.30074202146E+03  0.35463064627E+03  0.46596932446E+03  0.00000000000E+00 0. -1.
          2    1    6    6  503    0  0.45184351612E+02  0.73105100347E+01  0.73712563621E-01  0.45771985113E+02  0.00000000000E+00 0. -1.
         -2    1    6    6    0  503  0.28058388835E+03  0.47296198092E+02 -0.25735866655E+03  0.38366356617E+03  0.00000000000E+00 0.  1.
<mgrwt>
<rscale>  0 0.24105502E+04</rscale>
<asrwt>0</asrwt>
<pdfrwt beam="1">  1        2 0.32238123E+00 0.24105502E+04</pdfrwt>
<pdfrwt beam="2">  1       -1 0.10665370E+00 0.24105502E+04</pdfrwt>
<totfact> 0.49588163E+00</totfact>
</mgrwt>
</event>
<event>
12    6  0.1556619E-007  0.1817397E+04  0.7818608E-02  0.8697102E-01
          2   -1    0    0  501    0  0.00000000000E+00  0.00000000000E+00  0.34219323773E+04  0.34219323773E+04  0.00000000000E+00 0. -1.
         -1   -1    0    0    0  501 -0.00000000000E+00 -0.00000000000E+00 -0.24130602574E+03  0.24130602574E+03  0.00000000000E+00 0.  1.
         24    2    1    2    0    0  0.15955280776E+03  0.66312518200E+03  0.11006405048E+04  0.12972648797E+04  0.79338149209E+02 0.  0.
        254    2    1    2    0    0 -0.15955280776E+03 -0.66312518200E+03  0.20799858468E+04  0.23659735233E+04  0.89794069111E+03 0.  0.
         23    2    4    4    0    0  0.34092473135E+03 -0.30058315951E+03  0.11986591278E+04  0.12850853075E+04  0.89892351061E+02 0.  0.
         23    2    4    4    0    0 -0.50047753911E+03 -0.36254202249E+03  0.88132671901E+03  0.10808882158E+04  0.98326314833E+02 0.  0.
          2    1    3    3  502    0  0.14531981192E+03  0.49237945840E+03  0.86586605053E+03  0.10066178005E+04  0.00000000000E+00 0. -1.
         -1    1    3    3    0  502  0.14232995841E+02  0.17074572360E+03  0.23477445424E+03  0.29064707922E+03  0.00000000000E+00 0.  1.
         11    1    5    5    0    0 -0.30695944545E+01 -0.17606443054E+02  0.44438195382E+02  0.47897415963E+02  0.00000000000E+00 0. -1.
        -11    1    5    5    0    0  0.34399432580E+03 -0.28297671646E+03  0.11542209324E+04  0.12371878916E+04  0.00000000000E+00 0.  1.
          3    1    6    6  503    0 -0.11407852946E+03 -0.11551760874E+03  0.17478262306E+03  0.23855228805E+03  0.00000000000E+00 0. -1.
         -3    1    6    6    0  503 -0.38639900965E+03 -0.24702441375E+03  0.70654409595E+03  0.84233592775E+03  0.00000000000E+00 0.  1.
<mgrwt>
<rscale>  0 0.18173969E+04</rscale>
<asrwt>0</asrwt>
<pdfrwt beam="1">  1        2 0.52645110E+00 0.18173969E+04</pdfrwt>
<pdfrwt beam="2">  1       -1 0.37124006E-01 0.18173969E+04</pdfrwt>
<totfact> 0.69468223E+00</totfact>
</mgrwt>
</event>
<event>
12    6  0.1556619E-007  0.1716754E+04  0.7818608E-02  0.8751866E-01
         -1   -1    0    0    0  501 -0.00000000000E+00  0.00000000000E+00  0.61647154050E+03  0.61647154050E+03  0.00000000000E+00 0.  1.
          2   -1    0    0  501    0  0.00000000000E+00 -0.00000000000E+00 -0.11952075360E+04  0.11952075360E+04  0.00000000000E+00 0. -1.
         24    2    1    2    0    0 -0.22412345942E+03  0.52277013040E+03  0.45802074478E+02  0.57616048519E+03  0.79643834475E+02 0.  0.
        254    2    1    2    0    0  0.22412345942E+03 -0.52277013040E+03 -0.62453807002E+03  0.12355185914E+04  0.90163099680E+03 0.  0.
         23    2    4    4    0    0  0.19591760784E+03 -0.68864643016E+03 -0.72304492249E+03  0.10216030558E+04  0.90891302177E+02 0.  0.
         23    2    4    4    0    0  0.28205851586E+02  0.16587629976E+03  0.98506852468E+02  0.21391553557E+03  0.88009882906E+02 0.  0.
          2    1    3    3  502    0 -0.10193005086E+02  0.79587864623E+00  0.87029578156E+00  0.10261003374E+02  0.00000000000E+00 0. -1.
         -1    1    3    3    0  502 -0.21393045434E+03  0.52197425175E+03  0.44931778696E+02  0.56589948182E+03  0.00000000000E+00 0.  1.
         11    1    5    5    0    0  0.81112256228E+02 -0.40740670205E+03 -0.37488491518E+03  0.55955171219E+03  0.00000000000E+00 0.  1.
        -11    1    5    5    0    0  0.11480535161E+03 -0.28123972812E+03 -0.34816000731E+03  0.46205134360E+03  0.00000000000E+00 0. -1.
          2    1    6    6  503    0 -0.21357458072E+01  0.15834394654E+03  0.86362727381E+02  0.18037707032E+03  0.00000000000E+00 0. -1.
         -2    1    6    6    0  503  0.30341597394E+02  0.75323532240E+01  0.12144125087E+02  0.33538465254E+02  0.00000000000E+00 0.  1.
<mgrwt>
<rscale>  0 0.17167544E+04</rscale>
<asrwt>0</asrwt>
<pdfrwt beam="1">  1        2 0.18387808E+00 0.17167544E+04</pdfrwt>
<pdfrwt beam="2">  1       -1 0.94841777E-01 0.17167544E+04</pdfrwt>
<totfact> 0.22208458E+01</totfact>
</mgrwt>
</event>
<event>
12    6  0.1556619E-007  0.2051496E+04  0.7818608E-02  0.8582916E-01
         -1   -1    0    0    0  501 -0.00000000000E+00  0.00000000000E+00  0.31513098549E+03  0.31513098549E+03  0.00000000000E+00 0.  1.
          2   -1    0    0  501    0  0.00000000000E+00 -0.00000000000E+00 -0.33387983192E+04  0.33387983192E+04  0.00000000000E+00 0. -1.
         24    2    1    2    0    0  0.21076630530E+03  0.18173829765E+03 -0.24961126657E+04  0.25131593230E+04  0.89107230127E+02 0.  0.
        254    2    1    2    0    0 -0.21076630530E+03 -0.18173829765E+03 -0.52755466794E+03  0.11407699817E+04  0.97241502410E+03 0.  0.
         23    2    4    4    0    0 -0.58049983906E+03 -0.35553688117E+02 -0.40940702653E+03  0.71710231466E+03  0.91528620819E+02 0.  0.
         23    2    4    4    0    0  0.36973353375E+03 -0.14618460954E+03 -0.11814764140E+03  0.42366766699E+03  0.86386346370E+02 0.  0.
          4    1    3    3  502    0  0.98074657681E+02  0.14140622328E+03 -0.15391747140E+04  0.15487650431E+04  0.00000000000E+00 0. -1.
         -3    1    3    3    0  502  0.11269164762E+03  0.40332074375E+02 -0.95693795170E+03  0.96439427988E+03  0.00000000000E+00 0.  1.
         11    1    5    5    0    0 -0.19401887414E+03 -0.55345379447E+02 -0.14043080532E+03  0.24581953875E+03  0.00000000000E+00 0.  1.
        -11    1    5    5    0    0 -0.38648096491E+03  0.19791691330E+02 -0.26897622122E+03  0.47128277591E+03  0.00000000000E+00 0. -1.
          4    1    6    6  503    0  0.38313408901E+02 -0.47105749454E+02 -0.22742221221E+02  0.64838858405E+02  0.00000000000E+00 0. -1.
         -4    1    6    6    0  503  0.33142012485E+03 -0.99078860082E+02 -0.95405420184E+02  0.35882880859E+03  0.00000000000E+00 0.  1.
<mgrwt>
<rscale>  0 0.20514958E+04</rscale>
<asrwt>0</asrwt>
<pdfrwt beam="1">  1        2 0.51366129E+00 0.20514958E+04</pdfrwt>
<pdfrwt beam="2">  1       -1 0.48481689E-01 0.20514958E+04</pdfrwt>
<totfact> 0.47202114E+00</totfact>
</mgrwt>
</event>
<event>
12    6  0.1556619E-007  0.2956450E+04  0.7818608E-02  0.8256277E-01
          2   -1    0    0  501    0  0.00000000000E+00  0.00000000000E+00  0.18210938334E+04  0.18210938334E+04  0.00000000000E+00 0. -1.
         -1   -1    0    0    0  501 -0.00000000000E+00 -0.00000000000E+00 -0.11999106240E+04  0.11999106240E+04  0.00000000000E+00 0.  1.
         24    2    1    2    0    0 -0.63966624149E+03 -0.11708391682E+04  0.40273197741E+03  0.13958966270E+04  0.79354201872E+02 0.  0.
        254    2    1    2    0    0  0.63966624149E+03  0.11708391682E+04  0.21845123207E+03  0.16251078304E+04  0.90178559617E+03 0.  0.
         23    2    4    4    0    0 -0.20545706769E+03  0.15366998224E+03  0.11168791727E+03  0.29527238698E+03  0.94257739975E+02 0.  0.
         23    2    4    4    0    0  0.84512330917E+03  0.10171691859E+04  0.10676331480E+03  0.13298354434E+04  0.90539166621E+02 0.  0.
          4    1    3    3  502    0 -0.26969148350E+02 -0.91826993675E+02  0.29106551566E+02  0.10003360972E+03  0.00000000000E+00 0. -1.
         -3    1    3    3    0  502 -0.61269709314E+03 -0.10790121745E+04  0.37362542584E+03  0.12958630173E+04  0.00000000000E+00 0.  1.
         11    1    5    5    0    0 -0.37529540481E+01 -0.10644237682E+02  0.12508516376E+02  0.16847772608E+02  0.00000000000E+00 0. -1.
        -11    1    5    5    0    0 -0.20170411364E+03  0.16431421992E+03  0.99179400897E+02  0.27842461438E+03  0.00000000000E+00 0.  1.
          1    1    6    6  503    0  0.20150144568E+03  0.18543491096E+03  0.25138064972E+02  0.27499247467E+03  0.00000000000E+00 0. -1.
         -1    1    6    6    0  503  0.64362186349E+03  0.83173427498E+03  0.81625249824E+02  0.10548429688E+04  0.00000000000E+00 0.  1.
<mgrwt>
<rscale>  0 0.29564505E+04</rscale>
<asrwt>0</asrwt>
<pdfrwt beam="1">  1        2 0.28016828E+00 0.29564505E+04</pdfrwt>
<pdfrwt beam="2">  1       -1 0.18460163E+00 0.29564505E+04</pdfrwt>
<totfact> 0.15841687E+00</totfact>
</mgrwt>
</event>
<event>
12    6  0.1556619E-007  0.1509359E+04  0.7818608E-02  0.8878253E-01
         -1   -1    0    0    0  501 -0.00000000000E+00  0.00000000000E+00  0.52563577296E+03  0.52563577296E+03  0.00000000000E+00 0.  1.
          2   -1    0    0  501    0  0.00000000000E+00 -0.00000000000E+00 -0.10835279844E+04  0.10835279844E+04  0.00000000000E+00 0. -1.
         24    2    1    2    0    0 -0.29679570907E+03 -0.35372084327E+03 -0.31872885370E+03  0.56719786873E+03  0.83181802264E+02 0.  0.
        254    2    1    2    0    0  0.29679570907E+03  0.35372084327E+03 -0.23916335771E+03  0.10419658886E+04  0.90293281780E+03 0.  0.
         23    2    4    4    0    0  0.19228323602E+03  0.55580731437E+03 -0.42953826059E+03  0.73371251177E+03  0.89086020536E+02 0.  0.
         23    2    4    4    0    0  0.10451247305E+03 -0.20208647110E+03  0.19037490289E+03  0.30825337683E+03  0.83760025383E+02 0.  0.
          2    1    3    3  502    0 -0.19629240185E+03 -0.25270540420E+03 -0.26297965757E+03  0.41418477595E+03  0.00000000000E+00 0. -1.
         -1    1    3    3    0  502 -0.10050330722E+03 -0.10101543907E+03 -0.55749196128E+02  0.15301309278E+03  0.00000000000E+00 0.  1.
         11    1    5    5    0    0  0.60684611175E+02  0.25646885038E+03 -0.14826259709E+03  0.30239161851E+03  0.00000000000E+00 0.  1.
        -11    1    5    5    0    0  0.13159862485E+03  0.29933846399E+03 -0.28127566350E+03  0.43132089326E+03  0.00000000000E+00 0. -1.
          3    1    6    6  503    0  0.52777615576E+02 -0.62181209323E+02  0.11538484720E+03  0.14129983178E+03  0.00000000000E+00 0. -1.
         -3    1    6    6    0  503  0.51734857469E+02 -0.13990526178E+03  0.74990055685E+02  0.16695354504E+03  0.00000000000E+00 0.  1.
<mgrwt>
<rscale>  0 0.15093589E+04</rscale>
<asrwt>0</asrwt>
<pdfrwt beam="1">  1        2 0.16669661E+00 0.15093589E+04</pdfrwt>
<pdfrwt beam="2">  1       -1 0.80867043E-01 0.15093589E+04</pdfrwt>
<totfact> 0.37451394E+01</totfact>
</mgrwt>
</event>
<event>
12    6  0.1556619E-007  0.2391011E+04  0.7818608E-02  0.8442877E-01
         -1   -1    0    0    0  501 -0.00000000000E+00  0.00000000000E+00  0.81846327124E+03  0.81846327124E+03  0.00000000000E+00 0.  1.
          2   -1    0    0  501    0  0.00000000000E+00 -0.00000000000E+00 -0.17462396099E+04  0.17462396099E+04  0.00000000000E+00 0. -1.
         24    2    1    2    0    0  0.45496378325E+02  0.74981485145E+03 -0.11463930095E+04  0.13724411867E+04  0.71313720148E+02 0.  0.
        254    2    1    2    0    0 -0.45496378325E+02 -0.74981485145E+03  0.21861667088E+03  0.11922616945E+04  0.89966797619E+03 0.  0.
         23    2    4    4    0    0  0.24867558742E+03  0.71729415279E+02  0.15144079915E+03  0.31334701096E+03  0.90925116623E+02 0.  0.
         23    2    4    4    0    0 -0.29417196575E+03 -0.82154426673E+03  0.67175871728E+02  0.87891468350E+03  0.80661611061E+02 0.  0.
          2    1    3    3  502    0  0.24808791677E+02  0.66214691426E+03 -0.10385940956E+04  0.12319625431E+04  0.00000000000E+00 0. -1.
         -1    1    3    3    0  502  0.20687586648E+02  0.87667937195E+02 -0.10779891391E+03  0.14047864355E+03  0.00000000000E+00 0.  1.
         11    1    5    5    0    0 -0.21699292481E+01 -0.10130214231E+02  0.73586693880E+01  0.12707472151E+02  0.00000000000E+00 0. -1.
        -11    1    5    5    0    0  0.25084551667E+03  0.81859629510E+02  0.14408212976E+03  0.30063953881E+03  0.00000000000E+00 0.  1.
          2    1    6    6  503    0 -0.14685502909E+03 -0.44445603702E+03  0.74640492291E+02  0.47400292352E+03  0.00000000000E+00 0. -1.
         -2    1    6    6    0  503 -0.14731693666E+03 -0.37708822971E+03 -0.74646205633E+01  0.40491175998E+03  0.00000000000E+00 0.  1.
<mgrwt>
<rscale>  0 0.23910107E+04</rscale>
<asrwt>0</asrwt>
<pdfrwt beam="1">  1        2 0.26865224E+00 0.23910107E+04</pdfrwt>
<pdfrwt beam="2">  1       -1 0.12591743E+00 0.23910107E+04</pdfrwt>
<totfact> 0.52036441E+00</totfact>
</mgrwt>
</event>
<event>
12    6  0.1556619E-007  0.1564351E+04  0.7818608E-02  0.8842753E-01
          2   -1    0    0  501    0  0.00000000000E+00  0.00000000000E+00  0.19578894677E+04  0.19578894677E+04  0.00000000000E+00 0. -1.
         -1   -1    0    0    0  501 -0.00000000000E+00 -0.00000000000E+00 -0.31247864951E+03  0.31247864951E+03  0.00000000000E+00 0.  1.
         24    2    1    2    0    0 -0.48729183041E+03 -0.16918628921E+03  0.72478245654E+03  0.89323694699E+03  0.80531395801E+02 0.  0.
        254    2    1    2    0    0  0.48729183041E+03  0.16918628921E+03  0.92062836169E+03  0.13771311703E+04  0.88479169939E+03 0.  0.
         23    2    4    4    0    0  0.34822793112E+03  0.51787129865E+03  0.64833680858E+03  0.90448973776E+03  0.91146554367E+02 0.  0.
         23    2    4    4    0    0  0.13906389929E+03 -0.34868500944E+03  0.27229155312E+03  0.47264143250E+03  0.91253657076E+02 0.  0.
          4    1    3    3  502    0 -0.28573738664E+03 -0.68610646133E+02  0.45683263396E+03  0.54318443492E+03  0.00000000000E+00 0. -1.
         -3    1    3    3    0  502 -0.20155444377E+03 -0.10057564308E+03  0.26794982259E+03  0.35005251207E+03  0.00000000000E+00 0.  1.
         11    1    5    5    0    0  0.31596788640E+02  0.39210217061E+02  0.93681726429E+02  0.10635818747E+03  0.00000000000E+00 0. -1.
        -11    1    5    5    0    0  0.31663114248E+03  0.47866108159E+03  0.55465508215E+03  0.79813155029E+03  0.00000000000E+00 0.  1.
          3    1    6    6  503    0  0.64039469654E+02 -0.20438019985E+03  0.10222845289E+03  0.23732462229E+03  0.00000000000E+00 0. -1.
         -3    1    6    6    0  503  0.75024429637E+02 -0.14430480959E+03  0.17006310022E+03  0.23531681022E+03  0.00000000000E+00 0.  1.
<mgrwt>
<rscale>  0 0.15643512E+04</rscale>
<asrwt>0</asrwt>
<pdfrwt beam="1">  1        2 0.30121376E+00 0.15643512E+04</pdfrwt>
<pdfrwt beam="2">  1       -1 0.48073640E-01 0.15643512E+04</pdfrwt>
<totfact> 0.33408663E+01</totfact>
</mgrwt>
</event>
<event>
12    6  0.1556619E-007  0.1614552E+04  0.7818608E-02  0.8811658E-01
          2   -1    0    0  501    0  0.00000000000E+00  0.00000000000E+00  0.19056969110E+04  0.19056969110E+04  0.00000000000E+00 0. -1.
         -3   -1    0    0    0  501 -0.00000000000E+00 -0.00000000000E+00 -0.34197167001E+03  0.34197167001E+03  0.00000000000E+00 0.  1.
         24    2    1    2    0    0  0.45207418775E+03  0.29428005597E+03  0.55117285099E+03  0.77512312353E+03  0.77797958773E+02 0.  0.
        254    2    1    2    0    0 -0.45207418775E+03 -0.29428005597E+03  0.10125523900E+04  0.14725454575E+04  0.92312293833E+03 0.  0.
         23    2    4    4    0    0  0.23324431078E+03  0.91767973909E+02  0.16781673806E+03  0.31468992808E+03  0.89682906486E+02 0.  0.
         23    2    4    4    0    0 -0.68531849853E+03 -0.38604802988E+03  0.84473565193E+03  0.11578555294E+04  0.91414328728E+02 0.  0.
          2    1    3    3  502    0  0.35681086600E+03  0.24879709799E+03  0.48016928714E+03  0.64790163943E+03  0.00000000000E+00 0. -1.
         -1    1    3    3    0  502  0.95263321743E+02  0.45482957987E+02  0.71003563856E+02  0.12722148410E+03  0.00000000000E+00 0.  1.
         11    1    5    5    0    0  0.52012159667E+02  0.51466601803E+02  0.82777972222E+02  0.11048198287E+03  0.00000000000E+00 0.  1.
        -11    1    5    5    0    0  0.18123215111E+03  0.40301372106E+02  0.85038765842E+02  0.20420794521E+03  0.00000000000E+00 0. -1.
          1    1    6    6  503    0 -0.18653124818E+03 -0.97394320967E+02  0.28694688704E+03  0.35583433826E+03  0.00000000000E+00 0. -1.
         -1    1    6    6    0  503 -0.49878725035E+03 -0.28865370891E+03  0.55778876489E+03  0.80202119113E+03  0.00000000000E+00 0.  1.
<mgrwt>
<rscale>  0 0.16145518E+04</rscale>
<asrwt>0</asrwt>
<pdfrwt beam="1">  1        2 0.29318413E+00 0.16145518E+04</pdfrwt>
<pdfrwt beam="2">  1       -3 0.52611027E-01 0.16145518E+04</pdfrwt>
<totfact> 0.16561000E+01</totfact>
</mgrwt>
</event>
<event>
12    6  0.1556619E-007  0.1751975E+04  0.7818608E-02  0.8732264E-01
         -1   -1    0    0    0  501 -0.00000000000E+00  0.00000000000E+00  0.38677219020E+03  0.38677219020E+03  0.00000000000E+00 0.  1.
          2   -1    0    0  501    0  0.00000000000E+00 -0.00000000000E+00 -0.19839941146E+04  0.19839941146E+04  0.00000000000E+00 0. -1.
         24    2    1    2    0    0 -0.34109779382E+03  0.51056380464E+03 -0.85684601595E+03  0.10573039027E+04  0.81751721814E+02 0.  0.
        254    2    1    2    0    0  0.34109779382E+03 -0.51056380464E+03 -0.74037590847E+03  0.13134624021E+04  0.89442936695E+03 0.  0.
         23    2    4    4    0    0  0.73744384252E+01  0.92210285295E+02  0.14032884890E+03  0.19140012332E+03  0.91568020169E+02 0.  0.
         23    2    4    4    0    0  0.33372335539E+03 -0.60277408993E+03 -0.88070475737E+03  0.11220622788E+04  0.93139714818E+02 0.  0.
          4    1    3    3  502    0 -0.11094298418E+03  0.18597214847E+03 -0.36798034088E+03  0.42697015940E+03  0.00000000000E+00 0. -1.
         -3    1    3    3    0  502 -0.23015480964E+03  0.32459165617E+03 -0.48886567507E+03  0.63033374328E+03  0.00000000000E+00 0.  1.
         11    1    5    5    0    0 -0.90794960746E+01  0.91653722104E+02  0.61211291517E+02  0.11058781232E+03  0.00000000000E+00 0.  1.
        -11    1    5    5    0    0  0.16453934500E+02  0.55656319107E+00  0.79117557386E+02  0.80812311004E+02  0.00000000000E+00 0. -1.
          3    1    6    6  503    0  0.16768967332E+03 -0.29410523061E+03 -0.50769191342E+03  0.61022028167E+03  0.00000000000E+00 0. -1.
         -3    1    6    6    0  503  0.16603368207E+03 -0.30866885932E+03 -0.37301284395E+03  0.51184199715E+03  0.00000000000E+00 0.  1.
<mgrwt>
<rscale>  0 0.17519746E+04</rscale>
<asrwt>0</asrwt>
<pdfrwt beam="1">  1        2 0.30522986E+00 0.17519746E+04</pdfrwt>
<pdfrwt beam="2">  1       -1 0.59503414E-01 0.17519746E+04</pdfrwt>
<totfact> 0.21076071E+01</totfact>
</mgrwt>
</event>
<event>
12    6  0.2067330E-007  0.1702833E+04  0.7818608E-02  0.8759750E-01
          2   -1    0    0  501    0  0.00000000000E+00  0.00000000000E+00  0.61503956127E+03  0.61503956127E+03  0.00000000000E+00 0. -1.
         -1   -1    0    0    0  501 -0.00000000000E+00 -0.00000000000E+00 -0.11786392576E+04  0.11786392576E+04  0.00000000000E+00 0.  1.
         24    2    1    2    0    0 -0.39170909513E+03 -0.22891386471E+02  0.28662832580E+03  0.49244918721E+03  0.79939815200E+02 0.  0.
        254    2    1    2    0    0  0.39170909513E+03  0.22891386471E+02 -0.85022802213E+03  0.13012296317E+04  0.90352135221E+03 0.  0.
         23    2    4    4    0    0  0.34655965635E+03 -0.31722716275E+03 -0.81071062034E+03  0.94183632053E+03  0.95222248123E+02 0.  0.
         23    2    4    4    0    0  0.45149438783E+02  0.34011854922E+03 -0.39517401782E+02  0.35939331112E+03  0.99412412167E+02 0.  0.
          4    1    3    3  502    0 -0.37831702451E+03 -0.24720077352E+02  0.29133930565E+03  0.47813538279E+03  0.00000000000E+00 0. -1.
         -3    1    3    3    0  502 -0.13392070625E+02  0.18286908814E+01 -0.47109798537E+01  0.14313804426E+02  0.00000000000E+00 0.  1.
         11    1    5    5    0    0  0.23156456837E+03 -0.19721010601E+03 -0.60679483811E+03  0.67875912575E+03  0.00000000000E+00 0.  1.
        -11    1    5    5    0    0  0.11499508798E+03 -0.12001705674E+03 -0.20391578224E+03  0.26307719478E+03  0.00000000000E+00 0. -1.
          4    1    6    6  503    0  0.33003459490E+02  0.23854012206E+03 -0.73195041150E+02  0.25169054854E+03  0.00000000000E+00 0. -1.
         -4    1    6    6    0  503  0.12145979293E+02  0.10157842715E+03  0.33677639368E+02  0.10770276259E+03  0.00000000000E+00 0.  1.
<mgrwt>
<rscale>  0 0.17028327E+04</rscale>
<asrwt>0</asrwt>
<pdfrwt beam="1">  1        2 0.94621471E-01 0.17028327E+04</pdfrwt>
<pdfrwt beam="2">  1       -1 0.18132912E+00 0.17028327E+04</pdfrwt>
<totfact> 0.10646420E+01</totfact>
</mgrwt>
</event>
<event>
12    6  0.1556619E-007  0.3338313E+04  0.7818608E-02  0.8153215E-01
         -1   -1    0    0    0  501 -0.00000000000E+00  0.00000000000E+00  0.11776722653E+04  0.11776722653E+04  0.00000000000E+00 0.  1.
          2   -1    0    0  501    0  0.00000000000E+00 -0.00000000000E+00 -0.23657542328E+04  0.23657542328E+04  0.00000000000E+00 0. -1.
         24    2    1    2    0    0  0.66530803847E+03  0.11200015638E+04 -0.14058359357E+04  0.19182738469E+04  0.79759541621E+02 0.  0.
        254    2    1    2    0    0 -0.66530803847E+03 -0.11200015638E+04  0.21775396823E+03  0.16251526512E+04  0.94692452709E+03 0.  0.
         23    2    4    4    0    0 -0.17030831076E+03  0.14980398882E+03  0.41905805692E+02  0.24796323166E+03  0.91013800737E+02 0.  0.
         23    2    4    4    0    0 -0.49499972770E+03 -0.12698055526E+04  0.17584816254E+03  0.13771894195E+04  0.91089236972E+02 0.  0.
          2    1    3    3  502    0  0.41278595141E+03  0.68872625163E+03 -0.92272722304E+03  0.12231768554E+04  0.00000000000E+00 0. -1.
         -1    1    3    3    0  502  0.25252208705E+03  0.43127531215E+03 -0.48310871270E+03  0.69509699151E+03  0.00000000000E+00 0.  1.
         11    1    5    5    0    0 -0.14689629432E+03  0.15995000577E+03  0.46357028006E+02  0.22206192757E+03  0.00000000000E+00 0.  1.
        -11    1    5    5    0    0 -0.23412016441E+02 -0.10146016945E+02 -0.44512223141E+01  0.25901304095E+02  0.00000000000E+00 0. -1.
          2    1    6    6  503    0 -0.85132795430E+02 -0.22543009499E+03 -0.36556048740E+01  0.24099726976E+03  0.00000000000E+00 0. -1.
         -2    1    6    6    0  503 -0.40986693227E+03 -0.10443754576E+04  0.17950376742E+03  0.11361921497E+04  0.00000000000E+00 0.  1.
<mgrwt>
<rscale>  0 0.33383128E+04</rscale>
<asrwt>0</asrwt>
<pdfrwt beam="1">  1        2 0.36396218E+00 0.33383128E+04</pdfrwt>
<pdfrwt beam="2">  1       -1 0.18118035E+00 0.33383128E+04</pdfrwt>
<totfact> 0.80324906E-01</totfact>
</mgrwt>
</event>
<event>
12    6  0.1556619E-007  0.1403493E+04  0.7818608E-02  0.8951294E-01
         -1   -1    0    0    0  501 -0.00000000000E+00  0.00000000000E+00  0.70301526535E+03  0.70301526535E+03  0.00000000000E+00 0.  1.
          2   -1    0    0  501    0  0.00000000000E+00 -0.00000000000E+00 -0.70047967503E+03  0.70047967503E+03  0.00000000000E+00 0. -1.
         24    2    1    2    0    0  0.31294002760E+02  0.11746969875E+02 -0.40538395354E+03  0.41439945771E+03  0.79205144121E+02 0.  0.
        254    2    1    2    0    0 -0.31294002760E+02 -0.11746969875E+02  0.40791954386E+03  0.98909548268E+03  0.90044112172E+03 0.  0.
         23    2    4    4    0    0  0.23236360748E+03 -0.33155199677E+03  0.38140017862E+03  0.56342335024E+03  0.89778631668E+02 0.  0.
         23    2    4    4    0    0 -0.26365761023E+03  0.31980502690E+03  0.26519365237E+02  0.42567213243E+03  0.93289318433E+02 0.  0.
          4    1    3    3  502    0 -0.13423062419E+02 -0.11433760428E+02 -0.25886333208E+03  0.25946316536E+03  0.00000000000E+00 0. -1.
         -3    1    3    3    0  502  0.44717065178E+02  0.23180730303E+02 -0.14652062145E+03  0.15493629235E+03  0.00000000000E+00 0.  1.
         11    1    5    5    0    0  0.56598929545E+02 -0.13395281890E+03  0.95548449031E+02  0.17400086962E+03  0.00000000000E+00 0. -1.
        -11    1    5    5    0    0  0.17576467793E+03 -0.19759917787E+03  0.28585172959E+03  0.38942248062E+03  0.00000000000E+00 0.  1.
          2    1    6    6  503    0 -0.99912506682E+02  0.56936166810E+02  0.12230680641E+02  0.11564525771E+03  0.00000000000E+00 0. -1.
         -2    1    6    6    0  503 -0.16374510355E+03  0.26286886009E+03  0.14288684595E+02  0.31002687472E+03  0.00000000000E+00 0.  1.
<mgrwt>
<rscale>  0 0.14034926E+04</rscale>
<asrwt>0</asrwt>
<pdfrwt beam="1">  1        2 0.10776610E+00 0.14034926E+04</pdfrwt>
<pdfrwt beam="2">  1       -1 0.10815619E+00 0.14034926E+04</pdfrwt>
<totfact> 0.36153936E+01</totfact>
</mgrwt>
</event>
<event>
12    6  0.1556619E-007  0.1372175E+04  0.7818608E-02  0.8974210E-01
         -1   -1    0    0    0  501 -0.00000000000E+00  0.00000000000E+00  0.31760785713E+03  0.31760785713E+03  0.00000000000E+00 0.  1.
          2   -1    0    0  501    0  0.00000000000E+00 -0.00000000000E+00 -0.14820668598E+04  0.14820668598E+04  0.00000000000E+00 0. -1.
         24    2    1    2    0    0 -0.26726641137E+03  0.10175488717E+03 -0.67418195232E+03  0.73729416521E+03  0.85416564573E+02 0.  0.
        254    2    1    2    0    0  0.26726641137E+03 -0.10175488717E+03 -0.49027705038E+03  0.10623805518E+04  0.89805092222E+03 0.  0.
         23    2    4    4    0    0  0.51064487753E+03  0.43614662613E+02 -0.54994875362E+03  0.75738400482E+03  0.92338883566E+02 0.  0.
         23    2    4    4    0    0 -0.24337846615E+03 -0.14536954978E+03  0.59671703234E+02  0.30499654693E+03  0.95377133951E+02 0.  0.
          4    1    3    3  502    0 -0.14651578528E+03  0.10385290409E+02 -0.34395886149E+03  0.37400859347E+03  0.00000000000E+00 0. -1.
         -3    1    3    3    0  502 -0.12075062610E+03  0.91369596760E+02 -0.33022309083E+03  0.36328557173E+03  0.00000000000E+00 0.  1.
         11    1    5    5    0    0  0.47795613605E+03  0.49529390072E+02 -0.53971153774E+03  0.72262284245E+03  0.00000000000E+00 0. -1.
        -11    1    5    5    0    0  0.32688741480E+02 -0.59147274594E+01 -0.10237215879E+02  0.34761162372E+02  0.00000000000E+00 0.  1.
          4    1    6    6  503    0 -0.11598255107E+03 -0.11249386764E+03  0.26390278676E+01  0.16159760790E+03  0.00000000000E+00 0. -1.
         -4    1    6    6    0  503 -0.12739591508E+03 -0.32875682139E+02  0.57032675366E+02  0.14339893903E+03  0.00000000000E+00 0.  1.
<mgrwt>
<rscale>  0 0.13721750E+04</rscale>
<asrwt>0</asrwt>
<pdfrwt beam="1">  1        2 0.22801029E+00 0.13721750E+04</pdfrwt>
<pdfrwt beam="2">  1       -1 0.48862746E-01 0.13721750E+04</pdfrwt>
<totfact> 0.60544884E+01</totfact>
</mgrwt>
</event>
<event>
12    6  0.1556619E-007  0.2197706E+04  0.7818608E-02  0.8519384E-01
          2   -1    0    0  501    0  0.00000000000E+00  0.00000000000E+00  0.20333570694E+04  0.20333570694E+04  0.00000000000E+00 0. -1.
         -1   -1    0    0    0  501 -0.00000000000E+00 -0.00000000000E+00 -0.59383449576E+03  0.59383449576E+03  0.00000000000E+00 0.  1.
         24    2    1    2    0    0  0.49600549301E+03  0.56368386113E+03 -0.25434964789E+02  0.75537063400E+03  0.78593338707E+02 0.  0.
        254    2    1    2    0    0 -0.49600549301E+03 -0.56368386113E+03  0.14649575385E+04  0.18718209312E+04  0.89098376222E+03 0.  0.
         23    2    4    4    0    0 -0.43902872749E+03 -0.63192837346E+03  0.55538162638E+03  0.95322020516E+03  0.90001754803E+02 0.  0.
         23    2    4    4    0    0 -0.56976765515E+02  0.68244512327E+02  0.90957591208E+03  0.91860072602E+03  0.92710780040E+02 0.  0.
          2    1    3    3  502    0  0.13367264708E+02  0.18219910727E+01 -0.50206876945E+01  0.14394815808E+02  0.00000000000E+00 0. -1.
         -1    1    3    3    0  502  0.48263822830E+03  0.56186187006E+03 -0.20414277094E+02  0.74097581820E+03  0.00000000000E+00 0.  1.
         11    1    5    5    0    0 -0.68908257020E+02 -0.51811077702E+02  0.52794266909E+02  0.10109386864E+03  0.00000000000E+00 0.  1.
        -11    1    5    5    0    0 -0.37012047047E+03 -0.58011729575E+03  0.50258735947E+03  0.85212633652E+03  0.00000000000E+00 0. -1.
          4    1    6    6  503    0 -0.95870967028E+01 -0.23291615759E+02  0.19899542272E+03  0.20058312504E+03  0.00000000000E+00 0.  1.
         -4    1    6    6    0  503 -0.47389668812E+02  0.91536128085E+02  0.71058048936E+03  0.71801760098E+03  0.00000000000E+00 0. -1.
<mgrwt>
<rscale>  0 0.21977057E+04</rscale>
<asrwt>0</asrwt>
<pdfrwt beam="1">  1        2 0.31282416E+00 0.21977057E+04</pdfrwt>
<pdfrwt beam="2">  1       -1 0.91359154E-01 0.21977057E+04</pdfrwt>
<totfact> 0.77828286E+00</totfact>
</mgrwt>
</event>
<event>
12    6  0.1556619E-007  0.3794782E+04  0.7818608E-02  0.8047276E-01
         -1   -1    0    0    0  501 -0.00000000000E+00  0.00000000000E+00  0.18886915276E+04  0.18886915276E+04  0.00000000000E+00 0.  1.
          2   -1    0    0  501    0  0.00000000000E+00 -0.00000000000E+00 -0.19061307498E+04  0.19061307498E+04  0.00000000000E+00 0. -1.
         24    2    1    2    0    0 -0.63966800846E+02  0.13857537515E+04 -0.11508624566E+04  0.18042587023E+04  0.80373250285E+02 0.  0.
        254    2    1    2    0    0  0.63966800846E+02 -0.13857537515E+04  0.11334232344E+04  0.19905635751E+04  0.86792275397E+03 0.  0.
         23    2    4    4    0    0  0.20911219308E+03 -0.23163309933E+03  0.65311278819E+03  0.72881678515E+03  0.85063448216E+02 0.  0.
         23    2    4    4    0    0 -0.14514539223E+03 -0.11541206521E+04  0.48031044622E+03  0.12617467899E+04  0.90802932743E+02 0.  0.
          4    1    3    3  502    0 -0.56620762456E+02  0.10748788093E+04 -0.84929690614E+03  0.13710855554E+04  0.00000000000E+00 0. -1.
         -3    1    3    3    0  502 -0.73460383901E+01  0.31087494220E+03 -0.30156555046E+03  0.43317314690E+03  0.00000000000E+00 0.  1.
         11    1    5    5    0    0  0.20540135405E+03 -0.23643445318E+03  0.65094789367E+03  0.72237395244E+03  0.00000000000E+00 0.  1.
        -11    1    5    5    0    0  0.37108390259E+01  0.48013538473E+01  0.21648945231E+01  0.64428327108E+01  0.00000000000E+00 0. -1.
          1    1    6    6  503    0 -0.53029566732E+02 -0.16627485877E+03  0.77554866369E+02  0.19098225285E+03  0.00000000000E+00 0. -1.
         -1    1    6    6    0  503 -0.92115825502E+02 -0.98784579336E+03  0.40275557985E+03  0.10707645371E+04  0.00000000000E+00 0.  1.
<mgrwt>
<rscale>  0 0.37947822E+04</rscale>
<asrwt>0</asrwt>
<pdfrwt beam="1">  1        2 0.29325088E+00 0.37947822E+04</pdfrwt>
<pdfrwt beam="2">  1       -1 0.29056793E+00 0.37947822E+04</pdfrwt>
<totfact> 0.26141098E-01</totfact>
</mgrwt>
</event>
<event>
12    6  0.1556619E-007  0.2455454E+04  0.7818608E-02  0.8419029E-01
          2   -1    0    0  501    0  0.00000000000E+00  0.00000000000E+00  0.10034826184E+04  0.10034826184E+04  0.00000000000E+00 0. -1.
         -1   -1    0    0    0  501 -0.00000000000E+00 -0.00000000000E+00 -0.15020829119E+04  0.15020829119E+04  0.00000000000E+00 0.  1.
         24    2    1    2    0    0  0.30417009455E+03  0.57793360767E+03  0.63932534150E+03  0.91714547904E+03  0.76760902454E+02 0.  0.
        254    2    1    2    0    0 -0.30417009455E+03 -0.57793360767E+03 -0.11379256350E+04  0.15884200513E+04  0.89536406416E+03 0.  0.
         23    2    4    4    0    0 -0.87753727338E+02 -0.23110250831E+03  0.99858281578E+02  0.28166103483E+03  0.90841489035E+02 0.  0.
         23    2    4    4    0    0 -0.21641636721E+03 -0.34683109936E+03 -0.12377839166E+04  0.13067590165E+04  0.91554615374E+02 0.  0.
          4    1    3    3  502    0  0.24084527273E+03  0.48884387072E+03  0.56488933813E+03  0.78490428695E+03  0.00000000000E+00 0. -1.
         -3    1    3    3    0  502  0.63324821818E+02  0.89089736947E+02  0.74436003376E+02  0.13224119209E+03  0.00000000000E+00 0.  1.
         11    1    5    5    0    0 -0.47117789531E+02 -0.34357763453E+02  0.44270659394E+02  0.73214979908E+02  0.00000000000E+00 0. -1.
        -11    1    5    5    0    0 -0.40635937807E+02 -0.19674474486E+03  0.55587622184E+02  0.20844605492E+03  0.00000000000E+00 0.  1.
          4    1    6    6  503    0 -0.14446869923E+03 -0.15818596613E+03 -0.71251034962E+03  0.74401949118E+03  0.00000000000E+00 0. -1.
         -4    1    6    6    0  503 -0.71947667977E+02 -0.18864513323E+03 -0.52527356695E+03  0.56273952531E+03  0.00000000000E+00 0.  1.
<mgrwt>
<rscale>  0 0.24554544E+04</rscale>
<asrwt>0</asrwt>
<pdfrwt beam="1">  1        2 0.15438194E+00 0.24554544E+04</pdfrwt>
<pdfrwt beam="2">  1       -1 0.23108968E+00 0.24554544E+04</pdfrwt>
<totfact> 0.23741468E+00</totfact>
</mgrwt>
</event>
<event>
12    6  0.1556619E-007  0.2245341E+04  0.7818608E-02  0.8499790E-01
          2   -1    0    0  501    0  0.00000000000E+00  0.00000000000E+00  0.18576844089E+04  0.18576844089E+04  0.00000000000E+00 0. -1.
         -1   -1    0    0    0  501 -0.00000000000E+00 -0.00000000000E+00 -0.67847318968E+03  0.67847318968E+03  0.00000000000E+00 0.  1.
         24    2    1    2    0    0  0.36155579847E+03  0.38467777283E+03  0.13776762687E+04  0.14774888705E+04  0.79258291051E+02 0.  0.
        254    2    1    2    0    0 -0.36155579847E+03 -0.38467777283E+03 -0.19846504945E+03  0.10586687281E+04  0.89593053067E+03 0.  0.
         23    2    4    4    0    0 -0.54474552309E+03 -0.54547488493E+03 -0.18842080294E+03  0.79822133752E+03  0.85815905667E+02 0.  0.
         23    2    4    4    0    0  0.18318972462E+03  0.16079711210E+03 -0.10044246511E+02  0.26044739063E+03  0.91201808824E+02 0.  0.
          4    1    3    3  502    0  0.31997142519E+03  0.30582993347E+03  0.11919256746E+04  0.12714560452E+04  0.00000000000E+00 0. -1.
         -3    1    3    3    0  502  0.41584373284E+02  0.78847839358E+02  0.18575059408E+03  0.20603282523E+03  0.00000000000E+00 0.  1.
         11    1    5    5    0    0 -0.14853685319E+02 -0.30883888212E+01 -0.12878366685E+02  0.19900312599E+02  0.00000000000E+00 0. -1.
        -11    1    5    5    0    0 -0.52989183777E+03 -0.54238649611E+03 -0.17554243625E+03  0.77832102492E+03  0.00000000000E+00 0.  1.
          3    1    6    6  503    0  0.34345270735E+02  0.87721740229E+02 -0.89357981975E+01  0.94628483133E+02  0.00000000000E+00 0.  1.
         -3    1    6    6    0  503  0.14884445388E+03  0.73075371871E+02 -0.11084483140E+01  0.16581890750E+03  0.00000000000E+00 0. -1.
<mgrwt>
<rscale>  0 0.22453410E+04</rscale>
<asrwt>0</asrwt>
<pdfrwt beam="1">  1        2 0.28579760E+00 0.22453410E+04</pdfrwt>
<pdfrwt beam="2">  1       -1 0.10438049E+00 0.22453410E+04</pdfrwt>
<totfact> 0.71723937E+00</totfact>
</mgrwt>
</event>
<event>
12    6  0.1710092E-007  0.2043121E+04  0.7818608E-02  0.8586721E-01
          2   -1    0    0  501    0  0.00000000000E+00  0.00000000000E+00  0.15472136963E+04  0.15472136963E+04  0.00000000000E+00 0. -1.
         -1   -1    0    0    0  501 -0.00000000000E+00 -0.00000000000E+00 -0.67449383738E+03  0.67449383738E+03  0.00000000000E+00 0.  1.
         24    2    1    2    0    0 -0.74833781628E+03  0.33035532108E+03  0.12170095255E+03  0.83082934748E+03  0.79511994890E+02 0.  0.
        254    2    1    2    0    0  0.74833781628E+03 -0.33035532108E+03  0.75101890637E+03  0.13908781862E+04  0.83747752548E+03 0.  0.
         23    2    4    4    0    0  0.16814341867E+03  0.26483177709E+03  0.13965081529E+03  0.35531849828E+03  0.91328011103E+02 0.  0.
         23    2    4    4    0    0  0.58019439762E+03 -0.59518709817E+03  0.61136809108E+03  0.10355596879E+04  0.87975585271E+02 0.  0.
          4    1    3    3  502    0 -0.15783489383E+03  0.61085283616E+02 -0.61582325900E+01  0.16935521667E+03  0.00000000000E+00 0. -1.
         -3    1    3    3    0  502 -0.59050292246E+03  0.26927003747E+03  0.12785918514E+03  0.66147413081E+03  0.00000000000E+00 0.  1.
         11    1    5    5    0    0 -0.58955816445E+01  0.70712872513E+01 -0.69005077852E+01  0.11505563611E+02  0.00000000000E+00 0. -1.
        -11    1    5    5    0    0  0.17403900031E+03  0.25776048984E+03  0.14655132308E+03  0.34381293467E+03  0.00000000000E+00 0.  1.
          2    1    6    6  503    0  0.55275639420E+02 -0.86755787818E+02  0.51972250732E+02  0.11525223590E+03  0.00000000000E+00 0. -1.
         -2    1    6    6    0  503  0.52491875820E+03 -0.50843131036E+03  0.55939584035E+03  0.92030745202E+03  0.00000000000E+00 0.  1.
<mgrwt>
<rscale>  0 0.20431212E+04</rscale>
<asrwt>0</asrwt>
<pdfrwt beam="1">  1        2 0.23803287E+00 0.20431212E+04</pdfrwt>
<pdfrwt beam="2">  1       -1 0.10376828E+00 0.20431212E+04</pdfrwt>
<totfact> 0.11019481E+01</totfact>
</mgrwt>
</event>
<event>
12    6  0.1556619E-007  0.1723748E+04  0.7818608E-02  0.8747935E-01
         -1   -1    0    0    0  501 -0.00000000000E+00  0.00000000000E+00  0.51356202284E+03  0.51356202284E+03  0.00000000000E+00 0.  1.
          2   -1    0    0  501    0  0.00000000000E+00 -0.00000000000E+00 -0.14464200118E+04  0.14464200118E+04  0.00000000000E+00 0. -1.
         24    2    1    2    0    0 -0.58187692684E+03 -0.10840726174E+03 -0.11452997720E+03  0.60790097405E+03  0.78061425691E+02 0.  0.
        254    2    1    2    0    0  0.58187692684E+03  0.10840726174E+03 -0.81832801171E+03  0.13520810605E+04  0.89896027006E+03 0.  0.
         23    2    4    4    0    0 -0.81295690330E+02  0.25061768387E+03  0.69366202846E+01  0.28003004592E+03  0.94607067304E+02 0.  0.
         23    2    4    4    0    0  0.66317261717E+03 -0.14221042213E+03 -0.82526463200E+03  0.10720510146E+04  0.90608723693E+02 0.  0.
          2    1    3    3  502    0 -0.95943118549E+02 -0.35924612167E+02 -0.44225117060E+02  0.11158638239E+03  0.00000000000E+00 0. -1.
         -3    1    3    3    0  502 -0.48593380829E+03 -0.72482649576E+02 -0.70304860141E+02  0.49631459165E+03  0.00000000000E+00 0.  1.
         11    1    5    5    0    0 -0.72526001204E+02  0.24795260386E+03 -0.12391405993E+02  0.25863886319E+03  0.00000000000E+00 0.  1.
        -11    1    5    5    0    0 -0.87696891258E+01  0.26650800123E+01  0.19328026278E+02  0.21391182731E+02  0.00000000000E+00 0. -1.
          2    1    6    6  503    0  0.20523016304E+03 -0.26705553107E+01 -0.26225701629E+03  0.33302446499E+03  0.00000000000E+00 0. -1.
         -2    1    6    6    0  503  0.45794245413E+03 -0.13953986682E+03 -0.56300761571E+03  0.73902654964E+03  0.00000000000E+00 0.  1.
<mgrwt>
<rscale>  0 0.17237475E+04</rscale>
<asrwt>0</asrwt>
<pdfrwt beam="1">  1        2 0.22252615E+00 0.17237475E+04</pdfrwt>
<pdfrwt beam="2">  1       -1 0.79009544E-01 0.17237475E+04</pdfrwt>
<totfact> 0.23603834E+01</totfact>
</mgrwt>
</event>
<event>
12    6  0.1556619E-007  0.1608356E+04  0.7818608E-02  0.8815431E-01
         -1   -1    0    0    0  501 -0.00000000000E+00  0.00000000000E+00  0.76831944535E+03  0.76831944535E+03  0.00000000000E+00 0.  1.
          2   -1    0    0  501    0  0.00000000000E+00 -0.00000000000E+00 -0.84171009062E+03  0.84171009062E+03  0.00000000000E+00 0. -1.
         24    2    1    2    0    0 -0.37371848382E+03  0.30822939757E+03 -0.27460180017E+03  0.56274498829E+03  0.81270575907E+02 0.  0.
        254    2    1    2    0    0  0.37371848382E+03 -0.30822939757E+03  0.20121115491E+03  0.10472845477E+04  0.90644808362E+03 0.  0.
         23    2    4    4    0    0  0.21874819185E+03  0.30401768728E+03  0.11812840350E+03  0.40384357528E+03  0.94115822063E+02 0.  0.
         23    2    4    4    0    0  0.15497029197E+03 -0.61224708485E+03  0.83082751407E+02  0.64344097241E+03  0.90836430451E+02 0.  0.
          4    1    3    3  502    0 -0.28976074584E+03  0.27674914040E+03 -0.21132717278E+03  0.45300171136E+03  0.00000000000E+00 0. -1.
         -3    1    3    3    0  502 -0.83957737974E+02  0.31480257167E+02 -0.63274627397E+02  0.10974327692E+03  0.00000000000E+00 0.  1.
         11    1    5    5    0    0  0.61427648495E+02  0.62675141653E+02  0.68908146211E+02  0.11157894961E+03  0.00000000000E+00 0.  1.
        -11    1    5    5    0    0  0.15732054335E+03  0.24134254563E+03  0.49220257288E+02  0.29226462567E+03  0.00000000000E+00 0. -1.
          2    1    6    6  503    0  0.15024732620E+03 -0.54211586375E+03  0.47216868854E+02  0.56452927423E+03  0.00000000000E+00 0. -1.
         -2    1    6    6    0  503  0.47229657733E+01 -0.70131221101E+02  0.35865882553E+02  0.78911698183E+02  0.00000000000E+00 0.  1.
<mgrwt>
<rscale>  0 0.16083560E+04</rscale>
<asrwt>0</asrwt>
<pdfrwt beam="1">  1        2 0.12949386E+00 0.16083560E+04</pdfrwt>
<pdfrwt beam="2">  1       -1 0.11820299E+00 0.16083560E+04</pdfrwt>
<totfact> 0.22608224E+01</totfact>
</mgrwt>
</event>
<event>
12    6  0.1556619E-007  0.2602024E+04  0.7818608E-02  0.8367514E-01
         -1   -1    0    0    0  501 -0.00000000000E+00  0.00000000000E+00  0.88380373967E+03  0.88380373967E+03  0.00000000000E+00 0.  1.
          2   -1    0    0  501    0  0.00000000000E+00 -0.00000000000E+00 -0.19151679015E+04  0.19151679015E+04  0.00000000000E+00 0. -1.
         24    2    1    2    0    0  0.10223712966E+04  0.37382437062E+03 -0.78970768240E+02  0.10942668573E+04  0.78713688131E+02 0.  0.
        254    2    1    2    0    0 -0.10223712966E+04 -0.37382437062E+03 -0.95239339355E+03  0.17047047838E+04  0.90220701384E+03 0.  0.
         23    2    4    4    0    0 -0.85669682798E+03  0.39204723792E+02 -0.90150042130E+03  0.12475287964E+04  0.90325095831E+02 0.  0.
         23    2    4    4    0    0 -0.16567446857E+03 -0.41302909441E+03 -0.50892972256E+02  0.45717598737E+03  0.91535383520E+02 0.  0.
          2    1    3    3  502    0  0.98155860122E+02  0.37409868950E+02  0.15585354635E+02  0.10619309982E+03  0.00000000000E+00 0. -1.
         -1    1    3    3    0  502  0.92421543643E+03  0.33641450167E+03 -0.94556122876E+02  0.98807375749E+03  0.00000000000E+00 0.  1.
         11    1    5    5    0    0 -0.71589655779E+03  0.50925755248E+02 -0.71006190158E+03  0.10095985430E+04  0.00000000000E+00 0. -1.
        -11    1    5    5    0    0 -0.14080027019E+03 -0.11721031455E+02 -0.19143851972E+03  0.23793025343E+03  0.00000000000E+00 0.  1.
          1    1    6    6  503    0 -0.48273990050E+02 -0.39164930576E+02 -0.12776932161E+02  0.63462744171E+02  0.00000000000E+00 0.  1.
         -1    1    6    6    0  503 -0.11740047852E+03 -0.37386416384E+03 -0.38116040096E+02  0.39371324320E+03  0.00000000000E+00 0. -1.
<mgrwt>
<rscale>  0 0.26020243E+04</rscale>
<asrwt>0</asrwt>
<pdfrwt beam="1">  1        2 0.29464121E+00 0.26020243E+04</pdfrwt>
<pdfrwt beam="2">  1       -1 0.13596981E+00 0.26020243E+04</pdfrwt>
<totfact> 0.33896901E+00</totfact>
</mgrwt>
</event>
<event>
12    6  0.1556619E-007  0.1862591E+04  0.7818608E-02  0.8673705E-01
         -1   -1    0    0    0  501 -0.00000000000E+00  0.00000000000E+00  0.15413058087E+04  0.15413058087E+04  0.00000000000E+00 0.  1.
          2   -1    0    0  501    0  0.00000000000E+00 -0.00000000000E+00 -0.56271178289E+03  0.56271178289E+03  0.00000000000E+00 0. -1.
         24    2    1    2    0    0 -0.30981907677E+03 -0.40676310760E+03 -0.18001626261E+03  0.54794312162E+03  0.79948256336E+02 0.  0.
        254    2    1    2    0    0  0.30981907677E+03  0.40676310760E+03  0.11586102884E+04  0.15560744700E+04  0.90418243159E+03 0.  0.
         23    2    4    4    0    0  0.13446097114E+03  0.67705614903E+03  0.69189268591E+03  0.98135244723E+03  0.88613515708E+02 0.  0.
         23    2    4    4    0    0  0.17535810563E+03 -0.27029304143E+03  0.46671760252E+03  0.57472202274E+03  0.93119758724E+02 0.  0.
          2    1    3    3  502    0 -0.20099856261E+03 -0.27370722478E+03 -0.15837210954E+03  0.37469693374E+03  0.00000000000E+00 0. -1.
         -1    1    3    3    0  502 -0.10882051416E+03 -0.13305588282E+03 -0.21644153066E+02  0.17324618788E+03  0.00000000000E+00 0.  1.
         11    1    5    5    0    0 -0.86968277501E+01  0.13237158769E+03  0.13860265668E+03  0.19185559278E+03  0.00000000000E+00 0. -1.
        -11    1    5    5    0    0  0.14315779889E+03  0.54468456135E+03  0.55329002923E+03  0.78949685446E+03  0.00000000000E+00 0.  1.
          1    1    6    6  503    0  0.55168004168E+02 -0.62901387704E+02  0.61210521934E+02  0.10366687636E+03  0.00000000000E+00 0. -1.
         -1    1    6    6    0  503  0.12019010146E+03 -0.20739165373E+03  0.40550708059E+03  0.47105514638E+03  0.00000000000E+00 0.  1.
<mgrwt>
<rscale>  0 0.18625906E+04</rscale>
<asrwt>0</asrwt>
<pdfrwt beam="1">  1        2 0.86571045E-01 0.18625906E+04</pdfrwt>
<pdfrwt beam="2">  1       -1 0.23712397E+00 0.18625906E+04</pdfrwt>
<totfact> 0.48682855E+00</totfact>
</mgrwt>
</event>
<event>
12    6  0.1556619E-007  0.1948206E+04  0.7818608E-02  0.8631226E-01
          2   -1    0    0  501    0  0.00000000000E+00  0.00000000000E+00  0.83973013956E+03  0.83973013956E+03  0.00000000000E+00 0. -1.
         -1   -1    0    0    0  501 -0.00000000000E+00 -0.00000000000E+00 -0.11299779236E+04  0.11299779236E+04  0.00000000000E+00 0.  1.
         24    2    1    2    0    0  0.36784234590E+03  0.20771672619E+03 -0.76456505892E+03  0.87713178386E+03  0.79663085407E+02 0.  0.
        254    2    1    2    0    0 -0.36784234590E+03 -0.20771672619E+03  0.47431727490E+03  0.10925762793E+04  0.88898358757E+03 0.  0.
         23    2    4    4    0    0  0.21245777581E+03  0.16680612943E+03  0.17261526656E+03  0.33338304745E+03  0.91573111546E+02 0.  0.
         23    2    4    4    0    0 -0.58030012171E+03 -0.37452285562E+03  0.30170200834E+03  0.75919323182E+03  0.91294363325E+02 0.  0.
          2    1    3    3  502    0  0.87769173552E+02  0.90425843450E+02 -0.23735383382E+03  0.26873240113E+03  0.00000000000E+00 0. -1.
         -1    1    3    3    0  502  0.28007317234E+03  0.11729088274E+03 -0.52721122510E+03  0.60839938273E+03  0.00000000000E+00 0.  1.
         11    1    5    5    0    0  0.21309658974E+02  0.35574859033E+01 -0.88583945045E+01  0.23350126867E+02  0.00000000000E+00 0.  1.
        -11    1    5    5    0    0  0.19114811684E+03  0.16324864352E+03  0.18147366106E+03  0.31003292058E+03  0.00000000000E+00 0. -1.
          2    1    6    6  503    0 -0.45190932906E+03 -0.29403298862E+03  0.27533505482E+03  0.60538155943E+03  0.00000000000E+00 0. -1.
         -2    1    6    6    0  503 -0.12839079265E+03 -0.80489866994E+02  0.26366953526E+02  0.15381167239E+03  0.00000000000E+00 0.  1.
<mgrwt>
<rscale>  0 0.19482059E+04</rscale>
<asrwt>0</asrwt>
<pdfrwt beam="1">  1        2 0.12918925E+00 0.19482059E+04</pdfrwt>
<pdfrwt beam="2">  1       -1 0.17384276E+00 0.19482059E+04</pdfrwt>
<totfact> 0.79233306E+00</totfact>
</mgrwt>
</event>
<event>
12    6  0.1556619E-007  0.2455332E+04  0.7818608E-02  0.8419074E-01
         -1   -1    0    0    0  501 -0.00000000000E+00  0.00000000000E+00  0.51110746849E+03  0.51110746849E+03  0.00000000000E+00 0.  1.
          2   -1    0    0  501    0  0.00000000000E+00 -0.00000000000E+00 -0.29488202169E+04  0.29488202169E+04  0.00000000000E+00 0. -1.
         24    2    1    2    0    0 -0.61634123483E+03 -0.33305738981E+03 -0.21796359462E+04  0.22908296609E+04  0.79271274322E+02 0.  0.
        254    2    1    2    0    0  0.61634123483E+03  0.33305738981E+03 -0.25807680225E+03  0.11690980245E+04  0.89965705259E+03 0.  0.
         23    2    4    4    0    0 -0.51122059467E+02  0.36200636734E+03  0.12053849324E+03  0.39554371889E+03  0.90902311555E+02 0.  0.
         23    2    4    4    0    0  0.66746329429E+03 -0.28948977531E+02 -0.37861529549E+03  0.77355430556E+03  0.93227834621E+02 0.  0.
          4    1    3    3  502    0 -0.40433325817E+03 -0.21021648294E+03 -0.15341005678E+04  0.16003564933E+04  0.00000000000E+00 0. -1.
         -3    1    3    3    0  502 -0.21200797665E+03 -0.12284090687E+03 -0.64553537833E+03  0.69047316765E+03  0.00000000000E+00 0.  1.
         11    1    5    5    0    0 -0.29533608461E+02  0.35142061071E+03  0.11397798637E+03  0.37062064303E+03  0.00000000000E+00 0. -1.
        -11    1    5    5    0    0 -0.21588451006E+02  0.10585756627E+02  0.65605068650E+01  0.24923075864E+02  0.00000000000E+00 0.  1.
          3    1    6    6  503    0  0.65370609170E+03 -0.29129527380E+02 -0.35064359481E+03  0.74238205412E+03  0.00000000000E+00 0. -1.
         -3    1    6    6    0  503  0.13757202593E+02  0.18054984923E+00 -0.27971700680E+02  0.31172251448E+02  0.00000000000E+00 0.  1.
<mgrwt>
<rscale>  0 0.24553322E+04</rscale>
<asrwt>0</asrwt>
<pdfrwt beam="1">  1        2 0.45366465E+00 0.24553322E+04</pdfrwt>
<pdfrwt beam="2">  1       -1 0.78631918E-01 0.24553322E+04</pdfrwt>
<totfact> 0.30882315E+00</totfact>
</mgrwt>
</event>
<event>
12    6  0.1556619E-007  0.2831035E+04  0.7818608E-02  0.8293698E-01
          2   -1    0    0  501    0  0.00000000000E+00  0.00000000000E+00  0.23995635291E+04  0.23995635291E+04  0.00000000000E+00 0. -1.
         -1   -1    0    0    0  501 -0.00000000000E+00 -0.00000000000E+00 -0.83502243677E+03  0.83502243677E+03  0.00000000000E+00 0.  1.
         24    2    1    2    0    0  0.56236252830E+03  0.10389875158E+04  0.17049212100E+03  0.11963481182E+04  0.80215866374E+02 0.  0.
        254    2    1    2    0    0 -0.56236252830E+03 -0.10389875158E+04  0.13940489713E+04  0.20382378477E+04  0.90293649718E+03 0.  0.
         23    2    4    4    0    0 -0.26632040015E+03 -0.16557948486E+03 -0.41648587673E+02  0.32921457747E+03  0.91129094260E+02 0.  0.
         23    2    4    4    0    0 -0.29604212816E+03 -0.87340803099E+03  0.14356975590E+04  0.17090232702E+04  0.95134257820E+02 0.  0.
          4    1    3    3  502    0  0.13063550614E+03  0.28584058579E+03  0.16720209341E+02  0.31472216533E+03  0.00000000000E+00 0. -1.
         -1    1    3    3    0  502  0.43172702216E+03  0.75314693006E+03  0.15377191166E+03  0.88162595285E+03  0.00000000000E+00 0.  1.
         11    1    5    5    0    0 -0.23581778905E+03 -0.12276901318E+03 -0.61747036252E+02  0.27293764254E+03  0.00000000000E+00 0. -1.
        -11    1    5    5    0    0 -0.30502611091E+02 -0.42810471682E+02  0.20098448579E+02  0.56276934923E+02  0.00000000000E+00 0.  1.
          3    1    6    6  503    0 -0.28046386210E+03 -0.86393459419E+03  0.13983167119E+04  0.16674329335E+04  0.00000000000E+00 0. -1.
         -3    1    6    6    0  503 -0.15578266057E+02 -0.94734368013E+01  0.37380847074E+02  0.41590336692E+02  0.00000000000E+00 0.  1.
<mgrwt>
<rscale>  0 0.28310347E+04</rscale>
<asrwt>0</asrwt>
<pdfrwt beam="1">  1        2 0.36916362E+00 0.28310347E+04</pdfrwt>
<pdfrwt beam="2">  1       -1 0.12846499E+00 0.28310347E+04</pdfrwt>
<totfact> 0.20508695E+00</totfact>
</mgrwt>
</event>
<event>
12    6  0.1556619E-007  0.2241251E+04  0.7818608E-02  0.8501452E-01
          2   -1    0    0  501    0  0.00000000000E+00  0.00000000000E+00  0.11320323950E+04  0.11320323950E+04  0.00000000000E+00 0. -1.
         -1   -1    0    0    0  501 -0.00000000000E+00 -0.00000000000E+00 -0.11093338228E+04  0.11093338228E+04  0.00000000000E+00 0.  1.
         24    2    1    2    0    0 -0.16736502253E+03  0.86190714078E+03  0.34745749738E+03  0.94755339251E+03  0.78966759341E+02 0.  0.
        254    2    1    2    0    0  0.16736502253E+03 -0.86190714078E+03 -0.32475892516E+03  0.12938128253E+04  0.89307799064E+03 0.  0.
         23    2    4    4    0    0  0.38274585992E+02 -0.83493523264E+03  0.92946337206E+02  0.84561313205E+03  0.88548070900E+02 0.  0.
         23    2    4    4    0    0  0.12909043654E+03 -0.26971908139E+02 -0.41770526237E+03  0.44819969326E+03  0.94939213131E+02 0.  0.
          4    1    3    3  502    0 -0.14793669200E+03  0.81464764461E+03  0.30960645591E+03  0.88396391739E+03  0.00000000000E+00 0. -1.
         -3    1    3    3    0  502 -0.19428330534E+02  0.47259496168E+02  0.37851041476E+02  0.63589475122E+02  0.00000000000E+00 0.  1.
         11    1    5    5    0    0  0.37873389833E+02 -0.59525757041E+03  0.27199445555E+02  0.59708104863E+03  0.00000000000E+00 0.  1.
        -11    1    5    5    0    0  0.40119615833E+00 -0.23967766222E+03  0.65746891650E+02  0.24853208342E+03  0.00000000000E+00 0. -1.
          4    1    6    6  503    0  0.60073375507E+02 -0.46218369488E+02 -0.11952355837E+03  0.14153031170E+03  0.00000000000E+00 0. -1.
         -4    1    6    6    0  503  0.69017061036E+02  0.19246461349E+02 -0.29818170400E+03  0.30666938156E+03  0.00000000000E+00 0.  1.
<mgrwt>
<rscale>  0 0.22412513E+04</rscale>
<asrwt>0</asrwt>
<pdfrwt beam="1">  1        2 0.17415883E+00 0.22412513E+04</pdfrwt>
<pdfrwt beam="2">  1       -1 0.17066674E+00 0.22412513E+04</pdfrwt>
<totfact> 0.52613953E+00</totfact>
</mgrwt>
</event>
<event>
12    6  0.1556619E-007  0.1136221E+04  0.7818608E-02  0.9170590E-01
         -1   -1    0    0    0  501 -0.00000000000E+00  0.00000000000E+00  0.10510099053E+04  0.10510099053E+04  0.00000000000E+00 0.  1.
          2   -1    0    0  501    0  0.00000000000E+00 -0.00000000000E+00 -0.30708532902E+03  0.30708532902E+03  0.00000000000E+00 0. -1.
         24    2    1    2    0    0 -0.11888373961E+03 -0.14801877723E+03  0.27107908290E+03  0.34031180447E+03  0.79280218965E+02 0.  0.
        254    2    1    2    0    0  0.11888373961E+03  0.14801877723E+03  0.47284549339E+03  0.10177834299E+04  0.88105467907E+03 0.  0.
         23    2    4    4    0    0  0.38864631353E+03  0.29810651869E+03  0.71634828401E+02  0.50366505044E+03  0.92916526449E+02 0.  0.
         23    2    4    4    0    0 -0.26976257392E+03 -0.15008774146E+03  0.40121066499E+03  0.51411837942E+03  0.89719194901E+02 0.  0.
          4    1    3    3  502    0 -0.18290094925E+02  0.67501191330E+01  0.14799559306E+02  0.24476900055E+02  0.00000000000E+00 0. -1.
         -3    1    3    3    0  502 -0.10059364469E+03 -0.15476889637E+03  0.25627952360E+03  0.31583490442E+03  0.00000000000E+00 0.  1.
         11    1    5    5    0    0  0.38814392980E+03  0.29579502731E+03  0.59870678256E+02  0.49166544167E+03  0.00000000000E+00 0. -1.
        -11    1    5    5    0    0  0.50238372797E+00  0.23114913791E+01  0.11764150145E+02  0.11999608762E+02  0.00000000000E+00 0.  1.
          1    1    6    6  503    0 -0.14592146967E+03 -0.12751904549E+03  0.26934992778E+03  0.33181857373E+03  0.00000000000E+00 0. -1.
         -1    1    6    6    0  503 -0.12384110425E+03 -0.22568695967E+02  0.13186073721E+03  0.18229980569E+03  0.00000000000E+00 0.  1.
<mgrwt>
<rscale>  0 0.11362213E+04</rscale>
<asrwt>0</asrwt>
<pdfrwt beam="1">  1        2 0.47243897E-01 0.11362213E+04</pdfrwt>
<pdfrwt beam="2">  1       -1 0.16169383E+00 0.11362213E+04</pdfrwt>
<totfact> 0.34456210E+01</totfact>
</mgrwt>
</event>
<event>
12    6  0.1556619E-007  0.1761775E+04  0.7818608E-02  0.8726895E-01
         -1   -1    0    0    0  501 -0.00000000000E+00  0.00000000000E+00  0.83470567475E+03  0.83470567475E+03  0.00000000000E+00 0.  1.
          2   -1    0    0  501    0  0.00000000000E+00 -0.00000000000E+00 -0.92962479060E+03  0.92962479060E+03  0.00000000000E+00 0. -1.
         24    2    1    2    0    0 -0.53469988556E+03 -0.23401811974E+03  0.25803020605E+03  0.64307471713E+03  0.79353995437E+02 0.  0.
        254    2    1    2    0    0  0.53469988556E+03  0.23401811974E+03 -0.35294932190E+03  0.11212557482E+04  0.88992852584E+03 0.  0.
         23    2    4    4    0    0  0.35467511709E+03 -0.34421662438E+02  0.24004244229E+03  0.43977958853E+03  0.93842542886E+02 0.  0.
         23    2    4    4    0    0  0.18002476847E+03  0.26843978217E+03 -0.59299176420E+03  0.68147615969E+03  0.91113609887E+02 0.  0.
          2    1    3    3  502    0 -0.30808503283E+03 -0.13071058890E+03  0.19025529368E+03  0.38496587158E+03  0.00000000000E+00 0. -1.
         -1    1    3    3    0  502 -0.22661485273E+03 -0.10330753083E+03  0.67774912367E+02  0.25810884555E+03  0.00000000000E+00 0.  1.
         11    1    5    5    0    0  0.28934675972E+03  0.55852142632E+00  0.21858642179E+03  0.36263188373E+03  0.00000000000E+00 0. -1.
        -11    1    5    5    0    0  0.65328357373E+02 -0.34980183865E+02  0.21456020508E+02  0.77147704802E+02  0.00000000000E+00 0.  1.
          4    1    6    6  503    0  0.10610346689E+03  0.20268858752E+03 -0.33977408810E+03  0.40961816383E+03  0.00000000000E+00 0.  1.
         -4    1    6    6    0  503  0.73921301582E+02  0.65751194659E+02 -0.25321767609E+03  0.27185799586E+03  0.00000000000E+00 0. -1.
<mgrwt>
<rscale>  0 0.17617753E+04</rscale>
<asrwt>0</asrwt>
<pdfrwt beam="1">  1        2 0.14301920E+00 0.17617753E+04</pdfrwt>
<pdfrwt beam="2">  1       -1 0.12841626E+00 0.17617753E+04</pdfrwt>
<totfact> 0.15832611E+01</totfact>
</mgrwt>
</event>
<event>
12    6  0.1556619E-007  0.1205816E+04  0.7818608E-02  0.9107781E-01
          2   -1    0    0  501    0  0.00000000000E+00  0.00000000000E+00  0.10053445358E+04  0.10053445358E+04  0.00000000000E+00 0. -1.
         -3   -1    0    0    0  501 -0.00000000000E+00 -0.00000000000E+00 -0.36156586120E+03  0.36156586120E+03  0.00000000000E+00 0.  1.
         24    2    1    2    0    0  0.21469903854E+03 -0.10971275183E+03  0.11501336852E+03  0.27929340844E+03  0.81511765976E+02 0.  0.
        254    2    1    2    0    0 -0.21469903854E+03  0.10971275183E+03  0.52876530611E+03  0.10876169886E+04  0.91933965425E+03 0.  0.
         23    2    4    4    0    0 -0.64152739651E+02  0.18216150831E+03  0.75759518071E+03  0.78719681878E+03  0.91814947387E+02 0.  0.
         23    2    4    4    0    0 -0.15054629889E+03 -0.72448756476E+02 -0.22882987459E+03  0.30042016982E+03  0.99880711367E+02 0.  0.
          2    1    3    3  502    0  0.60386555567E+02 -0.46734179202E+02  0.76799332788E+02  0.10829938650E+03  0.00000000000E+00 0. -1.
         -1    1    3    3    0  502  0.15431248298E+03 -0.62978572630E+02  0.38214035737E+02  0.17099402194E+03  0.00000000000E+00 0.  1.
         11    1    5    5    0    0 -0.38770196845E+02  0.31626748265E+02  0.96444836670E+02  0.10865075190E+03  0.00000000000E+00 0. -1.
        -11    1    5    5    0    0 -0.25382542806E+02  0.15053476004E+03  0.66115034404E+03  0.67854606688E+03  0.00000000000E+00 0.  1.
          2    1    6    6  503    0 -0.16288327800E+03 -0.63985423917E+02 -0.22487496537E+03  0.28494533998E+03  0.00000000000E+00 0.  1.
         -2    1    6    6    0  503  0.12336979110E+02 -0.84633325581E+01 -0.39549092201E+01  0.15474829837E+02  0.00000000000E+00 0. -1.
<mgrwt>
<rscale>  0 0.12058163E+04</rscale>
<asrwt>0</asrwt>
<pdfrwt beam="1">  1        2 0.15466839E+00 0.12058163E+04</pdfrwt>
<pdfrwt beam="2">  1       -3 0.55625518E-01 0.12058163E+04</pdfrwt>
<totfact> 0.49971857E+01</totfact>
</mgrwt>
</event>
<event>
12    6  0.1556619E-007  0.1590706E+04  0.7818608E-02  0.8826278E-01
          2   -1    0    0  501    0  0.00000000000E+00  0.00000000000E+00  0.12482454448E+04  0.12482454448E+04  0.00000000000E+00 0. -1.
         -1   -1    0    0    0  501 -0.00000000000E+00 -0.00000000000E+00 -0.50678038867E+03  0.50678038867E+03  0.00000000000E+00 0.  1.
         24    2    1    2    0    0 -0.14488969409E+03 -0.21162380748E+03 -0.26717668113E+03  0.37889777902E+03  0.80015552617E+02 0.  0.
        254    2    1    2    0    0  0.14488969409E+03  0.21162380748E+03  0.10086417373E+04  0.13761280545E+04  0.90032916691E+03 0.  0.
         23    2    4    4    0    0 -0.46506637410E+02  0.51120309504E+03  0.79721308126E+03  0.95249254074E+03  0.90564184622E+02 0.  0.
         23    2    4    4    0    0  0.19139633150E+03 -0.29957928755E+03  0.21142865604E+03  0.42363551375E+03  0.91567825548E+02 0.  0.
          2    1    3    3  502    0 -0.24626279644E+00 -0.12672318210E+02 -0.47320205647E+02  0.48988265499E+02  0.00000000000E+00 0. -1.
         -1    1    3    3    0  502 -0.14464343129E+03 -0.19895148927E+03 -0.21985647548E+03  0.32990951352E+03  0.00000000000E+00 0.  1.
         11    1    5    5    0    0  0.15489311030E+02  0.13530451448E+03  0.16038807065E+03  0.21040808825E+03  0.00000000000E+00 0. -1.
        -11    1    5    5    0    0 -0.61995948440E+02  0.37589858056E+03  0.63682501061E+03  0.74208445249E+03  0.00000000000E+00 0.  1.
          4    1    6    6  503    0 -0.39770325782E+00 -0.34645439842E+02  0.44595341343E+02  0.56473083316E+02  0.00000000000E+00 0. -1.
         -4    1    6    6    0  503  0.19179403476E+03 -0.26493384771E+03  0.16683331470E+03  0.36716243044E+03  0.00000000000E+00 0.  1.
<mgrwt>
<rscale>  0 0.15907059E+04</rscale>
<asrwt>0</asrwt>
<pdfrwt beam="1">  1        2 0.19203776E+00 0.15907059E+04</pdfrwt>
<pdfrwt beam="2">  1       -1 0.77966214E-01 0.15907059E+04</pdfrwt>
<totfact> 0.31963862E+01</totfact>
</mgrwt>
</event>
<event>
12    6  0.1556619E-007  0.1531259E+04  0.7818608E-02  0.8863928E-01
          2   -1    0    0  501    0  0.00000000000E+00  0.00000000000E+00  0.15412959315E+04  0.15412959315E+04  0.00000000000E+00 0. -1.
         -1   -1    0    0    0  501 -0.00000000000E+00 -0.00000000000E+00 -0.38032197578E+03  0.38032197578E+03  0.00000000000E+00 0.  1.
         24    2    1    2    0    0 -0.40412363085E+03  0.97506713098E+02  0.45280389119E+02  0.42588946534E+03  0.80672516593E+02 0.  0.
        254    2    1    2    0    0  0.40412363085E+03 -0.97506713098E+02  0.11156935666E+04  0.14957284419E+04  0.90532202521E+03 0.  0.
         23    2    4    4    0    0  0.14382935033E+03  0.34444947221E+03  0.79614721369E+03  0.88445860680E+03  0.95311700988E+02 0.  0.
         23    2    4    4    0    0  0.26029428053E+03 -0.44195618531E+03  0.31954635287E+03  0.61126983510E+03  0.91992159813E+02 0.  0.
          4    1    3    3  502    0 -0.24664588697E+03  0.96169206971E+02  0.12472971821E+02  0.26502506477E+03  0.00000000000E+00 0. -1.
         -3    1    3    3    0  502 -0.15747774388E+03  0.13375061271E+01  0.32807417297E+02  0.16086440057E+03  0.00000000000E+00 0.  1.
         11    1    5    5    0    0  0.68011818025E+02  0.25335600147E+03  0.48310153880E+03  0.54972899475E+03  0.00000000000E+00 0. -1.
        -11    1    5    5    0    0  0.75817532305E+02  0.91093470742E+02  0.31304567489E+03  0.33472961205E+03  0.00000000000E+00 0.  1.
          2    1    6    6  503    0  0.24619620177E+03 -0.35885412731E+03  0.28482117979E+03  0.52010764166E+03  0.00000000000E+00 0. -1.
         -2    1    6    6    0  503  0.14098078759E+02 -0.83102058004E+02  0.34725173075E+02  0.91162193448E+02  0.00000000000E+00 0.  1.
<mgrwt>
<rscale>  0 0.15312592E+04</rscale>
<asrwt>0</asrwt>
<pdfrwt beam="1">  1        2 0.23712245E+00 0.15312592E+04</pdfrwt>
<pdfrwt beam="2">  1       -1 0.58511074E-01 0.15312592E+04</pdfrwt>
<totfact> 0.39111068E+01</totfact>
</mgrwt>
</event>
<event>
12    6  0.1556619E-007  0.3251872E+04  0.7818608E-02  0.8175251E-01
         -1   -1    0    0    0  501 -0.00000000000E+00  0.00000000000E+00  0.72993704133E+03  0.72993704133E+03  0.00000000000E+00 0.  1.
          2   -1    0    0  501    0  0.00000000000E+00 -0.00000000000E+00 -0.36217752200E+04  0.36217752200E+04  0.00000000000E+00 0. -1.
         24    2    1    2    0    0 -0.96696960089E+03  0.10252379628E+04 -0.20665507045E+04  0.25026132107E+04  0.79359805777E+02 0.  0.
        254    2    1    2    0    0  0.96696960089E+03 -0.10252379628E+04 -0.82528747418E+03  0.18490990506E+04  0.86713597241E+03 0.  0.
         23    2    4    4    0    0  0.15309810231E+03 -0.71556038020E+03 -0.17292223982E+03  0.75726285495E+03  0.89884613896E+02 0.  0.
         23    2    4    4    0    0  0.81387149858E+03 -0.30967758257E+03 -0.65236523435E+03  0.10918361957E+04  0.90768154431E+02 0.  0.
          4    1    3    3  502    0 -0.67567737293E+03  0.71986933623E+03 -0.15107411651E+04  0.18047411564E+04  0.00000000000E+00 0. -1.
         -3    1    3    3    0  502 -0.29129222796E+03  0.30536862655E+03 -0.55580953940E+03  0.69787205435E+03  0.00000000000E+00 0.  1.
         11    1    5    5    0    0  0.72542404350E+02 -0.48723768758E+03 -0.86260078034E+02  0.50010375492E+03  0.00000000000E+00 0. -1.
        -11    1    5    5    0    0  0.80555697960E+02 -0.22832269263E+03 -0.86662161789E+02  0.25715910003E+03  0.00000000000E+00 0.  1.
          1    1    6    6  503    0  0.65232989870E+03 -0.28314233320E+03 -0.54675555724E+03  0.89702035482E+03  0.00000000000E+00 0. -1.
         -1    1    6    6    0  503  0.16154159988E+03 -0.26535249379E+02 -0.10560967711E+03  0.19481584086E+03  0.00000000000E+00 0.  1.
<mgrwt>
<rscale>  0 0.32518720E+04</rscale>
<asrwt>0</asrwt>
<pdfrwt beam="1">  1        2 0.55719619E+00 0.32518720E+04</pdfrwt>
<pdfrwt beam="2">  1       -1 0.11229801E+00 0.32518720E+04</pdfrwt>
<totfact> 0.45993933E-01</totfact>
</mgrwt>
</event>
<event>
12    6  0.1556619E-007  0.2368630E+04  0.7818608E-02  0.8451342E-01
          2   -1    0    0  501    0  0.00000000000E+00  0.00000000000E+00  0.13946970050E+04  0.13946970050E+04  0.00000000000E+00 0. -1.
         -1   -1    0    0    0  501 -0.00000000000E+00 -0.00000000000E+00 -0.10056683111E+04  0.10056683111E+04  0.00000000000E+00 0.  1.
         24    2    1    2    0    0 -0.94733565817E+03 -0.11403693514E+03  0.51508525869E+03  0.10876126508E+04  0.84493683466E+02 0.  0.
        254    2    1    2    0    0  0.94733565817E+03  0.11403693514E+03 -0.12605656471E+03  0.13127526654E+04  0.89273738083E+03 0.  0.
         23    2    4    4    0    0  0.36273428279E+03  0.32273914221E+03  0.27813243983E+03  0.56678841610E+03  0.90303603027E+02 0.  0.
         23    2    4    4    0    0  0.58460137538E+03 -0.20870220708E+03 -0.40418900454E+03  0.74596424927E+03  0.88195977578E+02 0.  0.
          4    1    3    3  502    0 -0.91119341807E+03 -0.94712737872E+02  0.48346577246E+03  0.10358489760E+04  0.00000000000E+00 0. -1.
         -3    1    3    3    0  502 -0.36142240101E+02 -0.19324197263E+02  0.31619486221E+02  0.51763674795E+02  0.00000000000E+00 0.  1.
         11    1    5    5    0    0  0.48216806251E+02  0.25455592709E+02  0.43887264181E+01  0.54700169331E+02  0.00000000000E+00 0.  1.
        -11    1    5    5    0    0  0.31451747654E+03  0.29728354950E+03  0.27374371341E+03  0.51208824677E+03  0.00000000000E+00 0. -1.
          1    1    6    6  503    0  0.30576941112E+03 -0.10737535136E+03 -0.26321857607E+03  0.41750259597E+03  0.00000000000E+00 0.  1.
         -1    1    6    6    0  503  0.27883196426E+03 -0.10132685572E+03 -0.14097042848E+03  0.32846165330E+03  0.00000000000E+00 0. -1.
<mgrwt>
<rscale>  0 0.23686305E+04</rscale>
<asrwt>0</asrwt>
<pdfrwt beam="1">  1        2 0.21456877E+00 0.23686305E+04</pdfrwt>
<pdfrwt beam="2">  1       -1 0.15471820E+00 0.23686305E+04</pdfrwt>
<totfact> 0.48009186E+00</totfact>
</mgrwt>
</event>
<event>
12    6  0.1556619E-007  0.1763275E+04  0.7818608E-02  0.8726077E-01
          2   -1    0    0  501    0  0.00000000000E+00  0.00000000000E+00  0.15497423496E+04  0.15497423496E+04  0.00000000000E+00 0. -1.
         -1   -1    0    0    0  501 -0.00000000000E+00 -0.00000000000E+00 -0.50155753987E+03  0.50155753987E+03  0.00000000000E+00 0.  1.
         24    2    1    2    0    0 -0.18883521422E+03 -0.57873995961E+03  0.66098047099E+03  0.90267153121E+03  0.85568868436E+02 0.  0.
        254    2    1    2    0    0  0.18883521422E+03  0.57873995961E+03  0.38720433870E+03  0.11486283582E+04  0.89376799362E+03 0.  0.
         23    2    4    4    0    0  0.50666739917E+03  0.42197469092E+03  0.40996126235E+03  0.78293348674E+03  0.10070806754E+03 0.  0.
         23    2    4    4    0    0 -0.31783218495E+03  0.15676526868E+03 -0.22756923656E+02  0.36569487147E+03  0.87305293034E+02 0.  0.
          2    1    3    3  502    0 -0.10606863053E+03 -0.43946876972E+03  0.50465166273E+03  0.67753719797E+03  0.00000000000E+00 0. -1.
         -1    1    3    3    0  502 -0.82766583691E+02 -0.13927118989E+03  0.15632880826E+03  0.22513433323E+03  0.00000000000E+00 0.  1.
         11    1    5    5    0    0  0.43271070813E+03  0.38689449198E+03  0.38797756450E+03  0.69817798262E+03  0.00000000000E+00 0. -1.
        -11    1    5    5    0    0  0.73956691042E+02  0.35080198940E+02  0.21983697847E+02  0.84755504119E+02  0.00000000000E+00 0.  1.
          1    1    6    6  503    0 -0.21512475590E+03  0.58747037591E+02 -0.12523519448E+02  0.22335333794E+03  0.00000000000E+00 0. -1.
         -1    1    6    6    0  503 -0.10270742905E+03  0.98018231091E+02 -0.10233404208E+02  0.14234153354E+03  0.00000000000E+00 0.  1.
<mgrwt>
<rscale>  0 0.17632753E+04</rscale>
<asrwt>0</asrwt>
<pdfrwt beam="1">  1        2 0.23842190E+00 0.17632753E+04</pdfrwt>
<pdfrwt beam="2">  1       -1 0.77162699E-01 0.17632753E+04</pdfrwt>
<totfact> 0.21620098E+01</totfact>
</mgrwt>
</event>
<event>
12    6  0.1556619E-007  0.1641522E+04  0.7818608E-02  0.8795438E-01
         -1   -1    0    0    0  501 -0.00000000000E+00  0.00000000000E+00  0.56955831408E+03  0.56955831408E+03  0.00000000000E+00 0.  1.
          2   -1    0    0  501    0  0.00000000000E+00 -0.00000000000E+00 -0.11827568043E+04  0.11827568043E+04  0.00000000000E+00 0. -1.
         24    2    1    2    0    0  0.33108985118E+03 -0.42368435482E+03 -0.40994543745E+03  0.68065603240E+03  0.78156577993E+02 0.  0.
        254    2    1    2    0    0 -0.33108985118E+03  0.42368435482E+03 -0.20325305273E+03  0.10716590859E+04  0.90444041870E+03 0.  0.
         23    2    4    4    0    0 -0.50753464947E+03  0.45963164247E+03 -0.39295502214E+03  0.79475904991E+03  0.91518472549E+02 0.  0.
         23    2    4    4    0    0  0.17644479829E+03 -0.35947287647E+02  0.18970196941E+03  0.27690003604E+03  0.90894545634E+02 0.  0.
          4    1    3    3  502    0  0.21236343465E+03 -0.29422669114E+03 -0.31751431540E+03  0.48216482103E+03  0.00000000000E+00 0. -1.
         -3    1    3    3    0  502  0.11872641653E+03 -0.12945766368E+03 -0.92431122049E+02  0.19849121137E+03  0.00000000000E+00 0.  1.
         11    1    5    5    0    0 -0.30651465956E+03  0.31428294610E+03 -0.29022452289E+03  0.52626540873E+03  0.00000000000E+00 0.  1.
        -11    1    5    5    0    0 -0.20101998991E+03  0.14534869637E+03 -0.10273049924E+03  0.26849364118E+03  0.00000000000E+00 0. -1.
          3    1    6    6  503    0  0.10690368170E+03 -0.26675585662E+02  0.50889645162E+02  0.12136614032E+03  0.00000000000E+00 0. -1.
         -3    1    6    6    0  503  0.69541116596E+02 -0.92717019847E+01  0.13881232424E+03  0.15553389572E+03  0.00000000000E+00 0.  1.
<mgrwt>
<rscale>  0 0.16415224E+04</rscale>
<asrwt>0</asrwt>
<pdfrwt beam="1">  1        2 0.18196258E+00 0.16415224E+04</pdfrwt>
<pdfrwt beam="2">  1       -1 0.87624357E-01 0.16415224E+04</pdfrwt>
<totfact> 0.27092879E+01</totfact>
</mgrwt>
</event>
<event>
12    6  0.1556619E-007  0.1529712E+04  0.7818608E-02  0.8864932E-01
         -1   -1    0    0    0  501 -0.00000000000E+00  0.00000000000E+00  0.27812931758E+03  0.27812931758E+03  0.00000000000E+00 0.  1.
          2   -1    0    0  501    0  0.00000000000E+00 -0.00000000000E+00 -0.21033548198E+04  0.21033548198E+04  0.00000000000E+00 0. -1.
         24    2    1    2    0    0 -0.47919515997E+03 -0.59874223065E+02 -0.71575626269E+03  0.86718756994E+03  0.80587405735E+02 0.  0.
        254    2    1    2    0    0  0.47919515997E+03  0.59874223065E+02 -0.11094692395E+04  0.15142965674E+04  0.91047195275E+03 0.  0.
         23    2    4    4    0    0 -0.21915299976E+03  0.45749377052E+01 -0.57439299149E+02  0.24711351088E+03  0.98574067638E+02 0.  0.
         23    2    4    4    0    0  0.69834815973E+03  0.55299285359E+02 -0.10520299404E+04  0.12671830565E+04  0.90761997549E+02 0.  0.
          2    1    3    3  502    0 -0.47869567000E+03 -0.66078577305E+02 -0.70412053753E+03  0.85399160079E+03  0.00000000000E+00 0. -1.
         -1    1    3    3    0  502 -0.49948996328E+00  0.62043542405E+01 -0.11635725160E+02  0.13195969148E+02  0.00000000000E+00 0.  1.
         11    1    5    5    0    0 -0.21026039425E+03  0.10688579483E+02 -0.23903908904E+02  0.21188458175E+03  0.00000000000E+00 0. -1.
        -11    1    5    5    0    0 -0.88926055126E+01 -0.61136417781E+01 -0.33535390246E+02  0.35228929128E+02  0.00000000000E+00 0.  1.
          2    1    6    6  503    0  0.67589827409E+03  0.69633600471E+02 -0.10187477141E+04  0.12245547029E+04  0.00000000000E+00 0. -1.
         -2    1    6    6    0  503  0.22449885634E+02 -0.14334315112E+02 -0.33282226229E+02  0.42628353680E+02  0.00000000000E+00 0.  1.
<mgrwt>
<rscale>  0 0.15297119E+04</rscale>
<asrwt>0</asrwt>
<pdfrwt beam="1">  1        2 0.32359304E+00 0.15297119E+04</pdfrwt>
<pdfrwt beam="2">  1       -1 0.42789126E-01 0.15297119E+04</pdfrwt>
<totfact> 0.34577757E+01</totfact>
</mgrwt>
</event>
<event>
12    6  0.1556619E-007  0.3047919E+04  0.7818608E-02  0.8230178E-01
         -1   -1    0    0    0  501 -0.00000000000E+00  0.00000000000E+00  0.12412167074E+04  0.12412167074E+04  0.00000000000E+00 0.  1.
          2   -1    0    0  501    0  0.00000000000E+00 -0.00000000000E+00 -0.18711096182E+04  0.18711096182E+04  0.00000000000E+00 0. -1.
         24    2    1    2    0    0  0.50316979484E+03 -0.10850743428E+04 -0.10119385782E+04  0.15687098724E+04  0.79150525912E+02 0.  0.
        254    2    1    2    0    0 -0.50316979484E+03  0.10850743428E+04  0.38204566739E+03  0.15436164532E+04  0.89790126999E+03 0.  0.
         23    2    4    4    0    0 -0.36566221458E+03  0.62127969562E+03 -0.22517337747E+03  0.76081966833E+03  0.91903223236E+02 0.  0.
         23    2    4    4    0    0 -0.13750758026E+03  0.46379464722E+03  0.60721904485E+03  0.78279678485E+03  0.10020992230E+03 0.  0.
          4    1    3    3  502    0  0.35075494933E+03 -0.66679807840E+03 -0.62764542800E+03  0.98060567769E+03  0.00000000000E+00 0. -1.
         -3    1    3    3    0  502  0.15241484550E+03 -0.41827626444E+03 -0.38429315021E+03  0.58810419469E+03  0.00000000000E+00 0.  1.
         11    1    5    5    0    0 -0.20896810830E+03  0.41992526157E+03 -0.17602391266E+03  0.50098833661E+03  0.00000000000E+00 0. -1.
        -11    1    5    5    0    0 -0.15669410627E+03  0.20135443405E+03 -0.49149464804E+02  0.25983133172E+03  0.00000000000E+00 0.  1.
          2    1    6    6  503    0 -0.10265776899E+03  0.41650007030E+03  0.48694905251E+03  0.64894553380E+03  0.00000000000E+00 0. -1.
         -2    1    6    6    0  503 -0.34849811266E+02  0.47294576918E+02  0.12026999234E+03  0.13385125105E+03  0.00000000000E+00 0.  1.
<mgrwt>
<rscale>  0 0.30479190E+04</rscale>
<asrwt>0</asrwt>
<pdfrwt beam="1">  1        2 0.28786302E+00 0.30479190E+04</pdfrwt>
<pdfrwt beam="2">  1       -1 0.19095642E+00 0.30479190E+04</pdfrwt>
<totfact> 0.13300008E+00</totfact>
</mgrwt>
</event>
<event>
12    6  0.1556619E-007  0.1870378E+04  0.7818608E-02  0.8669743E-01
         -1   -1    0    0    0  501 -0.00000000000E+00  0.00000000000E+00  0.37176205221E+03  0.37176205221E+03  0.00000000000E+00 0.  1.
          2   -1    0    0  501    0  0.00000000000E+00 -0.00000000000E+00 -0.23525227099E+04  0.23525227099E+04  0.00000000000E+00 0. -1.
         24    2    1    2    0    0 -0.50729594941E+02 -0.67942304242E+03 -0.10536732539E+04  0.12572990973E+04  0.79903264433E+02 0.  0.
        254    2    1    2    0    0  0.50729594941E+02  0.67942304242E+03 -0.92708740378E+03  0.14669856648E+04  0.91014653994E+03 0.  0.
         23    2    4    4    0    0  0.31762000192E+03  0.39206094011E+03 -0.66565670176E+02  0.51713337162E+03  0.91660728892E+02 0.  0.
         23    2    4    4    0    0 -0.26689040697E+03  0.28736210231E+03 -0.86052173360E+03  0.94985229320E+03  0.88962113930E+02 0.  0.
          4    1    3    3  502    0 -0.60404956078E+01 -0.38414087757E+03 -0.65194488502E+03  0.75672507195E+03  0.00000000000E+00 0. -1.
         -3    1    3    3    0  502 -0.44689099333E+02 -0.29528216485E+03 -0.40172836887E+03  0.50057402533E+03  0.00000000000E+00 0.  1.
         11    1    5    5    0    0  0.31368117925E+03  0.34857020600E+03 -0.56535793783E+02  0.47232760528E+03  0.00000000000E+00 0. -1.
        -11    1    5    5    0    0  0.39388226666E+01  0.43490734108E+02 -0.10029876393E+02  0.44805766345E+02  0.00000000000E+00 0.  1.
          1    1    6    6  503    0 -0.14748133196E+03  0.15900799159E+03 -0.36913057339E+03  0.42812575825E+03  0.00000000000E+00 0. -1.
         -1    1    6    6    0  503 -0.11940907502E+03  0.12835411071E+03 -0.49139116022E+03  0.52172653495E+03  0.00000000000E+00 0.  1.
<mgrwt>
<rscale>  0 0.18703782E+04</rscale>
<asrwt>0</asrwt>
<pdfrwt beam="1">  1        2 0.36192657E+00 0.18703782E+04</pdfrwt>
<pdfrwt beam="2">  1       -1 0.57194162E-01 0.18703782E+04</pdfrwt>
<totfact> 0.14009313E+01</totfact>
</mgrwt>
</event>
<event>
12    6  0.1556619E-007  0.1584432E+04  0.7818608E-02  0.8830169E-01
          2   -1    0    0  501    0  0.00000000000E+00  0.00000000000E+00  0.27911025399E+04  0.27911025399E+04  0.00000000000E+00 0. -1.
         -1   -1    0    0    0  501 -0.00000000000E+00 -0.00000000000E+00 -0.22485962740E+03  0.22485962740E+03  0.00000000000E+00 0.  1.
         24    2    1    2    0    0 -0.25459734464E+03 -0.36570095636E+03  0.14283816932E+04  0.14984902167E+04  0.81496446333E+02 0.  0.
        254    2    1    2    0    0  0.25459734464E+03  0.36570095636E+03  0.11378612193E+04  0.15174719506E+04  0.89968659489E+03 0.  0.
         23    2    4    4    0    0  0.29576914584E+03  0.55599583770E+03  0.40711157159E+03  0.75555830545E+03  0.92291722488E+02 0.  0.
         23    2    4    4    0    0 -0.41171801203E+02 -0.19029488133E+03  0.73074964772E+03  0.76191364514E+03  0.92790602605E+02 0.  0.
          4    1    3    3  502    0 -0.19544420862E+03 -0.27929110101E+03  0.96546999683E+03  0.10238819622E+04  0.00000000000E+00 0. -1.
         -3    1    3    3    0  502 -0.59153136014E+02 -0.86409855351E+02  0.46291169639E+03  0.47460825452E+03  0.00000000000E+00 0.  1.
         11    1    5    5    0    0  0.23046384506E+03  0.34024751547E+03  0.27015860182E+03  0.49180039223E+03  0.00000000000E+00 0. -1.
        -11    1    5    5    0    0  0.65305300780E+02  0.21574832223E+03  0.13695296977E+03  0.26375791321E+03  0.00000000000E+00 0.  1.
          3    1    6    6  503    0 -0.46060478460E+02 -0.76287270304E+02  0.45218235403E+03  0.46087980709E+03  0.00000000000E+00 0. -1.
         -3    1    6    6    0  503  0.48886772562E+01 -0.11400761103E+03  0.27856729368E+03  0.30103383805E+03  0.00000000000E+00 0.  1.
<mgrwt>
<rscale>  0 0.15844321E+04</rscale>
<asrwt>0</asrwt>
<pdfrwt beam="1">  1        2 0.42940037E+00 0.15844321E+04</pdfrwt>
<pdfrwt beam="2">  1       -1 0.34593791E-01 0.15844321E+04</pdfrwt>
<totfact> 0.20369374E+01</totfact>
</mgrwt>
</event>
<event>
12    6  0.1556619E-007  0.1316639E+04  0.7818608E-02  0.9016473E-01
          2   -1    0    0  501    0  0.00000000000E+00  0.00000000000E+00  0.13208342247E+04  0.13208342247E+04  0.00000000000E+00 0. -1.
         -1   -1    0    0    0  501 -0.00000000000E+00 -0.00000000000E+00 -0.32811429003E+03  0.32811429003E+03  0.00000000000E+00 0.  1.
         24    2    1    2    0    0 -0.44908979531E+02  0.71198137883E+02 -0.13185234801E+03  0.17568393134E+03  0.79961307978E+02 0.  0.
        254    2    1    2    0    0  0.44908979531E+02 -0.71198137883E+02  0.11245722827E+04  0.14732645834E+04  0.94802938905E+03 0.  0.
         23    2    4    4    0    0 -0.24192360259E-01  0.27359396898E+03 -0.46334641805E+01  0.28838225570E+03  0.91045021651E+02 0.  0.
         23    2    4    4    0    0  0.44933171891E+02 -0.34479210686E+03  0.11292057469E+04  0.11848823277E+04  0.89106256128E+02 0.  0.
          2    1    3    3  502    0  0.40089353469E+01 -0.76511348596E+01  0.52682064691E+01  0.10117580079E+02  0.00000000000E+00 0. -1.
         -1    1    3    3    0  502 -0.48917914878E+02  0.78849272742E+02 -0.13712055448E+03  0.16556635126E+03  0.00000000000E+00 0.  1.
         11    1    5    5    0    0 -0.40191291807E+02  0.10381615885E+03 -0.20505237462E+02  0.11319717107E+03  0.00000000000E+00 0. -1.
        -11    1    5    5    0    0  0.40167099447E+02  0.16977781012E+03  0.15871773281E+02  0.17518508463E+03  0.00000000000E+00 0.  1.
          3    1    6    6  503    0  0.40848903084E+02 -0.29713110983E+03  0.84432918067E+03  0.89601746336E+03  0.00000000000E+00 0. -1.
         -3    1    6    6    0  503  0.40842688074E+01 -0.47660997025E+02  0.28487656624E+03  0.28886486439E+03  0.00000000000E+00 0.  1.
<mgrwt>
<rscale>  0 0.13166390E+04</rscale>
<asrwt>0</asrwt>
<pdfrwt beam="1">  1        2 0.20320526E+00 0.13166390E+04</pdfrwt>
<pdfrwt beam="2">  1       -1 0.50479122E-01 0.13166390E+04</pdfrwt>
<totfact> 0.70692935E+01</totfact>
</mgrwt>
</event>
<event>
12    6  0.1556619E-007  0.1551823E+04  0.7818608E-02  0.8850704E-01
         -1   -1    0    0    0  501 -0.00000000000E+00  0.00000000000E+00  0.24362289302E+03  0.24362289302E+03  0.00000000000E+00 0.  1.
          2   -1    0    0  501    0  0.00000000000E+00 -0.00000000000E+00 -0.24711903876E+04  0.24711903876E+04  0.00000000000E+00 0. -1.
         24    2    1    2    0    0  0.30145132780E+03 -0.10580957070E+03 -0.51726089328E+02  0.33282211815E+03  0.77629928028E+02 0.  0.
        254    2    1    2    0    0 -0.30145132780E+03  0.10580957070E+03 -0.21758414052E+04  0.23819911625E+04  0.91516529053E+03 0.  0.
         23    2    4    4    0    0 -0.25627831435E+03 -0.31963735115E+03 -0.51703650515E+03  0.66648437405E+03  0.95016117280E+02 0.  0.
         23    2    4    4    0    0 -0.45173013456E+02  0.42544692185E+03 -0.16588049001E+04  0.17155067884E+04  0.91017361294E+02 0.  0.
          4    1    3    3  502    0  0.67263981371E+02  0.91715960675E+01 -0.10786407365E+02  0.68737965842E+02  0.00000000000E+00 0. -1.
         -3    1    3    3    0  502  0.23418734643E+03 -0.11498116676E+03 -0.40939681963E+02  0.26408415231E+03  0.00000000000E+00 0.  1.
         11    1    5    5    0    0 -0.90587958577E+02 -0.12592710048E+03 -0.27072017410E+03  0.31201478417E+03  0.00000000000E+00 0.  1.
        -11    1    5    5    0    0 -0.16569035577E+03 -0.19371025068E+03 -0.24631633104E+03  0.35446958988E+03  0.00000000000E+00 0. -1.
          3    1    6    6  503    0 -0.80446950330E+01  0.65967257489E+02 -0.41412773765E+03  0.41942601167E+03  0.00000000000E+00 0. -1.
         -3    1    6    6    0  503 -0.37128318423E+02  0.35947966436E+03 -0.12446771624E+04  0.12960807767E+04  0.00000000000E+00 0.  1.
<mgrwt>
<rscale>  0 0.15518229E+04</rscale>
<asrwt>0</asrwt>
<pdfrwt beam="1">  1        2 0.38018313E+00 0.15518229E+04</pdfrwt>
<pdfrwt beam="2">  1       -1 0.37480446E-01 0.15518229E+04</pdfrwt>
<totfact> 0.27252869E+01</totfact>
</mgrwt>
</event>
<event>
12    6  0.1556619E-007  0.2421385E+04  0.7818608E-02  0.8431540E-01
          2   -1    0    0  501    0  0.00000000000E+00  0.00000000000E+00  0.21727746836E+04  0.21727746836E+04  0.00000000000E+00 0. -1.
         -1   -1    0    0    0  501 -0.00000000000E+00 -0.00000000000E+00 -0.67461057530E+03  0.67461057530E+03  0.00000000000E+00 0.  1.
         24    2    1    2    0    0  0.33862771191E+03 -0.27696198541E+03  0.17560776406E+04  0.18114762226E+04  0.79124942453E+02 0.  0.
        254    2    1    2    0    0 -0.33862771191E+03  0.27696198541E+03 -0.25791353229E+03  0.10359090363E+04  0.90289062062E+03 0.  0.
         23    2    4    4    0    0  0.35438132130E+02  0.40692178949E+03 -0.42368256578E+03  0.59702816351E+03  0.10047142635E+03 0.  0.
         23    2    4    4    0    0 -0.37406584404E+03 -0.12995980408E+03  0.16576903349E+03  0.43888087283E+03  0.91226321421E+02 0.  0.
          4    1    3    3  502    0  0.32435726037E+03 -0.23583231573E+03  0.15841082400E+04  0.16340818307E+04  0.00000000000E+00 0. -1.
         -3    1    3    3    0  502  0.14270451533E+02 -0.41129669683E+02  0.17196940064E+03  0.17739439189E+03  0.00000000000E+00 0.  1.
         11    1    5    5    0    0  0.53566196863E+02  0.10311757264E+03 -0.12269616618E+03  0.16898792983E+03  0.00000000000E+00 0. -1.
        -11    1    5    5    0    0 -0.18128064732E+02  0.30380421685E+03 -0.30098639959E+03  0.42804023368E+03  0.00000000000E+00 0.  1.
          1    1    6    6  503    0 -0.31596904777E+03 -0.82501360842E+02  0.15997312547E+03  0.36364036432E+03  0.00000000000E+00 0. -1.
         -1    1    6    6    0  503 -0.58096796272E+02 -0.47458443236E+02  0.57959080146E+01  0.75240508512E+02  0.00000000000E+00 0.  1.
<mgrwt>
<rscale>  0 0.24213854E+04</rscale>
<asrwt>0</asrwt>
<pdfrwt beam="1">  1        2 0.33427302E+00 0.24213854E+04</pdfrwt>
<pdfrwt beam="2">  1       -1 0.10378624E+00 0.24213854E+04</pdfrwt>
<totfact> 0.47780937E+00</totfact>
</mgrwt>
</event>
<event>
12    6  0.1556619E-007  0.4119189E+04  0.7818608E-02  0.7980925E-01
          2   -1    0    0  501    0  0.00000000000E+00  0.00000000000E+00  0.15179089565E+04  0.15179089565E+04  0.00000000000E+00 0. -1.
         -1   -1    0    0    0  501 -0.00000000000E+00 -0.00000000000E+00 -0.27945876740E+04  0.27945876740E+04  0.00000000000E+00 0.  1.
         24    2    1    2    0    0 -0.12104002376E+04 -0.97277059626E+03  0.64259969551E+03  0.16825237300E+04  0.81242630980E+02 0.  0.
        254    2    1    2    0    0  0.12104002376E+04  0.97277059626E+03 -0.19192784131E+04  0.26299729005E+04  0.90651887040E+03 0.  0.
         23    2    4    4    0    0  0.20988788196E+03 -0.15539831853E+03 -0.41016486426E+03  0.49464705999E+03  0.90768594184E+02 0.  0.
         23    2    4    4    0    0  0.10005123557E+04  0.11281689148E+04 -0.15091135488E+04  0.21353258405E+04  0.91666067170E+02 0.  0.
          2    1    3    3  502    0 -0.11310027859E+04 -0.88744712792E+03  0.57977372311E+03  0.15501184718E+04  0.00000000000E+00 0. -1.
         -1    1    3    3    0  502 -0.79397451740E+02 -0.85323468333E+02  0.62825972399E+02  0.13240525820E+03  0.00000000000E+00 0.  1.
         11    1    5    5    0    0  0.14256518344E+03 -0.15271894848E+03 -0.30230035175E+03  0.36746892580E+03  0.00000000000E+00 0.  1.
        -11    1    5    5    0    0  0.67322698517E+02 -0.26793700502E+01 -0.10786451251E+03  0.12717813420E+03  0.00000000000E+00 0. -1.
          3    1    6    6  503    0  0.25819846488E+03  0.35379932957E+03 -0.43805755865E+03  0.61946334642E+03  0.00000000000E+00 0. -1.
         -3    1    6    6    0  503  0.74231389078E+03  0.77436958522E+03 -0.10710559902E+04  0.15158624941E+04  0.00000000000E+00 0.  1.
<mgrwt>
<rscale>  0 0.41191891E+04</rscale>
<asrwt>0</asrwt>
<pdfrwt beam="1">  1        2 0.23352445E+00 0.41191891E+04</pdfrwt>
<pdfrwt beam="2">  1       -1 0.42993657E+00 0.41191891E+04</pdfrwt>
<totfact> 0.49125624E-02</totfact>
</mgrwt>
</event>
<event>
12    6  0.1556619E-007  0.1793047E+04  0.7818608E-02  0.8710006E-01
          2   -1    0    0  501    0  0.00000000000E+00  0.00000000000E+00  0.17065982026E+04  0.17065982026E+04  0.00000000000E+00 0. -1.
         -1   -1    0    0    0  501 -0.00000000000E+00 -0.00000000000E+00 -0.47096863944E+03  0.47096863944E+03  0.00000000000E+00 0.  1.
         24    2    1    2    0    0  0.43116658104E+03 -0.26214185787E+03  0.10495556403E+04  0.11671841422E+04  0.78286686834E+02 0.  0.
        254    2    1    2    0    0 -0.43116658104E+03  0.26214185787E+03  0.18607392284E+03  0.10103826999E+04  0.85535181136E+03 0.  0.
         23    2    4    4    0    0  0.14430839689E+03  0.16346901116E+03  0.32648356778E+03  0.40292524132E+03  0.90610148650E+02 0.  0.
         23    2    4    4    0    0 -0.57547497793E+03  0.98672846709E+02 -0.14040964494E+03  0.60745745856E+03  0.91552797126E+02 0.  0.
          4    1    3    3  502    0  0.19338976024E+03 -0.14473009076E+03  0.57261457744E+03  0.62147715391E+03  0.00000000000E+00 0. -1.
         -3    1    3    3    0  502  0.23777682080E+03 -0.11741176711E+03  0.47694106288E+03  0.54570698825E+03  0.00000000000E+00 0.  1.
         11    1    5    5    0    0  0.15158949620E+03  0.16835443078E+03  0.30680452107E+03  0.38138117923E+03  0.00000000000E+00 0. -1.
        -11    1    5    5    0    0 -0.72810993035E+01 -0.48854196224E+01  0.19679046706E+02  0.21544062087E+02  0.00000000000E+00 0.  1.
          1    1    6    6  503    0 -0.33425830435E+03  0.58972924247E+02 -0.12775762592E+03  0.36266848609E+03  0.00000000000E+00 0. -1.
         -1    1    6    6    0  503 -0.24121667358E+03  0.39699922462E+02 -0.12652019021E+02  0.24478897247E+03  0.00000000000E+00 0.  1.
<mgrwt>
<rscale>  0 0.17930468E+04</rscale>
<asrwt>0</asrwt>
<pdfrwt beam="1">  1        2 0.26255357E+00 0.17930468E+04</pdfrwt>
<pdfrwt beam="2">  1       -1 0.72456714E-01 0.17930468E+04</pdfrwt>
<totfact> 0.20101698E+01</totfact>
</mgrwt>
</event>
<event>
12    6  0.1556619E-007  0.2473941E+04  0.7818608E-02  0.8412328E-01
          2   -1    0    0  501    0  0.00000000000E+00  0.00000000000E+00  0.24699910184E+04  0.24699910184E+04  0.00000000000E+00 0. -1.
         -1   -1    0    0    0  501 -0.00000000000E+00 -0.00000000000E+00 -0.61947454767E+03  0.61947454767E+03  0.00000000000E+00 0.  1.
         24    2    1    2    0    0  0.89614486635E+03 -0.51902136153E+03  0.11282495368E+04  0.15334637338E+04  0.78135846364E+02 0.  0.
        254    2    1    2    0    0 -0.89614486635E+03  0.51902136153E+03  0.72226693392E+03  0.15560018322E+04  0.90940276161E+03 0.  0.
         23    2    4    4    0    0 -0.67703646475E+03 -0.61658030617E+02  0.61138118799E+03  0.91883350988E+03  0.91038313495E+02 0.  0.
         23    2    4    4    0    0 -0.21910840161E+03  0.58067939215E+03  0.11088574593E+03  0.63716832234E+03  0.92145397152E+02 0.  0.
          4    1    3    3  502    0  0.86696441818E+03 -0.49564818525E+03  0.10648621328E+04  0.14598718395E+04  0.00000000000E+00 0. -1.
         -3    1    3    3    0  502  0.29180448176E+02 -0.23373176283E+02  0.63387403967E+02  0.73591894302E+02  0.00000000000E+00 0.  1.
         11    1    5    5    0    0 -0.66390102222E+03 -0.51983317340E+02  0.60887586891E+03  0.90232846366E+03  0.00000000000E+00 0.  1.
        -11    1    5    5    0    0 -0.13135442526E+02 -0.96747132765E+01  0.25053190844E+01  0.16505046230E+02  0.00000000000E+00 0. -1.
          3    1    6    6  503    0 -0.37775863442E+02  0.31791266082E+02  0.79191441949E+01  0.50004132856E+02  0.00000000000E+00 0. -1.
         -3    1    6    6    0  503 -0.18133253816E+03  0.54888812607E+03  0.10296660173E+03  0.58716418948E+03  0.00000000000E+00 0.  1.
<mgrwt>
<rscale>  0 0.24739414E+04</rscale>
<asrwt>0</asrwt>
<pdfrwt beam="1">  1        2 0.37999861E+00 0.24739414E+04</pdfrwt>
<pdfrwt beam="2">  1       -1 0.95303778E-01 0.24739414E+04</pdfrwt>
<totfact> 0.39152533E+00</totfact>
</mgrwt>
</event>
<event>
12    6  0.1556619E-007  0.3574319E+04  0.7818608E-02  0.8096400E-01
         -1   -1    0    0    0  501 -0.00000000000E+00  0.00000000000E+00  0.91450193016E+03  0.91450193016E+03  0.00000000000E+00 0.  1.
          2   -1    0    0  501    0  0.00000000000E+00 -0.00000000000E+00 -0.34925445974E+04  0.34925445974E+04  0.00000000000E+00 0. -1.
         24    2    1    2    0    0  0.43761214507E+03  0.13303754335E+04 -0.23373440290E+04  0.27260169279E+04  0.81166479628E+02 0.  0.
        254    2    1    2    0    0 -0.43761214507E+03 -0.13303754335E+04 -0.24069863823E+03  0.16810295997E+04  0.89806541912E+03 0.  0.
         23    2    4    4    0    0  0.26598288207E+02 -0.30390380464E+02  0.20423191012E+03  0.22772950434E+03  0.92298482507E+02 0.  0.
         23    2    4    4    0    0 -0.46421043328E+03 -0.12999850531E+04 -0.44493054836E+03  0.14533000954E+04  0.93088720081E+02 0.  0.
          2    1    3    3  502    0  0.43534800648E+03  0.13296885627E+04 -0.23367119248E+04  0.27235679136E+04  0.00000000000E+00 0. -1.
         -1    1    3    3    0  502  0.22641385964E+01  0.68687081828E+00 -0.63210421329E+00  0.24490142590E+01  0.00000000000E+00 0.  1.
         11    1    5    5    0    0  0.55709713217E+02  0.25135972578E+01  0.13024965249E+03  0.14168578719E+03  0.00000000000E+00 0.  1.
        -11    1    5    5    0    0 -0.29111425010E+02 -0.32903977722E+02  0.73982257629E+02  0.86043717144E+02  0.00000000000E+00 0. -1.
          1    1    6    6  503    0 -0.43321006091E+02 -0.21808578726E+03 -0.60751914859E+02  0.23049710483E+03  0.00000000000E+00 0. -1.
         -1    1    6    6    0  503 -0.42088942719E+03 -0.10818992658E+04 -0.38417863350E+03  0.12228029905E+04  0.00000000000E+00 0.  1.
<mgrwt>
<rscale>  0 0.35743188E+04</rscale>
<asrwt>0</asrwt>
<pdfrwt beam="1">  1        2 0.53731456E+00 0.35743188E+04</pdfrwt>
<pdfrwt beam="2">  1       -1 0.14069260E+00 0.35743188E+04</pdfrwt>
<totfact> 0.31510790E-01</totfact>
</mgrwt>
</event>
<event>
12    6  0.1710660E-007  0.1316739E+04  0.7818608E-02  0.9016396E-01
          2   -1    0    0  501    0  0.00000000000E+00  0.00000000000E+00  0.87006260609E+03  0.87006260609E+03  0.00000000000E+00 0. -1.
         -1   -1    0    0    0  501 -0.00000000000E+00 -0.00000000000E+00 -0.49818278843E+03  0.49818278843E+03  0.00000000000E+00 0.  1.
         24    2    1    2    0    0  0.11718293457E+03  0.64121876881E+02  0.44432204981E+03  0.47170363952E+03  0.85081045709E+02 0.  0.
        254    2    1    2    0    0 -0.11718293457E+03 -0.64121876881E+02 -0.72442232151E+02  0.89654175500E+03  0.88356991020E+03 0.  0.
         23    2    4    4    0    0 -0.47359505566E+03 -0.37582409714E+02 -0.17386894287E+03  0.51415411481E+03  0.91756908261E+02 0.  0.
         23    2    4    4    0    0  0.35641212110E+03 -0.26539467167E+02  0.10142671072E+03  0.38238764019E+03  0.90548254212E+02 0.  0.
          2    1    3    3  502    0  0.98859329635E+02  0.83756819956E+02  0.33640854367E+03  0.36049837753E+03  0.00000000000E+00 0. -1.
         -1    1    3    3    0  502  0.18323604931E+02 -0.19634943075E+02  0.10791350614E+03  0.11120526199E+03  0.00000000000E+00 0.  1.
         11    1    5    5    0    0 -0.42158827827E+02 -0.19732013829E+02 -0.41910940417E+02  0.62635820903E+02  0.00000000000E+00 0.  1.
        -11    1    5    5    0    0 -0.43143622784E+03 -0.17850395885E+02 -0.13195800246E+03  0.45151829391E+03  0.00000000000E+00 0. -1.
          1    1    6    6  503    0  0.20201984575E+03 -0.12669936518E+02  0.10532926078E+02  0.20269062114E+03  0.00000000000E+00 0. -1.
         -1    1    6    6    0  503  0.15439227535E+03 -0.13869530649E+02  0.90893784646E+02  0.17969701905E+03  0.00000000000E+00 0.  1.
<mgrwt>
<rscale>  0 0.13167387E+04</rscale>
<asrwt>0</asrwt>
<pdfrwt beam="1">  1        2 0.13385579E+00 0.13167387E+04</pdfrwt>
<pdfrwt beam="2">  1       -1 0.76643506E-01 0.13167387E+04</pdfrwt>
<totfact> 0.58694207E+01</totfact>
</mgrwt>
</event>
<event>
12    6  0.1877513E-007  0.1569366E+04  0.7818608E-02  0.8839592E-01
          4   -1    0    0  501    0  0.00000000000E+00  0.00000000000E+00  0.10307130137E+04  0.10307130137E+04  0.00000000000E+00 0. -1.
         -3   -1    0    0    0  501 -0.00000000000E+00 -0.00000000000E+00 -0.59738027791E+03  0.59738027791E+03  0.00000000000E+00 0.  1.
         24    2    1    2    0    0 -0.27949010330E+02  0.98882744206E+02  0.67888451731E+03  0.69156856987E+03  0.82607231522E+02 0.  0.
        254    2    1    2    0    0  0.27949010330E+02 -0.98882744206E+02 -0.24555178151E+03  0.93652472175E+03  0.89789973425E+03 0.  0.
         23    2    4    4    0    0 -0.28855912257E+03  0.53289774637E+02  0.19700014170E+03  0.36424541520E+03  0.88088020558E+02 0.  0.
         23    2    4    4    0    0  0.31650813290E+03 -0.15217251884E+03 -0.44255192321E+03  0.57227930655E+03  0.91200473033E+02 0.  0.
          4    1    3    3  502    0 -0.21721437292E+02  0.79321411730E+02  0.65470326906E+03  0.65984852634E+03  0.00000000000E+00 0. -1.
         -3    1    3    3    0  502 -0.62275730384E+01  0.19561332476E+02  0.24181248254E+02  0.31720043526E+02  0.00000000000E+00 0.  1.
         11    1    5    5    0    0 -0.18458857701E+03  0.73469690581E+02  0.14689343067E+03  0.24707978098E+03  0.00000000000E+00 0. -1.
        -11    1    5    5    0    0 -0.10397054556E+03 -0.20179915944E+02  0.50106711033E+02  0.11716563422E+03  0.00000000000E+00 0.  1.
          3    1    6    6  503    0  0.22242726771E+03 -0.14627947311E+03 -0.35412422710E+03  0.44302995598E+03  0.00000000000E+00 0. -1.
         -3    1    6    6    0  503  0.94080865192E+02 -0.58930457312E+01 -0.88427696111E+02  0.12924935057E+03  0.00000000000E+00 0.  1.
<mgrwt>
<rscale>  0 0.15693663E+04</rscale>
<asrwt>0</asrwt>
<pdfrwt beam="1">  1        4 0.15857123E+00 0.15693663E+04</pdfrwt>
<pdfrwt beam="2">  1       -3 0.91904658E-01 0.15693663E+04</pdfrwt>
<totfact> 0.59866192E-01</totfact>
</mgrwt>
</event>
<event>
12    6  0.1556619E-007  0.2685196E+04  0.7818608E-02  0.8339824E-01
          2   -1    0    0  501    0  0.00000000000E+00  0.00000000000E+00  0.22463870290E+04  0.22463870290E+04  0.00000000000E+00 0. -1.
         -1   -1    0    0    0  501 -0.00000000000E+00 -0.00000000000E+00 -0.80243059101E+03  0.80243059101E+03  0.00000000000E+00 0.  1.
         24    2    1    2    0    0  0.71920199645E+03 -0.75373851973E+03  0.12818540656E+04  0.16539013115E+04  0.82863952871E+02 0.  0.
        254    2    1    2    0    0 -0.71920199645E+03  0.75373851973E+03  0.16210237235E+03  0.13949163085E+04  0.91331323261E+03 0.  0.
         23    2    4    4    0    0  0.22370171816E+02  0.58139670600E+03 -0.71486162379E+02  0.59335043160E+03  0.91825426428E+02 0.  0.
         23    2    4    4    0    0 -0.74157216827E+03  0.17234181373E+03  0.23358853473E+03  0.80156587693E+03  0.91177135245E+02 0.  0.
          2    1    3    3  502    0  0.43508357705E+03 -0.44688129770E+03  0.83008472954E+03  0.10382876632E+04  0.00000000000E+00 0. -1.
         -1    1    3    3    0  502  0.28411841940E+03 -0.30685722204E+03  0.45176933609E+03  0.61561364831E+03  0.00000000000E+00 0.  1.
         11    1    5    5    0    0  0.50044583876E+02  0.34776868825E+03 -0.16442082686E+02  0.35173550146E+03  0.00000000000E+00 0. -1.
        -11    1    5    5    0    0 -0.27674412060E+02  0.23362801775E+03 -0.55044079693E+02  0.24161493015E+03  0.00000000000E+00 0.  1.
          2    1    6    6  503    0 -0.49936685326E+03  0.12470467321E+03  0.11354041749E+03  0.52707678383E+03  0.00000000000E+00 0. -1.
         -2    1    6    6    0  503 -0.24220531501E+03  0.47637140529E+02  0.12004811724E+03  0.27448909309E+03  0.00000000000E+00 0.  1.
<mgrwt>
<rscale>  0 0.26851962E+04</rscale>
<asrwt>0</asrwt>
<pdfrwt beam="1">  1        2 0.34559800E+00 0.26851962E+04</pdfrwt>
<pdfrwt beam="2">  1       -1 0.12345086E+00 0.26851962E+04</pdfrwt>
<totfact> 0.28032339E+00</totfact>
</mgrwt>
</event>
<event>
12    6  0.1556619E-007  0.2637919E+04  0.7818608E-02  0.8355434E-01
         -1   -1    0    0    0  501 -0.00000000000E+00  0.00000000000E+00  0.88501820877E+03  0.88501820877E+03  0.00000000000E+00 0.  1.
          2   -1    0    0  501    0  0.00000000000E+00 -0.00000000000E+00 -0.19656701708E+04  0.19656701708E+04  0.00000000000E+00 0. -1.
         24    2    1    2    0    0 -0.78105152737E+03 -0.64079686559E+03  0.15004810682E+03  0.10244505430E+04  0.79513328334E+02 0.  0.
        254    2    1    2    0    0  0.78105152737E+03  0.64079686559E+03 -0.12307000689E+04  0.18262378366E+04  0.89434884964E+03 0.  0.
         23    2    4    4    0    0 -0.94380011220E+02  0.39462083998E+03 -0.24727617947E+03  0.48368439523E+03  0.90398514320E+02 0.  0.
         23    2    4    4    0    0  0.87543153859E+03  0.24617602561E+03 -0.98342388940E+03  0.13425534413E+04  0.91346495721E+02 0.  0.
          4    1    3    3  502    0 -0.22555746470E+03 -0.23300475787E+03  0.48492356285E+02  0.32790074061E+03  0.00000000000E+00 0. -1.
         -3    1    3    3    0  502 -0.55549406267E+03 -0.40779210772E+03  0.10155575054E+03  0.69654980241E+03  0.00000000000E+00 0.  1.
         11    1    5    5    0    0 -0.76432280966E+02  0.29489626535E+03 -0.13731731481E+03  0.33415826466E+03  0.00000000000E+00 0. -1.
        -11    1    5    5    0    0 -0.17947730254E+02  0.99724574628E+02 -0.10995886467E+03  0.14952613058E+03  0.00000000000E+00 0.  1.
          3    1    6    6  503    0  0.82010300636E+03  0.20599370110E+03 -0.91088059997E+03  0.12428619446E+04  0.00000000000E+00 0. -1.
         -3    1    6    6    0  503  0.55328532232E+02  0.40182324513E+02 -0.72543289426E+02  0.99691496743E+02  0.00000000000E+00 0.  1.
<mgrwt>
<rscale>  0 0.26379188E+04</rscale>
<asrwt>0</asrwt>
<pdfrwt beam="1">  1        2 0.30241079E+00 0.26379188E+04</pdfrwt>
<pdfrwt beam="2">  1       -1 0.13615665E+00 0.26379188E+04</pdfrwt>
<totfact> 0.31565855E+00</totfact>
</mgrwt>
</event>
<event>
12    6  0.1556619E-007  0.1179911E+04  0.7818608E-02  0.9130624E-01
          2   -1    0    0  501    0  0.00000000000E+00  0.00000000000E+00  0.92414817128E+03  0.92414817128E+03  0.00000000000E+00 0. -1.
         -1   -1    0    0    0  501 -0.00000000000E+00 -0.00000000000E+00 -0.37661441896E+03  0.37661441896E+03  0.00000000000E+00 0.  1.
         24    2    1    2    0    0 -0.87969843125E+02 -0.92364686402E+02 -0.97167573897E+02  0.17956489727E+03  0.80821323428E+02 0.  0.
        254    2    1    2    0    0  0.87969843125E+02  0.92364686402E+02  0.64470132621E+03  0.11211976930E+04  0.90839118121E+03 0.  0.
         23    2    4    4    0    0  0.39432122753E+03 -0.17963670196E+03  0.13909850454E+03  0.46410127469E+03  0.91011120383E+02 0.  0.
         23    2    4    4    0    0 -0.30635138440E+03  0.27200138836E+03  0.50560282168E+03  0.65709641828E+03  0.91134865093E+02 0.  0.
          4    1    3    3  502    0 -0.19072250058E+02 -0.45470538717E+02  0.28307534119E+01  0.49389612049E+02  0.00000000000E+00 0. -1.
         -3    1    3    3    0  502 -0.68897593067E+02 -0.46894147685E+02 -0.99998327309E+02  0.13017528522E+03  0.00000000000E+00 0.  1.
         11    1    5    5    0    0  0.27462198917E+03 -0.16928719725E+03  0.10292269008E+03  0.33862733531E+03  0.00000000000E+00 0. -1.
        -11    1    5    5    0    0  0.11969923836E+03 -0.10349504713E+02  0.36175814461E+02  0.12547393938E+03  0.00000000000E+00 0.  1.
          3    1    6    6  503    0 -0.29191216452E+03  0.22411813139E+03  0.42457700934E+03  0.56187835469E+03  0.00000000000E+00 0. -1.
         -3    1    6    6    0  503 -0.14439219886E+02  0.47883256970E+02  0.81025812338E+02  0.95218063591E+02  0.00000000000E+00 0.  1.
<mgrwt>
<rscale>  0 0.11799111E+04</rscale>
<asrwt>0</asrwt>
<pdfrwt beam="1">  1        2 0.14217664E+00 0.11799111E+04</pdfrwt>
<pdfrwt beam="2">  1       -1 0.57940680E-01 0.11799111E+04</pdfrwt>
<totfact> 0.96080244E+01</totfact>
</mgrwt>
</event>
<event>
12    6  0.1579834E-007  0.1866115E+04  0.7818608E-02  0.8671909E-01
          2   -1    0    0  501    0  0.00000000000E+00  0.00000000000E+00  0.25675468814E+04  0.25675468814E+04  0.00000000000E+00 0. -1.
         -1   -1    0    0    0  501 -0.00000000000E+00 -0.00000000000E+00 -0.33907704007E+03  0.33907704007E+03  0.00000000000E+00 0.  1.
         24    2    1    2    0    0  0.29051603660E+03 -0.11745202078E+01 -0.15819906824E+03  0.34018060177E+03  0.79340718500E+02 0.  0.
        254    2    1    2    0    0 -0.29051603660E+03  0.11745202078E+01  0.23866689096E+04  0.25664433197E+04  0.89779835277E+03 0.  0.
         23    2    4    4    0    0 -0.45274985960E+03 -0.28872420760E+03  0.18497210604E+04  0.19283305030E+04  0.92986149555E+02 0.  0.
         23    2    4    4    0    0  0.16223382299E+03  0.28989872781E+03  0.53694784916E+03  0.63811281670E+03  0.92270734317E+02 0.  0.
          2    1    3    3  502    0  0.67144184651E+02 -0.29426185099E+02 -0.19960878062E+02  0.75978145245E+02  0.00000000000E+00 0. -1.
         -1    1    3    3    0  502  0.22337185195E+03  0.28251664891E+02 -0.13823819018E+03  0.26420245653E+03  0.00000000000E+00 0.  1.
         11    1    5    5    0    0 -0.92117330292E+02 -0.17861604830E+02  0.33353871161E+03  0.34648623582E+03  0.00000000000E+00 0. -1.
        -11    1    5    5    0    0 -0.36063252930E+03 -0.27086260277E+03  0.15161823488E+04  0.15818442672E+04  0.00000000000E+00 0.  1.
          2    1    6    6  503    0  0.21545770427E+02  0.34442638511E+02  0.21706841339E+02  0.46061942336E+02  0.00000000000E+00 0. -1.
         -2    1    6    6    0  503  0.14068805257E+03  0.25545608930E+03  0.51524100782E+03  0.59205087437E+03  0.00000000000E+00 0.  1.
<mgrwt>
<rscale>  0 0.18661149E+04</rscale>
<asrwt>0</asrwt>
<pdfrwt beam="1">  1        2 0.39500720E+00 0.18661149E+04</pdfrwt>
<pdfrwt beam="2">  1       -1 0.52165700E-01 0.18661149E+04</pdfrwt>
<totfact> 0.12595657E+01</totfact>
</mgrwt>
</event>
<event>
12    6  0.1556619E-007  0.1757870E+04  0.7818608E-02  0.8729030E-01
          2   -1    0    0  501    0  0.00000000000E+00  0.00000000000E+00  0.32224515978E+04  0.32224515978E+04  0.00000000000E+00 0. -1.
         -1   -1    0    0    0  501 -0.00000000000E+00 -0.00000000000E+00 -0.23973265681E+03  0.23973265681E+03  0.00000000000E+00 0.  1.
         24    2    1    2    0    0  0.54676395436E+03  0.30925886849E+03  0.80928295574E+03  0.10275538694E+04  0.79600141708E+02 0.  0.
        254    2    1    2    0    0 -0.54676395436E+03 -0.30925886849E+03  0.21734359853E+04  0.24346303852E+04  0.89944942108E+03 0.  0.
         23    2    4    4    0    0 -0.20113153601E+03 -0.59022188576E+03  0.14378017916E+04  0.15698270956E+04  0.90924963183E+02 0.  0.
         23    2    4    4    0    0 -0.34563241835E+03  0.28096301727E+03  0.73563419365E+03  0.86480328961E+03  0.91241860838E+02 0.  0.
          2    1    3    3  502    0  0.50831631296E+03  0.28916626054E+03  0.78131566480E+03  0.97593891628E+03  0.00000000000E+00 0. -1.
         -1    1    3    3    0  502  0.38447641407E+02  0.20092607951E+02  0.27967290941E+02  0.51614953130E+02  0.00000000000E+00 0.  1.
         11    1    5    5    0    0 -0.12770811417E+03 -0.41942362301E+03  0.11016753060E+04  0.11857124516E+04  0.00000000000E+00 0. -1.
        -11    1    5    5    0    0 -0.73423421837E+02 -0.17079826275E+03  0.33612648565E+03  0.38411464407E+03  0.00000000000E+00 0.  1.
          1    1    6    6  503    0 -0.14687450829E+03  0.12092320270E+03  0.23050279283E+03  0.29887468885E+03  0.00000000000E+00 0. -1.
         -1    1    6    6    0  503 -0.19875791006E+03  0.16003981457E+03  0.50513140082E+03  0.56592860076E+03  0.00000000000E+00 0.  1.
<mgrwt>
<rscale>  0 0.17578702E+04</rscale>
<asrwt>0</asrwt>
<pdfrwt beam="1">  1        2 0.49576175E+00 0.17578702E+04</pdfrwt>
<pdfrwt beam="2">  1       -1 0.36881950E-01 0.17578702E+04</pdfrwt>
<totfact> 0.96042704E+00</totfact>
</mgrwt>
</event>
<event>
12    6  0.1556619E-007  0.1187048E+04  0.7818608E-02  0.9124269E-01
          2   -1    0    0  501    0  0.00000000000E+00  0.00000000000E+00  0.14626606368E+04  0.14626606368E+04  0.00000000000E+00 0. -1.
         -1   -1    0    0    0  501 -0.00000000000E+00 -0.00000000000E+00 -0.24084245608E+03  0.24084245608E+03  0.00000000000E+00 0.  1.
         24    2    1    2    0    0 -0.55074613359E+01  0.39687389267E+02  0.60427622068E+03  0.61109334781E+03  0.81730703251E+02 0.  0.
        254    2    1    2    0    0  0.55074613359E+01 -0.39687389267E+02  0.61754196000E+03  0.10924097450E+04  0.90021972745E+03 0.  0.
         23    2    4    4    0    0  0.13487921448E+03  0.11925811820E+03 -0.17621057932E+03  0.26802968755E+03  0.91514173155E+02 0.  0.
         23    2    4    4    0    0 -0.12937175314E+03 -0.15894550747E+03  0.79375253932E+03  0.82438005749E+03  0.86940558175E+02 0.  0.
          2    1    3    3  502    0 -0.31735790297E+02  0.26902977292E+02  0.52451907215E+03  0.52616650181E+03  0.00000000000E+00 0. -1.
         -1    1    3    3    0  502  0.26228328962E+02  0.12784411976E+02  0.79757148533E+02  0.84926846002E+02  0.00000000000E+00 0.  1.
         11    1    5    5    0    0  0.65338181971E+02  0.19669871942E+02 -0.21930080533E+02  0.71672242309E+02  0.00000000000E+00 0. -1.
        -11    1    5    5    0    0  0.69541032507E+02  0.99588246263E+02 -0.15428049878E+03  0.19635744524E+03  0.00000000000E+00 0.  1.
          1    1    6    6  503    0 -0.13106462694E+03 -0.16576022974E+03  0.72211315662E+03  0.75239736919E+03  0.00000000000E+00 0.  1.
         -1    1    6    6    0  503  0.16928738028E+01  0.68147222723E+01  0.71639382703E+02  0.71982688303E+02  0.00000000000E+00 0. -1.
<mgrwt>
<rscale>  0 0.11870481E+04</rscale>
<asrwt>0</asrwt>
<pdfrwt beam="1">  1        2 0.22502471E+00 0.11870481E+04</pdfrwt>
<pdfrwt beam="2">  1       -1 0.37052686E-01 0.11870481E+04</pdfrwt>
<totfact> 0.10495442E+02</totfact>
</mgrwt>
</event>
<event>
12    6  0.1556619E-007  0.1671953E+04  0.7818608E-02  0.8777524E-01
          2   -1    0    0  501    0  0.00000000000E+00  0.00000000000E+00  0.16828359513E+04  0.16828359513E+04  0.00000000000E+00 0. -1.
         -1   -1    0    0    0  501 -0.00000000000E+00 -0.00000000000E+00 -0.41528530617E+03  0.41528530617E+03  0.00000000000E+00 0.  1.
         24    2    1    2    0    0  0.62943557164E+03  0.20483819395E+03  0.59446100697E+03  0.89340461928E+03  0.81486811199E+02 0.  0.
        254    2    1    2    0    0 -0.62943557164E+03 -0.20483819395E+03  0.67308963816E+03  0.12047166382E+04  0.74842814805E+03 0.  0.
         23    2    4    4    0    0 -0.17301962409E+03 -0.34519790983E+03  0.29205359420E+02  0.39788879327E+03  0.91461202260E+02 0.  0.
         23    2    4    4    0    0 -0.45641594755E+03  0.14035971588E+03  0.64388427874E+03  0.80682784493E+03  0.91475898012E+02 0.  0.
          4    1    3    3  502    0  0.17558494633E+03  0.74803447857E+02  0.12856617552E+03  0.23011929662E+03  0.00000000000E+00 0. -1.
         -3    1    3    3    0  502  0.45385062531E+03  0.13003474609E+03  0.46589483145E+03  0.66328532266E+03  0.00000000000E+00 0.  1.
         11    1    5    5    0    0 -0.16323923814E+03 -0.34702340116E+03  0.19508816836E+02  0.38399594237E+03  0.00000000000E+00 0.  1.
        -11    1    5    5    0    0 -0.97803859503E+01  0.18254913346E+01  0.96965425836E+01  0.13892850896E+02  0.00000000000E+00 0. -1.
          4    1    6    6  503    0 -0.37342980701E+03  0.77999988758E+02  0.48533785275E+03  0.61732216088E+03  0.00000000000E+00 0.  1.
         -4    1    6    6    0  503 -0.82986140543E+02  0.62359727124E+02  0.15854642599E+03  0.18950568404E+03  0.00000000000E+00 0. -1.
<mgrwt>
<rscale>  0 0.16719534E+04</rscale>
<asrwt>0</asrwt>
<pdfrwt beam="1">  1        2 0.25889783E+00 0.16719534E+04</pdfrwt>
<pdfrwt beam="2">  1       -1 0.63890048E-01 0.16719534E+04</pdfrwt>
<totfact> 0.27057601E+01</totfact>
</mgrwt>
</event>
<event>
12    6  0.1556619E-007  0.2243909E+04  0.7818608E-02  0.8500371E-01
         -1   -1    0    0    0  501 -0.00000000000E+00  0.00000000000E+00  0.91027705030E+03  0.91027705030E+03  0.00000000000E+00 0.  1.
          2   -1    0    0  501    0  0.00000000000E+00 -0.00000000000E+00 -0.13828554882E+04  0.13828554882E+04  0.00000000000E+00 0. -1.
         24    2    1    2    0    0  0.36338839304E+03 -0.52915417952E+03  0.49034593495E+03  0.81178759521E+03  0.80651682692E+02 0.  0.
        254    2    1    2    0    0 -0.36338839304E+03  0.52915417952E+03 -0.96292437287E+03  0.14813449433E+04  0.92471845622E+03 0.  0.
         23    2    4    4    0    0  0.18109929239E+03  0.31057700666E+03 -0.77343520521E+03  0.85785536528E+03  0.91971627719E+02 0.  0.
         23    2    4    4    0    0 -0.54448768543E+03  0.21857717287E+03 -0.18948916765E+03  0.62348957802E+03  0.92683812850E+02 0.  0.
          4    1    3    3  502    0  0.11126921849E+03 -0.11689641218E+03  0.93749866152E+02  0.18664042319E+03  0.00000000000E+00 0. -1.
         -3    1    3    3    0  502  0.25211917455E+03 -0.41225776734E+03  0.39659606880E+03  0.62514717203E+03  0.00000000000E+00 0.  1.
         11    1    5    5    0    0  0.17630682830E+03  0.26867411402E+03 -0.72848687357E+03  0.79621793638E+03  0.00000000000E+00 0. -1.
        -11    1    5    5    0    0  0.47924640885E+01  0.41902892640E+02 -0.44948331639E+02  0.61637428895E+02  0.00000000000E+00 0.  1.
          2    1    6    6  503    0 -0.44709595685E+03  0.20362241283E+03 -0.12923954362E+03  0.50799580832E+03  0.00000000000E+00 0. -1.
         -2    1    6    6    0  503 -0.97391728578E+02  0.14954760031E+02 -0.60249624033E+02  0.11549376970E+03  0.00000000000E+00 0.  1.
<mgrwt>
<rscale>  0 0.22439087E+04</rscale>
<asrwt>0</asrwt>
<pdfrwt beam="1">  1        2 0.21274700E+00 0.22439087E+04</pdfrwt>
<pdfrwt beam="2">  1       -1 0.14004262E+00 0.22439087E+04</pdfrwt>
<totfact> 0.64342651E+00</totfact>
</mgrwt>
</event>
<event>
12    6  0.1556619E-007  0.1790064E+04  0.7818608E-02  0.8711601E-01
          2   -1    0    0  501    0  0.00000000000E+00  0.00000000000E+00  0.65225857362E+03  0.65225857362E+03  0.00000000000E+00 0. -1.
         -1   -1    0    0    0  501 -0.00000000000E+00 -0.00000000000E+00 -0.12281662892E+04  0.12281662892E+04  0.00000000000E+00 0.  1.
         24    2    1    2    0    0  0.46011099759E+03 -0.38898746553E+02 -0.72237021501E+03  0.86126789409E+03  0.82148738679E+02 0.  0.
        254    2    1    2    0    0 -0.46011099759E+03  0.38898746553E+02  0.14646249944E+03  0.10191569687E+04  0.89666851208E+03 0.  0.
         23    2    4    4    0    0 -0.36470726920E+03  0.31505188198E+03 -0.22333182619E+03  0.53912980163E+03  0.92275445660E+02 0.  0.
         23    2    4    4    0    0 -0.95403728394E+02 -0.27615313542E+03  0.36979432563E+03  0.48002716709E+03  0.91191075647E+02 0.  0.
          4    1    3    3  502    0  0.68581512058E+02 -0.21603947386E+02 -0.70773811127E+02  0.10089145990E+03  0.00000000000E+00 0. -1.
         -3    1    3    3    0  502  0.39152948553E+03 -0.17294799167E+02 -0.65159640388E+03  0.76037643419E+03  0.00000000000E+00 0.  1.
         11    1    5    5    0    0 -0.17183341567E+03  0.20787614163E+03 -0.13286166097E+03  0.30065168211E+03  0.00000000000E+00 0. -1.
        -11    1    5    5    0    0 -0.19287385353E+03  0.10717574034E+03 -0.90470165225E+02  0.23847811952E+03  0.00000000000E+00 0.  1.
          3    1    6    6  503    0 -0.70445424433E+02 -0.22233136003E+03  0.34335815274E+03  0.41507663452E+03  0.00000000000E+00 0. -1.
         -3    1    6    6    0  503 -0.24958303961E+02 -0.53821775393E+02  0.26436172895E+02  0.64950532565E+02  0.00000000000E+00 0.  1.
<mgrwt>
<rscale>  0 0.17900637E+04</rscale>
<asrwt>0</asrwt>
<pdfrwt beam="1">  1        2 0.10034747E+00 0.17900637E+04</pdfrwt>
<pdfrwt beam="2">  1       -1 0.18894866E+00 0.17900637E+04</pdfrwt>
<totfact> 0.86812692E+00</totfact>
</mgrwt>
</event>
<event>
12    6  0.1556619E-007  0.1214849E+04  0.7818608E-02  0.9099958E-01
         -1   -1    0    0    0  501 -0.00000000000E+00  0.00000000000E+00  0.16122071061E+03  0.16122071061E+03  0.00000000000E+00 0.  1.
          2   -1    0    0  501    0  0.00000000000E+00 -0.00000000000E+00 -0.22885681216E+04  0.22885681216E+04  0.00000000000E+00 0. -1.
         24    2    1    2    0    0  0.24785565105E+03  0.61023577815E+02 -0.35440169449E+03  0.44402799802E+03  0.80025003369E+02 0.  0.
        254    2    1    2    0    0 -0.24785565105E+03 -0.61023577815E+02 -0.17729457165E+04  0.20057608342E+04  0.90254291283E+03 0.  0.
         23    2    4    4    0    0  0.14114775224E+03  0.33139304053E+03 -0.59399097554E+03  0.70067856292E+03  0.91548534831E+02 0.  0.
         23    2    4    4    0    0 -0.38900340328E+03 -0.39241661835E+03 -0.11789547410E+04  0.13050822713E+04  0.89392412617E+02 0.  0.
          4    1    3    3  502    0  0.97044360338E+02  0.59763595788E+02 -0.18432271177E+03  0.21671215316E+03  0.00000000000E+00 0. -1.
         -3    1    3    3    0  502  0.15081129071E+03  0.12599820268E+01 -0.17007898272E+03  0.22731584486E+03  0.00000000000E+00 0.  1.
         11    1    5    5    0    0  0.11247133076E+03  0.17989737877E+03 -0.28441111283E+03  0.35482749080E+03  0.00000000000E+00 0. -1.
        -11    1    5    5    0    0  0.28676421474E+02  0.15149566177E+03 -0.30957986272E+03  0.34585107211E+03  0.00000000000E+00 0.  1.
          1    1    6    6  503    0 -0.13360981616E+03 -0.15868867393E+03 -0.35193220646E+03  0.40852167158E+03  0.00000000000E+00 0. -1.
         -1    1    6    6    0  503 -0.25539358712E+03 -0.23372794442E+03 -0.82702253453E+03  0.89656059972E+03  0.00000000000E+00 0.  1.
<mgrwt>
<rscale>  0 0.12148491E+04</rscale>
<asrwt>0</asrwt>
<pdfrwt beam="1">  1        2 0.35208736E+00 0.12148491E+04</pdfrwt>
<pdfrwt beam="2">  1       -1 0.24803190E-01 0.12148491E+04</pdfrwt>
<totfact> 0.73638515E+01</totfact>
</mgrwt>
</event>
<event>
12    6  0.1556619E-007  0.1537451E+04  0.7818608E-02  0.8859923E-01
         -1   -1    0    0    0  501 -0.00000000000E+00  0.00000000000E+00  0.91266120998E+03  0.91266120998E+03  0.00000000000E+00 0.  1.
          2   -1    0    0  501    0  0.00000000000E+00 -0.00000000000E+00 -0.64749024858E+03  0.64749024858E+03  0.00000000000E+00 0. -1.
         24    2    1    2    0    0 -0.93292604722E+02  0.48835888839E+03  0.46351749148E+02  0.50570595193E+03  0.79950679799E+02 0.  0.
        254    2    1    2    0    0  0.93292604722E+02 -0.48835888839E+03  0.21881921226E+03  0.10544455066E+04  0.90375636365E+03 0.  0.
         23    2    4    4    0    0 -0.14238258848E+03 -0.63446797893E+03  0.33755947147E+03  0.73848453508E+03  0.92685457241E+02 0.  0.
         23    2    4    4    0    0  0.23567519320E+03  0.14610909054E+03 -0.11874025921E+03  0.31596097156E+03  0.94028843237E+02 0.  0.
          2    1    3    3  502    0 -0.61546162697E+02  0.32646442463E+03  0.68632243638E+02  0.33923050505E+03  0.00000000000E+00 0. -1.
         -1    1    3    3    0  502 -0.31746442025E+02  0.16189446376E+03 -0.22280494489E+02  0.16647544688E+03  0.00000000000E+00 0.  1.
         11    1    5    5    0    0 -0.69118501103E+02 -0.41406527555E+03  0.17407029325E+03  0.45445339321E+03  0.00000000000E+00 0.  1.
        -11    1    5    5    0    0 -0.73264087375E+02 -0.22040270338E+03  0.16348917821E+03  0.28403114187E+03  0.00000000000E+00 0. -1.
          3    1    6    6  503    0  0.19372120950E+03  0.79960630266E+02 -0.59823596034E+02  0.21794603012E+03  0.00000000000E+00 0. -1.
         -3    1    6    6    0  503  0.41953983703E+02  0.66148460275E+02 -0.58916663177E+02  0.98014941439E+02  0.00000000000E+00 0.  1.
<mgrwt>
<rscale>  0 0.15374514E+04</rscale>
<asrwt>0</asrwt>
<pdfrwt beam="1">  1        2 0.99613885E-01 0.15374514E+04</pdfrwt>
<pdfrwt beam="2">  1       -1 0.14040942E+00 0.15374514E+04</pdfrwt>
<totfact> 0.20687531E+01</totfact>
</mgrwt>
</event>
<event>
12    6  0.1556619E-007  0.1700454E+04  0.7818608E-02  0.8761105E-01
          2   -1    0    0  501    0  0.00000000000E+00  0.00000000000E+00  0.61861264193E+03  0.61861264193E+03  0.00000000000E+00 0. -1.
         -1   -1    0    0    0  501 -0.00000000000E+00 -0.00000000000E+00 -0.11685600046E+04  0.11685600046E+04  0.00000000000E+00 0.  1.
         24    2    1    2    0    0  0.55691720008E+03  0.20673328685E+03 -0.33327008992E+03  0.68583511772E+03  0.80033969233E+02 0.  0.
        254    2    1    2    0    0 -0.55691720008E+03 -0.20673328685E+03 -0.21667727272E+03  0.11013375288E+04  0.90172051777E+03 0.  0.
         23    2    4    4    0    0 -0.41229693390E+03 -0.53104272018E+03 -0.26827127709E+03  0.72953675136E+03  0.90880477040E+02 0.  0.
         23    2    4    4    0    0 -0.14462026618E+03  0.32430943334E+03  0.51594004368E+02  0.37180077743E+03  0.97376829220E+02 0.  0.
          4    1    3    3  502    0  0.38422065939E+02  0.13041105173E+02 -0.16636367483E+01  0.40609029321E+02  0.00000000000E+00 0. -1.
         -3    1    3    3    0  502  0.51849513414E+03  0.19369218167E+03 -0.33160645317E+03  0.64522608840E+03  0.00000000000E+00 0.  1.
         11    1    5    5    0    0 -0.68757095560E+02 -0.43454943871E+02 -0.42568822877E+02  0.91804003278E+02  0.00000000000E+00 0.  1.
        -11    1    5    5    0    0 -0.34353983834E+03 -0.48758777631E+03 -0.22570245421E+03  0.63773274808E+03  0.00000000000E+00 0. -1.
          4    1    6    6  503    0 -0.14238958655E+03  0.21834624683E+03  0.52026871937E+02  0.26581323004E+03  0.00000000000E+00 0. -1.
         -4    1    6    6    0  503 -0.22306796274E+01  0.10596318651E+03 -0.43286756837E+00  0.10598754739E+03  0.00000000000E+00 0.  1.
<mgrwt>
<rscale>  0 0.17004540E+04</rscale>
<asrwt>0</asrwt>
<pdfrwt beam="1">  1        2 0.95171178E-01 0.17004540E+04</pdfrwt>
<pdfrwt beam="2">  1       -1 0.17977846E+00 0.17004540E+04</pdfrwt>
<totfact> 0.10847881E+01</totfact>
</mgrwt>
</event>
<event>
12    6  0.1556619E-007  0.1575349E+04  0.7818608E-02  0.8835837E-01
          2   -1    0    0  501    0  0.00000000000E+00  0.00000000000E+00  0.13463390427E+04  0.13463390427E+04  0.00000000000E+00 0. -1.
         -1   -1    0    0    0  501 -0.00000000000E+00 -0.00000000000E+00 -0.46082817234E+03  0.46082817234E+03  0.00000000000E+00 0.  1.
         24    2    1    2    0    0 -0.25508979202E+03 -0.30241697402E+03 -0.10157068983E+03  0.41679317466E+03  0.82904265523E+02 0.  0.
        254    2    1    2    0    0  0.25508979202E+03  0.30241697402E+03  0.98708156018E+03  0.13903740404E+04  0.89570259432E+03 0.  0.
         23    2    4    4    0    0 -0.41326151382E+02  0.55892732741E+03  0.67007977419E+03  0.87787863077E+03  0.86927432210E+02 0.  0.
         23    2    4    4    0    0  0.29641594340E+03 -0.25651035339E+03  0.31700178599E+03  0.51249540958E+03  0.92203251702E+02 0.  0.
          2    1    3    3  502    0 -0.44809598401E+02 -0.97144178439E+02 -0.36385595310E+01  0.10704265799E+03  0.00000000000E+00 0. -1.
         -1    1    3    3    0  502 -0.21028019362E+03 -0.20527279559E+03 -0.97932130301E+02  0.30975051668E+03  0.00000000000E+00 0.  1.
         11    1    5    5    0    0 -0.88148410843E+01  0.49268116138E+03  0.56866799583E+03  0.75245977812E+03  0.00000000000E+00 0. -1.
        -11    1    5    5    0    0 -0.32511310298E+02  0.66246166035E+02  0.10141177836E+03  0.12541885265E+03  0.00000000000E+00 0.  1.
          1    1    6    6  503    0  0.22659303866E+03 -0.23885380225E+03  0.24273722731E+03  0.40904389195E+03  0.00000000000E+00 0. -1.
         -1    1    6    6    0  503  0.69822904743E+02 -0.17656551136E+02  0.74264558678E+02  0.10345151763E+03  0.00000000000E+00 0.  1.
<mgrwt>
<rscale>  0 0.15753488E+04</rscale>
<asrwt>0</asrwt>
<pdfrwt beam="1">  1        2 0.20712908E+00 0.15753488E+04</pdfrwt>
<pdfrwt beam="2">  1       -1 0.70896642E-01 0.15753488E+04</pdfrwt>
<totfact> 0.34198034E+01</totfact>
</mgrwt>
</event>
<event>
12    6  0.1556619E-007  0.1310607E+04  0.7818608E-02  0.9021196E-01
         -1   -1    0    0    0  501 -0.00000000000E+00  0.00000000000E+00  0.40243870539E+03  0.40243870539E+03  0.00000000000E+00 0.  1.
          2   -1    0    0  501    0  0.00000000000E+00 -0.00000000000E+00 -0.10670510822E+04  0.10670510822E+04  0.00000000000E+00 0. -1.
         24    2    1    2    0    0 -0.99240961877E+02  0.28560301403E+02  0.18235696637E+03  0.22453085271E+03  0.80595169249E+02 0.  0.
        254    2    1    2    0    0  0.99240961877E+02 -0.28560301403E+02 -0.84696934320E+03  0.12449589349E+04  0.90658768022E+03 0.  0.
         23    2    4    4    0    0 -0.36609611296E+03  0.13025793053E+03 -0.27158494733E+03  0.48271078272E+03  0.90872568729E+02 0.  0.
         23    2    4    4    0    0  0.46533707484E+03 -0.15881823193E+03 -0.57538439587E+03  0.76224815218E+03  0.90516398948E+02 0.  0.
          4    1    3    3  502    0 -0.70820596719E+01 -0.81079765581E+01 -0.55060774591E+01  0.12091804747E+02  0.00000000000E+00 0. -1.
         -3    1    3    3    0  502 -0.92158902205E+02  0.36668277961E+02  0.18786304383E+03  0.21243904796E+03  0.00000000000E+00 0.  1.
         11    1    5    5    0    0 -0.19553171881E+03  0.22158750915E+02 -0.12400801856E+03  0.23259761816E+03  0.00000000000E+00 0.  1.
        -11    1    5    5    0    0 -0.17056439415E+03  0.10809917961E+03 -0.14757692877E+03  0.25011316457E+03  0.00000000000E+00 0. -1.
          2    1    6    6  503    0 -0.87744072789E-01 -0.81248152417E+01 -0.17078574865E+01  0.83028368001E+01  0.00000000000E+00 0. -1.
         -2    1    6    6    0  503  0.46542481891E+03 -0.15069341669E+03 -0.57367653838E+03  0.75394531538E+03  0.00000000000E+00 0.  1.
<mgrwt>
<rscale>  0 0.13106070E+04</rscale>
<asrwt>0</asrwt>
<pdfrwt beam="1">  1        2 0.16416170E+00 0.13106070E+04</pdfrwt>
<pdfrwt beam="2">  1       -1 0.61913647E-01 0.13106070E+04</pdfrwt>
<totfact> 0.67510923E+01</totfact>
</mgrwt>
</event>
<event>
12    6  0.1556619E-007  0.2325394E+04  0.7818608E-02  0.8467975E-01
          2   -1    0    0  501    0  0.00000000000E+00  0.00000000000E+00  0.25832342903E+04  0.25832342903E+04  0.00000000000E+00 0. -1.
         -1   -1    0    0    0  501 -0.00000000000E+00 -0.00000000000E+00 -0.52332249403E+03  0.52332249403E+03  0.00000000000E+00 0.  1.
         24    2    1    2    0    0  0.50679813563E+03 -0.25325933206E+03  0.19549279801E+04  0.20369076484E+04  0.79149991208E+02 0.  0.
        254    2    1    2    0    0 -0.50679813563E+03  0.25325933206E+03  0.10498381621E+03  0.10696491360E+04  0.90118978739E+03 0.  0.
         23    2    4    4    0    0  0.16018869594E+03 -0.83257728162E+02  0.23055105670E+03  0.30680599702E+03  0.91563434069E+02 0.  0.
         23    2    4    4    0    0 -0.66698683156E+03  0.33651706022E+03 -0.12556724049E+03  0.76284313896E+03  0.89707064828E+02 0.  0.
          4    1    3    3  502    0  0.41712646163E+03 -0.17256454051E+03  0.15476813596E+04  0.16121695309E+04  0.00000000000E+00 0. -1.
         -3    1    3    3    0  502  0.89671673998E+02 -0.80694791549E+02  0.40724662049E+03  0.42473811743E+03  0.00000000000E+00 0.  1.
         11    1    5    5    0    0 -0.10662298725E+02  0.16955279424E+01  0.68615405503E+01  0.12792191674E+02  0.00000000000E+00 0.  1.
        -11    1    5    5    0    0  0.17085099466E+03 -0.84953256104E+02  0.22368951615E+03  0.29401380535E+03  0.00000000000E+00 0. -1.
          2    1    6    6  503    0 -0.25993758399E+03  0.14648676133E+03 -0.92607967291E+02  0.31241343509E+03  0.00000000000E+00 0.  1.
         -2    1    6    6    0  503 -0.40704924757E+03  0.19003029889E+03 -0.32959273198E+02  0.45042970387E+03  0.00000000000E+00 0. -1.
<mgrwt>
<rscale>  0 0.23253943E+04</rscale>
<asrwt>0</asrwt>
<pdfrwt beam="1">  1        2 0.39742065E+00 0.23253943E+04</pdfrwt>
<pdfrwt beam="2">  1       -1 0.80511154E-01 0.23253943E+04</pdfrwt>
<totfact> 0.49308656E+00</totfact>
</mgrwt>
</event>
<event>
12    6  0.1556619E-007  0.1803827E+04  0.7818608E-02  0.8704267E-01
         -1   -1    0    0    0  501 -0.00000000000E+00  0.00000000000E+00  0.43382237875E+03  0.43382237875E+03  0.00000000000E+00 0.  1.
          2   -1    0    0  501    0  0.00000000000E+00 -0.00000000000E+00 -0.18750704533E+04  0.18750704533E+04  0.00000000000E+00 0. -1.
         24    2    1    2    0    0  0.30235737759E+03 -0.35338751013E+02  0.22988634724E+03  0.38954870077E+03  0.78940778547E+02 0.  0.
        254    2    1    2    0    0 -0.30235737759E+03  0.35338751013E+02 -0.16711344218E+04  0.19193441313E+04  0.89360104490E+03 0.  0.
         23    2    4    4    0    0 -0.43587544214E+03 -0.19634926491E+03 -0.15276999370E+04  0.16033588246E+04  0.91389212190E+02 0.  0.
         23    2    4    4    0    0  0.13351806455E+03  0.23168801592E+03 -0.14343448489E+03  0.31598530674E+03  0.88129747160E+02 0.  0.
          4    1    3    3  502    0  0.49598004190E+02 -0.27401690567E+02  0.71214130020E+02  0.91006961163E+02  0.00000000000E+00 0. -1.
         -3    1    3    3    0  502  0.25275937340E+03 -0.79370604457E+01  0.15867221722E+03  0.29854173961E+03  0.00000000000E+00 0.  1.
         11    1    5    5    0    0 -0.10959867419E+03 -0.24389951600E+02 -0.46910571966E+03  0.48235559014E+03  0.00000000000E+00 0.  1.
        -11    1    5    5    0    0 -0.32627676795E+03 -0.17195931331E+03 -0.10585942173E+04  0.11210032344E+04  0.00000000000E+00 0. -1.
          4    1    6    6  503    0  0.14956561579E+02  0.44479464840E+02 -0.66552527507E+02  0.81433165506E+02  0.00000000000E+00 0.  1.
         -4    1    6    6    0  503  0.11856150297E+03  0.18720855108E+03 -0.76881957386E+02  0.23455214123E+03  0.00000000000E+00 0. -1.
<mgrwt>
<rscale>  0 0.18038265E+04</rscale>
<asrwt>0</asrwt>
<pdfrwt beam="1">  1        2 0.28847237E+00 0.18038265E+04</pdfrwt>
<pdfrwt beam="2">  1       -1 0.66741905E-01 0.18038265E+04</pdfrwt>
<totfact> 0.19164647E+01</totfact>
</mgrwt>
</event>
<event>
12    6  0.1556619E-007  0.1522389E+04  0.7818608E-02  0.8869699E-01
         -1   -1    0    0    0  501 -0.00000000000E+00  0.00000000000E+00  0.52212104594E+03  0.52212104594E+03  0.00000000000E+00 0.  1.
          2   -1    0    0  501    0  0.00000000000E+00 -0.00000000000E+00 -0.11097376924E+04  0.11097376924E+04  0.00000000000E+00 0. -1.
         24    2    1    2    0    0  0.46446832766E+03 -0.85673913509E+02 -0.43954685104E+02  0.48103123783E+03  0.79926156999E+02 0.  0.
        254    2    1    2    0    0 -0.46446832766E+03  0.85673913509E+02 -0.54366196134E+03  0.11508275005E+04  0.89764400562E+03 0.  0.
         23    2    4    4    0    0  0.60432711412E+02  0.10341064137E+03  0.19047085043E+03  0.24358691431E+03  0.93325058803E+02 0.  0.
         23    2    4    4    0    0 -0.52490103907E+03 -0.17736727863E+02 -0.73413281177E+03  0.90724058619E+03  0.91097769313E+02 0.  0.
          2    1    3    3  502    0  0.19929549621E+03 -0.48171215492E+02  0.19020784361E+02  0.20591491216E+03  0.00000000000E+00 0. -1.
         -3    1    3    3    0  502  0.26517283144E+03 -0.37502698017E+02 -0.62975469465E+02  0.27511632567E+03  0.00000000000E+00 0.  1.
         11    1    5    5    0    0  0.69696703883E+02  0.27929303458E+02  0.10638168628E+03  0.13021036710E+03  0.00000000000E+00 0. -1.
        -11    1    5    5    0    0 -0.92639924708E+01  0.75481337914E+02  0.84089164146E+02  0.11337654721E+03  0.00000000000E+00 0.  1.
          2    1    6    6  503    0 -0.77269664588E+02 -0.12527587502E+02 -0.62879522716E+02  0.10040605505E+03  0.00000000000E+00 0. -1.
         -2    1    6    6    0  503 -0.44763137448E+03 -0.52091403608E+01 -0.67125328905E+03  0.80683453113E+03  0.00000000000E+00 0.  1.
<mgrwt>
<rscale>  0 0.15223894E+04</rscale>
<asrwt>0</asrwt>
<pdfrwt beam="1">  1        2 0.17072887E+00 0.15223894E+04</pdfrwt>
<pdfrwt beam="2">  1       -1 0.80326315E-01 0.15223894E+04</pdfrwt>
<totfact> 0.36560613E+01</totfact>
</mgrwt>
</event>
<event>
12    6  0.1556619E-007  0.4023163E+04  0.7818608E-02  0.7999890E-01
         -1   -1    0    0    0  501 -0.00000000000E+00  0.00000000000E+00  0.11397626905E+04  0.11397626905E+04  0.00000000000E+00 0.  1.
          2   -1    0    0  501    0  0.00000000000E+00 -0.00000000000E+00 -0.35502657052E+04  0.35502657052E+04  0.00000000000E+00 0. -1.
         24    2    1    2    0    0  0.11813714627E+04  0.10777062202E+04 -0.23342185503E+04  0.28305016871E+04  0.77937989456E+02 0.  0.
        254    2    1    2    0    0 -0.11813714627E+04 -0.10777062202E+04 -0.76284464342E+02  0.18595267086E+04  0.94600794424E+03 0.  0.
         23    2    4    4    0    0 -0.11285580425E+04 -0.45663842350E+03  0.26877867210E+02  0.12211697907E+04  0.91494987768E+02 0.  0.
         23    2    4    4    0    0 -0.52813420180E+02 -0.62106779666E+03 -0.10316233155E+03  0.63835691789E+03  0.91337957985E+02 0.  0.
          4    1    3    3  502    0  0.82543423567E+03  0.70758834976E+03 -0.16101148895E+04  0.19428054220E+04  0.00000000000E+00 0. -1.
         -3    1    3    3    0  502  0.35593722703E+03  0.37011787040E+03 -0.72410366077E+03  0.88769626513E+03  0.00000000000E+00 0.  1.
         11    1    5    5    0    0 -0.87795104105E+03 -0.35892203333E+03 -0.16964317673E+02  0.94863630785E+03  0.00000000000E+00 0.  1.
        -11    1    5    5    0    0 -0.25060700147E+03 -0.97716390173E+02  0.43842184883E+02  0.27253348284E+03  0.00000000000E+00 0. -1.
          2    1    6    6  503    0 -0.70181881754E+02 -0.28871411802E+03 -0.45206341275E+02  0.30054109829E+03  0.00000000000E+00 0. -1.
         -2    1    6    6    0  503  0.17368461573E+02 -0.33235367864E+03 -0.57955990277E+02  0.33781581960E+03  0.00000000000E+00 0.  1.
<mgrwt>
<rscale>  0 0.40231631E+04</rscale>
<asrwt>0</asrwt>
<pdfrwt beam="1">  1        2 0.54619473E+00 0.40231631E+04</pdfrwt>
<pdfrwt beam="2">  1       -1 0.17534811E+00 0.40231631E+04</pdfrwt>
<totfact> 0.15025782E-01</totfact>
</mgrwt>
</event>
<event>
12    6  0.1556619E-007  0.1628475E+04  0.7818608E-02  0.8803243E-01
          2   -1    0    0  501    0  0.00000000000E+00  0.00000000000E+00  0.59630205062E+03  0.59630205062E+03  0.00000000000E+00 0. -1.
         -1   -1    0    0    0  501 -0.00000000000E+00 -0.00000000000E+00 -0.11118233376E+04  0.11118233376E+04  0.00000000000E+00 0.  1.
         24    2    1    2    0    0  0.46822921193E+03 -0.11095325191E+03 -0.48738705155E+03  0.68969990865E+03  0.81182553343E+02 0.  0.
        254    2    1    2    0    0 -0.46822921193E+03  0.11095325191E+03 -0.28134235431E+02  0.10184254796E+04  0.89713416121E+03 0.  0.
         23    2    4    4    0    0 -0.24942850706E+03  0.81622538406E+02 -0.45297728482E+03  0.53107921155E+03  0.89330227089E+02 0.  0.
         23    2    4    4    0    0 -0.21880070487E+03  0.29330713506E+02  0.42484304938E+03  0.48734626801E+03  0.90998511686E+02 0.  0.
          4    1    3    3  502    0  0.14774771371E+03 -0.66889809134E+02 -0.19518629889E+03  0.25377416091E+03  0.00000000000E+00 0. -1.
         -3    1    3    3    0  502  0.32048149822E+03 -0.44063442779E+02 -0.29220075266E+03  0.43592574774E+03  0.00000000000E+00 0.  1.
         11    1    5    5    0    0 -0.25164793969E+01 -0.83487124150E+01 -0.17337048029E+01  0.88904105579E+01  0.00000000000E+00 0.  1.
        -11    1    5    5    0    0 -0.24691202766E+03  0.89971250821E+02 -0.45124358001E+03  0.52218880099E+03  0.00000000000E+00 0. -1.
          1    1    6    6  503    0 -0.18279887788E+03 -0.48850976788E+01  0.28186207589E+03  0.33598440999E+03  0.00000000000E+00 0. -1.
         -1    1    6    6    0  503 -0.36001826988E+02  0.34215811185E+02  0.14298097349E+03  0.15136185802E+03  0.00000000000E+00 0.  1.
<mgrwt>
<rscale>  0 0.16284748E+04</rscale>
<asrwt>0</asrwt>
<pdfrwt beam="1">  1        2 0.91738778E-01 0.16284748E+04</pdfrwt>
<pdfrwt beam="2">  1       -1 0.17104974E+00 0.16284748E+04</pdfrwt>
<totfact> 0.13204108E+01</totfact>
</mgrwt>
</event>
<event>
12    6  0.1556619E-007  0.1678792E+04  0.7818608E-02  0.8773553E-01
          2   -1    0    0  501    0  0.00000000000E+00  0.00000000000E+00  0.36148348455E+04  0.36148348455E+04  0.00000000000E+00 0. -1.
         -1   -1    0    0    0  501 -0.00000000000E+00 -0.00000000000E+00 -0.19491499017E+03  0.19491499017E+03  0.00000000000E+00 0.  1.
         24    2    1    2    0    0 -0.15909470705E+02 -0.14212421213E+03 -0.86487433729E+02  0.18564015609E+03  0.80807106295E+02 0.  0.
        254    2    1    2    0    0  0.15909470705E+02  0.14212421213E+03  0.35064072890E+04  0.36241096795E+04  0.90489031928E+03 0.  0.
         23    2    4    4    0    0  0.37521780116E+02 -0.55459087346E+01 -0.14427031069E+02  0.98911737629E+02  0.90203944085E+02 0.  0.
         23    2    4    4    0    0 -0.21612309411E+02  0.14767012086E+03  0.35208343201E+04  0.35251979419E+04  0.92047072977E+02 0.  0.
          2    1    3    3  502    0 -0.30843906917E+02 -0.76946195514E+02 -0.91463519244E+01  0.83400955340E+02  0.00000000000E+00 0. -1.
         -1    1    3    3    0  502  0.14934436213E+02 -0.65178016614E+02 -0.77341081805E+02  0.10223920075E+03  0.00000000000E+00 0.  1.
         11    1    5    5    0    0 -0.29579577296E+02 -0.67343731636E+01 -0.34552286517E+00  0.30338466688E+02  0.00000000000E+00 0.  1.
        -11    1    5    5    0    0  0.67101357412E+02  0.11884644290E+01 -0.14081508204E+02  0.68573270941E+02  0.00000000000E+00 0. -1.
          4    1    6    6  503    0 -0.56748994659E+02  0.72925448050E+02  0.17475800034E+04  0.17500212678E+04  0.00000000000E+00 0. -1.
         -4    1    6    6    0  503  0.35136685248E+02  0.74744672813E+02  0.17732543166E+04  0.17751766741E+04  0.00000000000E+00 0.  1.
<mgrwt>
<rscale>  0 0.16787918E+04</rscale>
<asrwt>0</asrwt>
<pdfrwt beam="1">  1        2 0.55612839E+00 0.16787918E+04</pdfrwt>
<pdfrwt beam="2">  1       -1 0.29986924E-01 0.16787918E+04</pdfrwt>
<totfact> 0.75536999E+00</totfact>
</mgrwt>
</event>
<event>
12    6  0.1556619E-007  0.1985613E+04  0.7818608E-02  0.8613377E-01
          2   -1    0    0  501    0  0.00000000000E+00  0.00000000000E+00  0.13540582865E+04  0.13540582865E+04  0.00000000000E+00 0. -1.
         -1   -1    0    0    0  501 -0.00000000000E+00 -0.00000000000E+00 -0.72793364242E+03  0.72793364242E+03  0.00000000000E+00 0.  1.
         24    2    1    2    0    0  0.74278271043E+03  0.23061883264E+03  0.12861441605E+03  0.79242947343E+03  0.80570475104E+02 0.  0.
        254    2    1    2    0    0 -0.74278271043E+03 -0.23061883264E+03  0.49751022804E+03  0.12895624555E+04  0.90030200420E+03 0.  0.
         23    2    4    4    0    0  0.12035425782E+03 -0.23998602715E+03 -0.10873806055E+02  0.28369857893E+03  0.91039570663E+02 0.  0.
         23    2    4    4    0    0 -0.86313696825E+03  0.93671945023E+01  0.50838403409E+03  0.10058638766E+04  0.90634661064E+02 0.  0.
          2    1    3    3  502    0  0.45738490372E+03  0.17814749281E+03  0.99031882397E+02  0.50074423918E+03  0.00000000000E+00 0. -1.
         -1    1    3    3    0  502  0.28539780671E+03  0.52471339837E+02  0.29582533651E+02  0.29168523425E+03  0.00000000000E+00 0.  1.
         11    1    5    5    0    0  0.91691774995E+02 -0.15755081349E+03 -0.48539395169E+02  0.18864175921E+03  0.00000000000E+00 0. -1.
        -11    1    5    5    0    0  0.28662482827E+02 -0.82435213656E+02  0.37665589114E+02  0.95056819722E+02  0.00000000000E+00 0.  1.
          4    1    6    6  503    0 -0.67976670653E+03  0.41996140342E+02  0.38339318724E+03  0.78156048207E+03  0.00000000000E+00 0. -1.
         -4    1    6    6    0  503 -0.18337026172E+03 -0.32628945840E+02  0.12499084685E+03  0.22430339451E+03  0.00000000000E+00 0.  1.
<mgrwt>
<rscale>  0 0.19856128E+04</rscale>
<asrwt>0</asrwt>
<pdfrwt beam="1">  1        2 0.20831666E+00 0.19856128E+04</pdfrwt>
<pdfrwt beam="2">  1       -1 0.11198979E+00 0.19856128E+04</pdfrwt>
<totfact> 0.11924450E+01</totfact>
</mgrwt>
</event>
<event>
12    6  0.1556619E-007  0.1984132E+04  0.7818608E-02  0.8614076E-01
          2   -1    0    0  501    0  0.00000000000E+00  0.00000000000E+00  0.10607701127E+04  0.10607701127E+04  0.00000000000E+00 0. -1.
         -1   -1    0    0    0  501 -0.00000000000E+00 -0.00000000000E+00 -0.92781149961E+03  0.92781149961E+03  0.00000000000E+00 0.  1.
         24    2    1    2    0    0 -0.38915996547E+01  0.43618008393E+03  0.71991862354E+03  0.84511328144E+03  0.75269009419E+02 0.  0.
        254    2    1    2    0    0  0.38915996547E+01 -0.43618008393E+03 -0.58696001045E+03  0.11434683309E+04  0.87905037380E+03 0.  0.
         23    2    4    4    0    0 -0.18668576169E+03 -0.57205182017E+03 -0.12905105126E+03  0.62203047616E+03  0.90403986984E+02 0.  0.
         23    2    4    4    0    0  0.19057736134E+03  0.13587173624E+03 -0.45790895919E+03  0.52143785471E+03  0.86232024575E+02 0.  0.
          2    1    3    3  502    0 -0.34509642911E+02  0.28689370346E+03  0.44004997952E+03  0.52644363138E+03  0.00000000000E+00 0. -1.
         -3    1    3    3    0  502  0.30618043256E+02  0.14928638047E+03  0.27986864402E+03  0.31866965006E+03  0.00000000000E+00 0.  1.
         11    1    5    5    0    0 -0.81899598122E+02 -0.16093318835E+03 -0.70048450350E+02  0.19368484887E+03  0.00000000000E+00 0. -1.
        -11    1    5    5    0    0 -0.10478616357E+03 -0.41111863182E+03 -0.59002600915E+02  0.42834562729E+03  0.00000000000E+00 0.  1.
          2    1    6    6  503    0  0.12239436417E+03  0.49616577552E+02 -0.18580630614E+03  0.22796089259E+03  0.00000000000E+00 0. -1.
         -2    1    6    6    0  503  0.68182997170E+02  0.86255158685E+02 -0.27210265305E+03  0.29347696213E+03  0.00000000000E+00 0.  1.
<mgrwt>
<rscale>  0 0.19841318E+04</rscale>
<asrwt>0</asrwt>
<pdfrwt beam="1">  1        2 0.16319540E+00 0.19841318E+04</pdfrwt>
<pdfrwt beam="2">  1       -1 0.14274023E+00 0.19841318E+04</pdfrwt>
<totfact> 0.97406124E+00</totfact>
</mgrwt>
</event>
<event>
12    6  0.1556619E-007  0.2229996E+04  0.7818608E-02  0.8506046E-01
          2   -1    0    0  501    0  0.00000000000E+00  0.00000000000E+00  0.19378387552E+04  0.19378387552E+04  0.00000000000E+00 0. -1.
         -1   -1    0    0    0  501 -0.00000000000E+00 -0.00000000000E+00 -0.64154997994E+03  0.64154997994E+03  0.00000000000E+00 0.  1.
         24    2    1    2    0    0 -0.12909638541E+03 -0.37767593209E+03 -0.42593902699E+03  0.58907054307E+03  0.79215298982E+02 0.  0.
        254    2    1    2    0    0  0.12909638541E+03  0.37767593209E+03  0.17222278023E+04  0.19903181921E+04  0.91432648241E+03 0.  0.
         23    2    4    4    0    0 -0.35343520733E+03  0.96641123382E+02  0.10252462040E+04  0.10925787357E+04  0.91337627780E+02 0.  0.
         23    2    4    4    0    0  0.48253159274E+03  0.28103480871E+03  0.69698159826E+03  0.89773945643E+03  0.91298858834E+02 0.  0.
          2    1    3    3  502    0 -0.57402777323E+02 -0.83527535360E+02 -0.13828379410E+03  0.17144776382E+03  0.00000000000E+00 0. -1.
         -1    1    3    3    0  502 -0.71693608083E+02 -0.29414839673E+03 -0.28765523289E+03  0.41762277925E+03  0.00000000000E+00 0.  1.
         11    1    5    5    0    0 -0.23403092691E+03  0.19268641421E+02  0.66581789714E+03  0.70601361703E+03  0.00000000000E+00 0.  1.
        -11    1    5    5    0    0 -0.11940428042E+03  0.77372481962E+02  0.35942830690E+03  0.38656511864E+03  0.00000000000E+00 0. -1.
          2    1    6    6  503    0  0.24816960141E+03  0.10526769270E+03  0.38252809615E+03  0.46797134799E+03  0.00000000000E+00 0. -1.
         -2    1    6    6    0  503  0.23436199132E+03  0.17576711601E+03  0.31445350211E+03  0.42976810844E+03  0.00000000000E+00 0.  1.
<mgrwt>
<rscale>  0 0.22299959E+04</rscale>
<asrwt>0</asrwt>
<pdfrwt beam="1">  1        2 0.29812904E+00 0.22299959E+04</pdfrwt>
<pdfrwt beam="2">  1       -1 0.98699998E-01 0.22299959E+04</pdfrwt>
<totfact> 0.73735260E+00</totfact>
</mgrwt>
</event>
<event>
12    6  0.1743818E-007  0.2023290E+04  0.7818608E-02  0.8595809E-01
          2   -1    0    0  501    0  0.00000000000E+00  0.00000000000E+00  0.20885536911E+04  0.20885536911E+04  0.00000000000E+00 0. -1.
         -1   -1    0    0    0  501 -0.00000000000E+00 -0.00000000000E+00 -0.49001642211E+03  0.49001642211E+03  0.00000000000E+00 0.  1.
         24    2    1    2    0    0 -0.32061853186E+02  0.90586355233E+02 -0.38047895777E+03  0.40073482437E+03  0.81180736471E+02 0.  0.
        254    2    1    2    0    0  0.32061853186E+02 -0.90586355233E+02  0.19790162268E+04  0.21778352888E+04  0.90400634362E+03 0.  0.
         23    2    4    4    0    0 -0.21834835046E+03 -0.53352125101E+02  0.77941919311E+02  0.25782310460E+03  0.99374841282E+02 0.  0.
         23    2    4    4    0    0  0.25041020365E+03 -0.37234230132E+02  0.19010743074E+04  0.19200121842E+04  0.90948376314E+02 0.  0.
          2    1    3    3  502    0  0.40917449148E+01  0.35776340180E+02 -0.39330762832E+02  0.53325395433E+02  0.00000000000E+00 0. -1.
         -1    1    3    3    0  502 -0.36153598101E+02  0.54810015053E+02 -0.34114819494E+03  0.34740942894E+03  0.00000000000E+00 0.  1.
         11    1    5    5    0    0 -0.11641860696E+03 -0.58043545939E+02  0.11050232809E+01  0.13009060823E+03  0.00000000000E+00 0.  1.
        -11    1    5    5    0    0 -0.10192974350E+03  0.46914208383E+01  0.76836896030E+02  0.12773249638E+03  0.00000000000E+00 0. -1.
          4    1    6    6  503    0 -0.49083713439E+01  0.10379436553E+01  0.82007000779E+01  0.96135798768E+01  0.00000000000E+00 0.  1.
         -4    1    6    6    0  503  0.25531857499E+03 -0.38272173788E+02  0.18928736074E+04  0.19103986043E+04  0.00000000000E+00 0. -1.
<mgrwt>
<rscale>  0 0.20232900E+04</rscale>
<asrwt>0</asrwt>
<pdfrwt beam="1">  1        2 0.32131595E+00 0.20232900E+04</pdfrwt>
<pdfrwt beam="2">  1       -1 0.75387143E-01 0.20232900E+04</pdfrwt>
<totfact> 0.11134117E+01</totfact>
</mgrwt>
</event>
<event>
12    6  0.1556619E-007  0.1866100E+04  0.7818608E-02  0.8671917E-01
         -1   -1    0    0    0  501 -0.00000000000E+00  0.00000000000E+00  0.48383973415E+03  0.48383973415E+03  0.00000000000E+00 0.  1.
          2   -1    0    0  501    0  0.00000000000E+00 -0.00000000000E+00 -0.17993188094E+04  0.17993188094E+04  0.00000000000E+00 0. -1.
         24    2    1    2    0    0  0.60491380115E+03 -0.26420142502E+03 -0.16909054213E+03  0.68615657813E+03  0.80598625691E+02 0.  0.
        254    2    1    2    0    0 -0.60491380115E+03  0.26420142502E+03 -0.11463885331E+04  0.15970019654E+04  0.89469855753E+03 0.  0.
         23    2    4    4    0    0 -0.77169682352E+03  0.17860777953E+03 -0.11366004778E+04  0.13884387000E+04  0.92112165715E+02 0.  0.
         23    2    4    4    0    0  0.16678302237E+03  0.85593645491E+02 -0.97880552918E+01  0.20856326543E+03  0.90884437402E+02 0.  0.
          2    1    3    3  502    0  0.58213369646E+03 -0.25028552712E+03 -0.17770882856E+03  0.65810554882E+03  0.00000000000E+00 0. -1.
         -1    1    3    3    0  502  0.22780104692E+02 -0.13915897908E+02  0.86182864307E+01  0.28051029310E+02  0.00000000000E+00 0.  1.
         11    1    5    5    0    0 -0.14219516332E+02  0.11312102478E+02 -0.10426601498E+02  0.20949279844E+02  0.00000000000E+00 0.  1.
        -11    1    5    5    0    0 -0.75747730718E+03  0.16729567705E+03 -0.11261738763E+04  0.13674894201E+04  0.00000000000E+00 0. -1.
          1    1    6    6  503    0  0.13617713874E+03  0.75945166093E+02  0.28605034473E+02  0.15852485410E+03  0.00000000000E+00 0. -1.
         -1    1    6    6    0  503  0.30605883626E+02  0.96484793981E+01 -0.38393089765E+02  0.50038411335E+02  0.00000000000E+00 0.  1.
<mgrwt>
<rscale>  0 0.18660996E+04</rscale>
<asrwt>0</asrwt>
<pdfrwt beam="1">  1        2 0.27681827E+00 0.18660996E+04</pdfrwt>
<pdfrwt beam="2">  1       -1 0.74436884E-01 0.18660996E+04</pdfrwt>
<totfact> 0.16776559E+01</totfact>
</mgrwt>
</event>
<event>
12    6  0.1556619E-007  0.2648945E+04  0.7818608E-02  0.8351763E-01
          2   -1    0    0  501    0  0.00000000000E+00  0.00000000000E+00  0.23016368566E+04  0.23016368566E+04  0.00000000000E+00 0. -1.
         -1   -1    0    0    0  501 -0.00000000000E+00 -0.00000000000E+00 -0.76216493297E+03  0.76216493297E+03  0.00000000000E+00 0.  1.
         24    2    1    2    0    0  0.36794398789E+03 -0.50039593690E+03  0.18295552378E+04  0.19339097073E+04  0.83399736085E+02 0.  0.
        254    2    1    2    0    0 -0.36794398789E+03  0.50039593690E+03 -0.29008331414E+03  0.11298920823E+04  0.89818089301E+03 0.  0.
         23    2    4    4    0    0 -0.19710011139E+03  0.22194571213E+03  0.31038984103E+03  0.43990934035E+03  0.95236659276E+02 0.  0.
         23    2    4    4    0    0 -0.17084387650E+03  0.27845022478E+03 -0.60047315517E+03  0.68998274194E+03  0.93733752064E+02 0.  0.
          2    1    3    3  502    0  0.31298537462E+03 -0.36657415364E+03  0.14103568552E+04  0.14904505741E+04  0.00000000000E+00 0. -1.
         -1    1    3    3    0  502  0.54958613261E+02 -0.13382178327E+03  0.41919838253E+03  0.44345913313E+03  0.00000000000E+00 0.  1.
         11    1    5    5    0    0 -0.54955014174E+02  0.92595114557E+01  0.61550948344E+02  0.83031990084E+02  0.00000000000E+00 0. -1.
        -11    1    5    5    0    0 -0.14214509721E+03  0.21268620067E+03  0.24883889268E+03  0.35687735026E+03  0.00000000000E+00 0.  1.
          1    1    6    6  503    0 -0.14566686047E+02  0.10246108711E+03 -0.20861793123E+03  0.23287744405E+03  0.00000000000E+00 0. -1.
         -1    1    6    6    0  503 -0.15627719045E+03  0.17598913767E+03 -0.39185522394E+03  0.45710529789E+03  0.00000000000E+00 0.  1.
<mgrwt>
<rscale>  0 0.26489446E+04</rscale>
<asrwt>0</asrwt>
<pdfrwt beam="1">  1        2 0.35409797E+00 0.26489446E+04</pdfrwt>
<pdfrwt beam="2">  1       -1 0.11725614E+00 0.26489446E+04</pdfrwt>
<totfact> 0.29683646E+00</totfact>
</mgrwt>
</event>
<event>
12    6  0.1556619E-007  0.1955450E+04  0.7818608E-02  0.8627737E-01
          2   -1    0    0  501    0  0.00000000000E+00  0.00000000000E+00  0.13803908009E+04  0.13803908009E+04  0.00000000000E+00 0. -1.
         -1   -1    0    0    0  501 -0.00000000000E+00 -0.00000000000E+00 -0.69251859803E+03  0.69251859803E+03  0.00000000000E+00 0.  1.
         24    2    1    2    0    0 -0.36177636833E+01 -0.15573254963E+03  0.10679416931E+04  0.10822756612E+04  0.80965620208E+02 0.  0.
        254    2    1    2    0    0  0.36177636833E+01  0.15573254963E+03 -0.38006949022E+03  0.99063373777E+03  0.90146362643E+03 0.  0.
         23    2    4    4    0    0 -0.14929010417E+03 -0.13553560312E+03  0.21217392040E+03  0.30665711368E+03  0.91451506037E+02 0.  0.
         23    2    4    4    0    0  0.15290786786E+03  0.29126815276E+03 -0.59224341062E+03  0.68397662409E+03  0.94094697047E+02 0.  0.
          2    1    3    3  502    0 -0.13948836942E+02 -0.13470326025E+03  0.66476694666E+03  0.67842068936E+03  0.00000000000E+00 0. -1.
         -1    1    3    3    0  502  0.10331073259E+02 -0.21029289381E+02  0.40317474643E+03  0.40385497180E+03  0.00000000000E+00 0.  1.
         11    1    5    5    0    0 -0.74973480686E+02 -0.50652314058E+02  0.35838810499E+02  0.97319576980E+02  0.00000000000E+00 0.  1.
        -11    1    5    5    0    0 -0.74316623486E+02 -0.84883289067E+02  0.17633510990E+03  0.20933753670E+03  0.00000000000E+00 0. -1.
          3    1    6    6  503    0  0.33491223505E+02  0.65367122499E+02 -0.22423061929E+03  0.23595315929E+03  0.00000000000E+00 0. -1.
         -3    1    6    6    0  503  0.11941664435E+03  0.22590103026E+03 -0.36801279133E+03  0.44802346479E+03  0.00000000000E+00 0.  1.
<mgrwt>
<rscale>  0 0.19554501E+04</rscale>
<asrwt>0</asrwt>
<pdfrwt beam="1">  1        2 0.21236782E+00 0.19554501E+04</pdfrwt>
<pdfrwt beam="2">  1       -1 0.10654132E+00 0.19554501E+04</pdfrwt>
<totfact> 0.12985933E+01</totfact>
</mgrwt>
</event>
<event>
12    6  0.1556619E-007  0.1539137E+04  0.7818608E-02  0.8858836E-01
         -1   -1    0    0    0  501 -0.00000000000E+00  0.00000000000E+00  0.98857078260E+03  0.98857078260E+03  0.00000000000E+00 0.  1.
          2   -1    0    0  501    0  0.00000000000E+00 -0.00000000000E+00 -0.59908282653E+03  0.59908282653E+03  0.00000000000E+00 0. -1.
         24    2    1    2    0    0  0.12151694970E+03 -0.47045658406E+03 -0.12842519101E+03  0.50873740024E+03  0.78898328031E+02 0.  0.
        254    2    1    2    0    0 -0.12151694970E+03  0.47045658406E+03  0.51791314709E+03  0.10789162089E+04  0.81223789083E+03 0.  0.
         23    2    4    4    0    0  0.14342051339E+02 -0.60693788574E+02 -0.16541575442E+03  0.19807944332E+03  0.89351349448E+02 0.  0.
         23    2    4    4    0    0 -0.13585900104E+03  0.53115037264E+03  0.68332890151E+03  0.88083676556E+03  0.91414623637E+02 0.  0.
          2    1    3    3  502    0  0.10266644283E+03 -0.31401044282E+03 -0.55086089094E+02  0.33492899829E+03  0.00000000000E+00 0. -1.
         -1    1    3    3    0  502  0.18850506868E+02 -0.15644614124E+03 -0.73339101919E+02  0.17380840195E+03  0.00000000000E+00 0.  1.
         11    1    5    5    0    0  0.39718548299E+02 -0.59661771017E+02 -0.73266214337E+02  0.10249403965E+03  0.00000000000E+00 0. -1.
        -11    1    5    5    0    0 -0.25376496960E+02 -0.10320175571E+01 -0.92149540081E+02  0.95585403673E+02  0.00000000000E+00 0.  1.
          4    1    6    6  503    0 -0.14091767514E+03  0.52761230296E+03  0.65967140485E+03  0.85638711794E+03  0.00000000000E+00 0. -1.
         -4    1    6    6    0  503  0.50586741004E+01  0.35380696811E+01  0.23657496658E+02  0.24449647623E+02  0.00000000000E+00 0.  1.
<mgrwt>
<rscale>  0 0.15391371E+04</rscale>
<asrwt>0</asrwt>
<pdfrwt beam="1">  1        2 0.92166589E-01 0.15391371E+04</pdfrwt>
<pdfrwt beam="2">  1       -1 0.15208781E+00 0.15391371E+04</pdfrwt>
<totfact> 0.18382957E+01</totfact>
</mgrwt>
</event>
<event>
12    6  0.1556619E-007  0.1736008E+04  0.7818608E-02  0.8741090E-01
          2   -1    0    0  501    0  0.00000000000E+00  0.00000000000E+00  0.14648522865E+04  0.14648522865E+04  0.00000000000E+00 0. -1.
         -1   -1    0    0    0  501 -0.00000000000E+00 -0.00000000000E+00 -0.51433933207E+03  0.51433933207E+03  0.00000000000E+00 0.  1.
         24    2    1    2    0    0 -0.25066258808E+03 -0.58802504911E+02 -0.30813174646E+03  0.40945162712E+03  0.80099900906E+02 0.  0.
        254    2    1    2    0    0  0.25066258808E+03  0.58802504911E+02  0.12586447009E+04  0.15697399914E+04  0.90200204546E+03 0.  0.
         23    2    4    4    0    0 -0.14831908265E+02  0.31374225886E+03  0.87257575615E+02  0.33852991363E+03  0.91293085324E+02 0.  0.
         23    2    4    4    0    0  0.26549449634E+03 -0.25493975394E+03  0.11713871252E+04  0.12312100778E+04  0.90823194874E+02 0.  0.
          4    1    3    3  502    0 -0.14294759824E+03 -0.70507433683E+02 -0.15920218520E+03  0.22527904878E+03  0.00000000000E+00 0. -1.
         -3    1    3    3    0  502 -0.10771498984E+03  0.11704928772E+02 -0.14892956126E+03  0.18417257833E+03  0.00000000000E+00 0.  1.
         11    1    5    5    0    0 -0.94597442710E+01  0.31876700456E+03  0.88745393806E+02  0.33102512727E+03  0.00000000000E+00 0.  1.
        -11    1    5    5    0    0 -0.53721639940E+01 -0.50247457096E+01 -0.14878181904E+01  0.75047863656E+01  0.00000000000E+00 0. -1.
          2    1    6    6  503    0  0.23450289568E+03 -0.25644832953E+03  0.10549769551E+04  0.11107356704E+04  0.00000000000E+00 0.  1.
         -2    1    6    6    0  503  0.30991600659E+02  0.15085755875E+01  0.11641017016E+03  0.12047440736E+03  0.00000000000E+00 0. -1.
<mgrwt>
<rscale>  0 0.17360082E+04</rscale>
<asrwt>0</asrwt>
<pdfrwt beam="1">  1        2 0.22536189E+00 0.17360082E+04</pdfrwt>
<pdfrwt beam="2">  1       -1 0.79129129E-01 0.17360082E+04</pdfrwt>
<totfact> 0.22944074E+01</totfact>
</mgrwt>
</event>
<event>
12    6  0.1556619E-007  0.1674430E+04  0.7818608E-02  0.8776084E-01
          2   -1    0    0  501    0  0.00000000000E+00  0.00000000000E+00  0.19541202488E+04  0.19541202488E+04  0.00000000000E+00 0. -1.
         -1   -1    0    0    0  501 -0.00000000000E+00 -0.00000000000E+00 -0.35869298560E+03  0.35869298560E+03  0.00000000000E+00 0.  1.
         24    2    1    2    0    0  0.51266951466E+03 -0.17735438010E+03  0.25119712070E+03  0.60316367969E+03  0.80136281702E+02 0.  0.
        254    2    1    2    0    0 -0.51266951466E+03  0.17735438010E+03  0.13442301425E+04  0.17096495548E+04  0.90645590988E+03 0.  0.
         23    2    4    4    0    0 -0.50022966587E+02 -0.82357827512E+02  0.11178361388E+04  0.11257232726E+04  0.91706838960E+02 0.  0.
         23    2    4    4    0    0 -0.46264654807E+03  0.25971220761E+03  0.22639400371E+03  0.58392628213E+03  0.90682957718E+02 0.  0.
          4    1    3    3  502    0  0.20440974588E+03 -0.80668574093E+02  0.14420120359E+03  0.26283978043E+03  0.00000000000E+00 0. -1.
         -3    1    3    3    0  502  0.30825976878E+03 -0.96685806009E+02  0.10699591711E+03  0.34032389926E+03  0.00000000000E+00 0.  1.
         11    1    5    5    0    0 -0.49575244743E+02 -0.96427232968E+02  0.76931064055E+03  0.77691362313E+03  0.00000000000E+00 0.  1.
        -11    1    5    5    0    0 -0.44772184423E+00  0.14069405456E+02  0.34852549828E+03  0.34880964948E+03  0.00000000000E+00 0. -1.
          1    1    6    6  503    0 -0.27371653722E+03  0.12446466050E+03  0.87208391266E+02  0.31307746321E+03  0.00000000000E+00 0. -1.
         -1    1    6    6    0  503 -0.18893001085E+03  0.13524754711E+03  0.13918561244E+03  0.27084881892E+03  0.00000000000E+00 0.  1.
<mgrwt>
<rscale>  0 0.16744303E+04</rscale>
<asrwt>0</asrwt>
<pdfrwt beam="1">  1        2 0.30063388E+00 0.16744303E+04</pdfrwt>
<pdfrwt beam="2">  1       -1 0.55183538E-01 0.16744303E+04</pdfrwt>
<totfact> 0.25544866E+01</totfact>
</mgrwt>
</event>
<event>
12    6  0.1556619E-007  0.1224995E+04  0.7818608E-02  0.9091255E-01
         -1   -1    0    0    0  501 -0.00000000000E+00  0.00000000000E+00  0.32619249990E+03  0.32619249990E+03  0.00000000000E+00 0.  1.
          2   -1    0    0  501    0  0.00000000000E+00 -0.00000000000E+00 -0.11500975787E+04  0.11500975787E+04  0.00000000000E+00 0. -1.
         24    2    1    2    0    0 -0.30780537316E+02 -0.20018897008E+03 -0.41653217875E+03  0.46977866718E+03  0.78548551758E+02 0.  0.
        254    2    1    2    0    0  0.30780537316E+02  0.20018897008E+03 -0.40737290009E+03  0.10065114115E+04  0.89782485846E+03 0.  0.
         23    2    4    4    0    0 -0.38197019967E+03  0.28025443700E+03 -0.14677059133E+03  0.50347193832E+03  0.86594476163E+02 0.  0.
         23    2    4    4    0    0  0.41275073699E+03 -0.80065466927E+02 -0.26060230875E+03  0.50303947314E+03  0.91441228858E+02 0.  0.
          2    1    3    3  502    0 -0.11157373976E+02 -0.22088475808E+02 -0.12341609251E+02  0.27653265204E+02  0.00000000000E+00 0. -1.
         -1    1    3    3    0  502 -0.19623163340E+02 -0.17810049427E+03 -0.40419056950E+03  0.44212540198E+03  0.00000000000E+00 0.  1.
         11    1    5    5    0    0 -0.12780592700E+03  0.10515765921E+03 -0.97773585245E+01  0.16579531057E+03  0.00000000000E+00 0. -1.
        -11    1    5    5    0    0 -0.25416427267E+03  0.17509677779E+03 -0.13699323281E+03  0.33767662775E+03  0.00000000000E+00 0.  1.
          4    1    6    6  503    0  0.10200932841E+02  0.21004386718E+00 -0.31165133377E+02  0.32792814574E+02  0.00000000000E+00 0. -1.
         -4    1    6    6    0  503  0.40254980415E+03 -0.80275510795E+02 -0.22943717538E+03  0.47024665857E+03  0.00000000000E+00 0.  1.
<mgrwt>
<rscale>  0 0.12249950E+04</rscale>
<asrwt>0</asrwt>
<pdfrwt beam="1">  1        2 0.17693809E+00 0.12249950E+04</pdfrwt>
<pdfrwt beam="2">  1       -1 0.50183460E-01 0.12249950E+04</pdfrwt>
<totfact> 0.90858540E+01</totfact>
</mgrwt>
</event>
<event>
12    6  0.1556619E-007  0.1835417E+04  0.7818608E-02  0.8687689E-01
          2   -1    0    0  501    0  0.00000000000E+00  0.00000000000E+00  0.24029179652E+04  0.24029179652E+04  0.00000000000E+00 0. -1.
         -1   -1    0    0    0  501 -0.00000000000E+00 -0.00000000000E+00 -0.35048578118E+03  0.35048578118E+03  0.00000000000E+00 0.  1.
         24    2    1    2    0    0 -0.55571292579E+03 -0.32813520484E+03  0.36371538114E+03  0.74552072401E+03  0.83801568654E+02 0.  0.
        254    2    1    2    0    0  0.55571292579E+03  0.32813520484E+03  0.16887168029E+04  0.20078830224E+04  0.87369343746E+03 0.  0.
         23    2    4    4    0    0 -0.10867224643E+03  0.33202678806E+03  0.91826432057E+03  0.98647001690E+03  0.88669536409E+02 0.  0.
         23    2    4    4    0    0  0.66438517223E+03 -0.38915832221E+01  0.77045248233E+03  0.10214130055E+04  0.90910388565E+02 0.  0.
          2    1    3    3  502    0 -0.18658501324E+03 -0.11888534604E+03  0.80780182023E+02  0.23552734550E+03  0.00000000000E+00 0. -1.
         -1    1    3    3    0  502 -0.36912791256E+03 -0.20924985880E+03  0.28293519911E+03  0.50999337852E+03  0.00000000000E+00 0.  1.
         11    1    5    5    0    0 -0.10455320688E+02  0.19601754552E+02  0.14529414372E+03  0.14698275651E+03  0.00000000000E+00 0.  1.
        -11    1    5    5    0    0 -0.98216925745E+02  0.31242503351E+03  0.77297017685E+03  0.83948726039E+03  0.00000000000E+00 0. -1.
          1    1    6    6  503    0  0.22164754691E+03  0.10392228239E+02  0.32219814991E+03  0.39121257810E+03  0.00000000000E+00 0. -1.
         -1    1    6    6    0  503  0.44273762532E+03 -0.14283811461E+02  0.44825433242E+03  0.63020042738E+03  0.00000000000E+00 0.  1.
<mgrwt>
<rscale>  0 0.18354167E+04</rscale>
<asrwt>0</asrwt>
<pdfrwt beam="1">  1        2 0.36967968E+00 0.18354167E+04</pdfrwt>
<pdfrwt beam="2">  1       -1 0.53920891E-01 0.18354167E+04</pdfrwt>
<totfact> 0.14748514E+01</totfact>
</mgrwt>
</event>
<event>
12    6  0.1556619E-007  0.1433958E+04  0.7818608E-02  0.8929598E-01
          2   -1    0    0  501    0  0.00000000000E+00  0.00000000000E+00  0.12576914345E+04  0.12576914345E+04  0.00000000000E+00 0. -1.
         -1   -1    0    0    0  501 -0.00000000000E+00 -0.00000000000E+00 -0.40873217639E+03  0.40873217639E+03  0.00000000000E+00 0.  1.
         24    2    1    2    0    0  0.38617598768E+02  0.16779352550E+03  0.71247872793E+03  0.73761307614E+03  0.82468940890E+02 0.  0.
        254    2    1    2    0    0 -0.38617598768E+02 -0.16779352550E+03  0.13648053021E+03  0.92881053478E+03  0.90245004752E+03 0.  0.
         23    2    4    4    0    0 -0.24937373586E+03  0.29778587072E+03  0.46929620396E+02  0.40225011360E+03  0.93483044912E+02 0.  0.
         23    2    4    4    0    0  0.21075613709E+03 -0.46557939622E+03  0.89550909811E+02  0.52656042118E+03  0.89800825122E+02 0.  0.
          2    1    3    3  502    0  0.34899173829E+02  0.10613494537E+03  0.58948482682E+03  0.59997911632E+03  0.00000000000E+00 0. -1.
         -1    1    3    3    0  502  0.37184249386E+01  0.61658580132E+02  0.12299390110E+03  0.13763395982E+03  0.00000000000E+00 0.  1.
         11    1    5    5    0    0 -0.14000243633E+03  0.15966306751E+03 -0.21085932740E+02  0.21339539326E+03  0.00000000000E+00 0. -1.
        -11    1    5    5    0    0 -0.10937129953E+03  0.13812280321E+03  0.68015553135E+02  0.18885472034E+03  0.00000000000E+00 0.  1.
          4    1    6    6  503    0  0.19457323088E+03 -0.33696101918E+03  0.72709940846E+02  0.39583861120E+03  0.00000000000E+00 0. -1.
         -4    1    6    6    0  503  0.16182906210E+02 -0.12861837705E+03  0.16840968965E+02  0.13072180998E+03  0.00000000000E+00 0.  1.
<mgrwt>
<rscale>  0 0.14339581E+04</rscale>
<asrwt>0</asrwt>
<pdfrwt beam="1">  1        2 0.19349099E+00 0.14339581E+04</pdfrwt>
<pdfrwt beam="2">  1       -1 0.62881874E-01 0.14339581E+04</pdfrwt>
<totfact> 0.49698269E+01</totfact>
</mgrwt>
</event>
<event>
12    6  0.1556619E-007  0.1445202E+04  0.7818608E-02  0.8921734E-01
         -1   -1    0    0    0  501 -0.00000000000E+00  0.00000000000E+00  0.47393076595E+03  0.47393076595E+03  0.00000000000E+00 0.  1.
          2   -1    0    0  501    0  0.00000000000E+00 -0.00000000000E+00 -0.11017475852E+04  0.11017475852E+04  0.00000000000E+00 0. -1.
         24    2    1    2    0    0  0.18106743598E+03 -0.17778160694E+03  0.14158370470E+03  0.30142021220E+03  0.80102950936E+02 0.  0.
        254    2    1    2    0    0 -0.18106743598E+03  0.17778160694E+03 -0.76940052396E+03  0.12742581390E+04  0.98354711239E+03 0.  0.
         23    2    4    4    0    0 -0.53333635100E+02  0.55888087007E+03 -0.60318658464E+03  0.82994344645E+03  0.98892693583E+02 0.  0.
         23    2    4    4    0    0 -0.12773380088E+03 -0.38109926313E+03 -0.16621393932E+03  0.44431469251E+03  0.90751860100E+02 0.  0.
          2    1    3    3  502    0  0.19465089536E+01  0.70513737474E+01  0.98848149763E+01  0.12297167802E+02  0.00000000000E+00 0. -1.
         -1    1    3    3    0  502  0.17912092703E+03 -0.18483298069E+03  0.13169888973E+03  0.28912304440E+03  0.00000000000E+00 0.  1.
         11    1    5    5    0    0 -0.40712729274E+02  0.24733908864E+03 -0.33682199603E+03  0.41986093901E+03  0.00000000000E+00 0. -1.
        -11    1    5    5    0    0 -0.12620905826E+02  0.31154178143E+03 -0.26636458861E+03  0.41008250744E+03  0.00000000000E+00 0.  1.
          2    1    6    6  503    0 -0.10630304061E+03 -0.20610616309E+03 -0.64203636500E+02  0.24062874692E+03  0.00000000000E+00 0. -1.
         -2    1    6    6    0  503 -0.21430760265E+02 -0.17499310004E+03 -0.10201030282E+03  0.20368594558E+03  0.00000000000E+00 0.  1.
<mgrwt>
<rscale>  0 0.14452018E+04</rscale>
<asrwt>0</asrwt>
<pdfrwt beam="1">  1        2 0.16949963E+00 0.14452018E+04</pdfrwt>
<pdfrwt beam="2">  1       -1 0.72912426E-01 0.14452018E+04</pdfrwt>
<totfact> 0.45607054E+01</totfact>
</mgrwt>
</event>
<event>
12    6  0.1556619E-007  0.1871350E+04  0.7818608E-02  0.8669250E-01
         -1   -1    0    0    0  501 -0.00000000000E+00  0.00000000000E+00  0.20965686150E+04  0.20965686150E+04  0.00000000000E+00 0.  1.
          2   -1    0    0  501    0  0.00000000000E+00 -0.00000000000E+00 -0.41758142067E+03  0.41758142067E+03  0.00000000000E+00 0. -1.
         24    2    1    2    0    0  0.18577880849E+03  0.57921498575E+03  0.10117680255E+03  0.62185222406E+03  0.80372120714E+02 0.  0.
        254    2    1    2    0    0 -0.18577880849E+03 -0.57921498575E+03  0.15778103918E+04  0.18922978116E+04  0.84929477215E+03 0.  0.
         23    2    4    4    0    0  0.28678286471E+03 -0.41782695501E+03  0.98809596870E+03  0.11140546219E+04  0.89220408646E+02 0.  0.
         23    2    4    4    0    0 -0.47256167320E+03 -0.16138803074E+03  0.58971442306E+03  0.77824318972E+03  0.92405249534E+02 0.  0.
          2    1    3    3  502    0  0.18563816132E+03  0.55670008469E+03  0.82515955336E+02  0.59260897236E+03  0.00000000000E+00 0. -1.
         -1    1    3    3    0  502  0.14064717197E+00  0.22514901061E+02  0.18660847211E+02  0.29243251701E+02  0.00000000000E+00 0.  1.
         11    1    5    5    0    0  0.12976895626E+03 -0.23047331924E+03  0.43098723745E+03  0.50567571796E+03  0.00000000000E+00 0. -1.
        -11    1    5    5    0    0  0.15701390845E+03 -0.18735363576E+03  0.55710873126E+03  0.60837890391E+03  0.00000000000E+00 0.  1.
          2    1    6    6  503    0 -0.34851155249E+02 -0.28904211754E+02  0.25499040021E+02  0.51964002168E+02  0.00000000000E+00 0.  1.
         -2    1    6    6    0  503 -0.43771051795E+03 -0.13248381899E+03  0.56421538304E+03  0.72627918755E+03  0.00000000000E+00 0. -1.
<mgrwt>
<rscale>  0 0.18713504E+04</rscale>
<asrwt>0</asrwt>
<pdfrwt beam="1">  1        2 0.64243297E-01 0.18713504E+04</pdfrwt>
<pdfrwt beam="2">  1       -1 0.32254901E+00 0.18713504E+04</pdfrwt>
<totfact> 0.19171089E+00</totfact>
</mgrwt>
</event>
<event>
12    6  0.1556619E-007  0.1716790E+04  0.7818608E-02  0.8751846E-01
         -1   -1    0    0    0  501 -0.00000000000E+00  0.00000000000E+00  0.22369917821E+03  0.22369917821E+03  0.00000000000E+00 0.  1.
          2   -1    0    0  501    0  0.00000000000E+00 -0.00000000000E+00 -0.32938968781E+04  0.32938968781E+04  0.00000000000E+00 0. -1.
         24    2    1    2    0    0  0.59357766591E+03  0.15403744824E+03 -0.94352328056E+03  0.11280453039E+04  0.78664133027E+02 0.  0.
        254    2    1    2    0    0 -0.59357766591E+03 -0.15403744824E+03 -0.21266744193E+04  0.23895507523E+04  0.90063684770E+03 0.  0.
         23    2    4    4    0    0 -0.31124603237E+03 -0.48936323437E+03 -0.81869741865E+03  0.10071653554E+04  0.88125603629E+02 0.  0.
         23    2    4    4    0    0 -0.28233163354E+03  0.33532578613E+03 -0.13079770006E+04  0.13823853969E+04  0.89615943333E+02 0.  0.
          2    1    3    3  502    0  0.38485196023E+03  0.61419958190E+02 -0.58136178014E+03  0.69990353761E+03  0.00000000000E+00 0. -1.
         -1    1    3    3    0  502  0.20872570568E+03  0.92617490054E+02 -0.36216150042E+03  0.42814176631E+03  0.00000000000E+00 0.  1.
         11    1    5    5    0    0 -0.21862204401E+03 -0.34553954863E+03 -0.50428805711E+03  0.64923002267E+03  0.00000000000E+00 0. -1.
        -11    1    5    5    0    0 -0.92623988361E+02 -0.14382368575E+03 -0.31440936153E+03  0.35793533274E+03  0.00000000000E+00 0.  1.
          4    1    6    6  503    0 -0.21087550392E+03  0.20970180422E+03 -0.97624918319E+03  0.10205419112E+04  0.00000000000E+00 0. -1.
         -4    1    6    6    0  503 -0.71456129616E+02  0.12562398191E+03 -0.33172781745E+03  0.36184348572E+03  0.00000000000E+00 0.  1.
<mgrwt>
<rscale>  0 0.17167901E+04</rscale>
<asrwt>0</asrwt>
<pdfrwt beam="1">  1        2 0.50675336E+00 0.17167901E+04</pdfrwt>
<pdfrwt beam="2">  1       -1 0.34415259E-01 0.17167901E+04</pdfrwt>
<totfact> 0.98011306E+00</totfact>
</mgrwt>
</event>
<event>
12    6  0.1556619E-007  0.2069282E+04  0.7818608E-02  0.8574897E-01
         -1   -1    0    0    0  501 -0.00000000000E+00  0.00000000000E+00  0.11220463890E+04  0.11220463890E+04  0.00000000000E+00 0.  1.
          2   -1    0    0  501    0  0.00000000000E+00 -0.00000000000E+00 -0.95404397249E+03  0.95404397249E+03  0.00000000000E+00 0. -1.
         24    2    1    2    0    0 -0.37224582977E+03  0.87022373824E+02 -0.67891404547E+03  0.78321590519E+03  0.79768550708E+02 0.  0.
        254    2    1    2    0    0  0.37224582977E+03 -0.87022373824E+02  0.84691646200E+03  0.12928744563E+04  0.89895328847E+03 0.  0.
         23    2    4    4    0    0  0.39333839870E+03 -0.37416335636E+03  0.21236960564E+03  0.59006329740E+03  0.91435946999E+02 0.  0.
         23    2    4    4    0    0 -0.21092568925E+02  0.28714098254E+03  0.63454685636E+03  0.70281115892E+03  0.91645904817E+02 0.  0.
          2    1    3    3  502    0 -0.11220303902E+03  0.45621394697E+02 -0.28185967272E+03  0.30678283643E+03  0.00000000000E+00 0. -1.
         -1    1    3    3    0  502 -0.26004279075E+03  0.41400979127E+02 -0.39705437274E+03  0.47643306876E+03  0.00000000000E+00 0.  1.
         11    1    5    5    0    0  0.39011958623E+03 -0.37453018737E+03  0.21838516280E+03  0.58323085664E+03  0.00000000000E+00 0. -1.
        -11    1    5    5    0    0  0.32188124678E+01  0.36683101007E+00 -0.60155571601E+01  0.68324407527E+01  0.00000000000E+00 0.  1.
          1    1    6    6  503    0 -0.53464798805E+02  0.20163609196E+03  0.40117844401E+03  0.45217224841E+03  0.00000000000E+00 0. -1.
         -1    1    6    6    0  503  0.32372229880E+02  0.85504890580E+02  0.23336841234E+03  0.25063891051E+03  0.00000000000E+00 0.  1.
<mgrwt>
<rscale>  0 0.20692816E+04</rscale>
<asrwt>0</asrwt>
<pdfrwt beam="1">  1        2 0.14677600E+00 0.20692816E+04</pdfrwt>
<pdfrwt beam="2">  1       -1 0.17262252E+00 0.20692816E+04</pdfrwt>
<totfact> 0.66944228E+00</totfact>
</mgrwt>
</event>
<event>
12    6  0.1556619E-007  0.1529861E+04  0.7818608E-02  0.8864835E-01
          2   -1    0    0  501    0  0.00000000000E+00  0.00000000000E+00  0.90365363267E+03  0.90365363267E+03  0.00000000000E+00 0. -1.
         -1   -1    0    0    0  501 -0.00000000000E+00 -0.00000000000E+00 -0.64750362998E+03  0.64750362998E+03  0.00000000000E+00 0.  1.
         24    2    1    2    0    0 -0.38945971176E+03  0.17142282813E+03 -0.16488165146E+03  0.46426356012E+03  0.85381737979E+02 0.  0.
        254    2    1    2    0    0  0.38945971176E+03 -0.17142282813E+03  0.42103165414E+03  0.10868937025E+04  0.90719656841E+03 0.  0.
         23    2    4    4    0    0 -0.21321693993E+03  0.10290262988E+03 -0.63385676142E+02  0.26143652219E+03  0.90999431230E+02 0.  0.
         23    2    4    4    0    0  0.60267665169E+03 -0.27432545801E+03  0.48441733028E+03  0.82545718034E+03  0.90806405545E+02 0.  0.
          4    1    3    3  502    0 -0.39244926655E+02  0.21136626144E+02  0.88304090733E+01  0.45441141681E+02  0.00000000000E+00 0. -1.
         -3    1    3    3    0  502 -0.35021478510E+03  0.15028620199E+03 -0.17371206053E+03  0.41882241844E+03  0.00000000000E+00 0.  1.
         11    1    5    5    0    0 -0.18436676108E+03  0.11832595847E+03 -0.65502161623E+02  0.22865403608E+03  0.00000000000E+00 0. -1.
        -11    1    5    5    0    0 -0.28850178855E+02 -0.15423328590E+02  0.21164854813E+01  0.32782486110E+02  0.00000000000E+00 0.  1.
          1    1    6    6  503    0  0.44546642414E+03 -0.23500991266E+03  0.39714060021E+03  0.64139742002E+03  0.00000000000E+00 0. -1.
         -1    1    6    6    0  503  0.15721022756E+03 -0.39315545348E+02  0.87276730077E+02  0.18405976031E+03  0.00000000000E+00 0.  1.
<mgrwt>
<rscale>  0 0.15298614E+04</rscale>
<asrwt>0</asrwt>
<pdfrwt beam="1">  1        2 0.13902364E+00 0.15298614E+04</pdfrwt>
<pdfrwt beam="2">  1       -1 0.99615943E-01 0.15298614E+04</pdfrwt>
<totfact> 0.30853167E+01</totfact>
</mgrwt>
</event>
<event>
12    6  0.1556619E-007  0.2657586E+04  0.7818608E-02  0.8348900E-01
          2   -1    0    0  501    0  0.00000000000E+00  0.00000000000E+00  0.39184897009E+04  0.39184897009E+04  0.00000000000E+00 0. -1.
         -1   -1    0    0    0  501 -0.00000000000E+00 -0.00000000000E+00 -0.45060480336E+03  0.45060480336E+03  0.00000000000E+00 0.  1.
         24    2    1    2    0    0  0.78077940505E+03 -0.91185649771E+02  0.10087487331E+03  0.79645109223E+03  0.78913244664E+02 0.  0.
        254    2    1    2    0    0 -0.78077940505E+03  0.91185649771E+02  0.33670100242E+04  0.35726434120E+04  0.89949605011E+03 0.  0.
         23    2    4    4    0    0  0.22079616329E+01  0.27700579435E+03  0.16296242931E+04  0.16557348314E+04  0.95107359621E+02 0.  0.
         23    2    4    4    0    0 -0.78298736668E+03 -0.18582014458E+03  0.17373857311E+04  0.19169085806E+04  0.91820397781E+02 0.  0.
          2    1    3    3  502    0  0.38844163823E+03 -0.84922219345E+02  0.47127661997E+02  0.40039943329E+03  0.00000000000E+00 0. -1.
         -1    1    3    3    0  502  0.39233776681E+03 -0.62634304261E+01  0.53747211309E+02  0.39605165894E+03  0.00000000000E+00 0.  1.
         11    1    5    5    0    0 -0.28607449050E+02  0.85094015772E+02  0.72003197325E+03  0.72560693227E+03  0.00000000000E+00 0. -1.
        -11    1    5    5    0    0  0.30815410683E+02  0.19191177858E+03  0.90959231989E+03  0.93012789911E+03  0.00000000000E+00 0.  1.
          1    1    6    6  503    0 -0.64127918737E+03 -0.17818442807E+03  0.13715710749E+04  0.15245313706E+04  0.00000000000E+00 0. -1.
         -1    1    6    6    0  503 -0.14170817931E+03 -0.76357165072E+01  0.36581465616E+03  0.39237720998E+03  0.00000000000E+00 0.  1.
<mgrwt>
<rscale>  0 0.26575856E+04</rscale>
<asrwt>0</asrwt>
<pdfrwt beam="1">  1        2 0.60284455E+00 0.26575856E+04</pdfrwt>
<pdfrwt beam="2">  1       -1 0.69323818E-01 0.26575856E+04</pdfrwt>
<totfact> 0.83875539E-01</totfact>
</mgrwt>
</event>
<event>
12    6  0.1556619E-007  0.1874260E+04  0.7818608E-02  0.8667776E-01
          2   -1    0    0  501    0  0.00000000000E+00  0.00000000000E+00  0.12608359989E+04  0.12608359989E+04  0.00000000000E+00 0. -1.
         -1   -1    0    0    0  501 -0.00000000000E+00 -0.00000000000E+00 -0.69653196505E+03  0.69653196505E+03  0.00000000000E+00 0.  1.
         24    2    1    2    0    0 -0.34702817052E+03  0.28147361649E+03  0.80180875533E+03  0.92101361227E+03  0.75583370796E+02 0.  0.
        254    2    1    2    0    0  0.34702817052E+03 -0.28147361649E+03 -0.23750472145E+03  0.10363543517E+04  0.90441467352E+03 0.  0.
         23    2    4    4    0    0  0.28187668419E+03  0.10890363866E+03 -0.47157319141E+03  0.56759163770E+03  0.92002851774E+02 0.  0.
         23    2    4    4    0    0  0.65151486331E+02 -0.39037725515E+03  0.23406846996E+03  0.46876271400E+03  0.91166418709E+02 0.  0.
          4    1    3    3  502    0 -0.30620616973E+03  0.27102280799E+03  0.74997989336E+03  0.85421626142E+03  0.00000000000E+00 0. -1.
         -3    1    3    3    0  502 -0.40822000792E+02  0.10450808506E+02  0.51828861965E+02  0.66797350844E+02  0.00000000000E+00 0.  1.
         11    1    5    5    0    0  0.68019747962E+02 -0.97031293027E+01 -0.13595270660E+03  0.15232851100E+03  0.00000000000E+00 0.  1.
        -11    1    5    5    0    0  0.21385693623E+03  0.11860676796E+03 -0.33562048481E+03  0.41526312670E+03  0.00000000000E+00 0. -1.
          1    1    6    6  503    0  0.29066119212E+02 -0.13168819759E+03  0.32191199033E+02  0.13864665147E+03  0.00000000000E+00 0. -1.
         -1    1    6    6    0  503  0.36085367119E+02 -0.25868905757E+03  0.20187727093E+03  0.33011606253E+03  0.00000000000E+00 0.  1.
<mgrwt>
<rscale>  0 0.18742599E+04</rscale>
<asrwt>0</asrwt>
<pdfrwt beam="1">  1        2 0.19397477E+00 0.18742599E+04</pdfrwt>
<pdfrwt beam="2">  1       -1 0.10715876E+00 0.18742599E+04</pdfrwt>
<totfact> 0.15139049E+01</totfact>
</mgrwt>
</event>
<event>
12    6  0.1556619E-007  0.2069416E+04  0.7818608E-02  0.8574837E-01
         -1   -1    0    0    0  501 -0.00000000000E+00  0.00000000000E+00  0.21612700481E+04  0.21612700481E+04  0.00000000000E+00 0.  1.
          2   -1    0    0  501    0  0.00000000000E+00 -0.00000000000E+00 -0.49536657064E+03  0.49536657064E+03  0.00000000000E+00 0. -1.
         24    2    1    2    0    0 -0.51653740074E+03  0.61381013616E+03  0.44172623388E+03  0.91939826183E+03  0.81223940691E+02 0.  0.
        254    2    1    2    0    0  0.51653740074E+03 -0.61381013616E+03  0.12241772435E+04  0.17372383569E+04  0.93584903449E+03 0.  0.
         23    2    4    4    0    0 -0.16095480585E+03 -0.48501247552E+03  0.67344029012E+03  0.85017292613E+03  0.90158909878E+02 0.  0.
         23    2    4    4    0    0  0.67749220659E+03 -0.12879766064E+03  0.55073695341E+03  0.88706543073E+03  0.89383215253E+02 0.  0.
          2    1    3    3  502    0 -0.25919752612E+03  0.33127231894E+03  0.27433596767E+03  0.50218017683E+03  0.00000000000E+00 0. -1.
         -3    1    3    3    0  502 -0.25733987462E+03  0.28253781722E+03  0.16739026621E+03  0.41721808500E+03  0.00000000000E+00 0.  1.
         11    1    5    5    0    0  0.84342780850E+01 -0.72155718507E+02  0.92237092297E+02  0.11741067224E+03  0.00000000000E+00 0.  1.
        -11    1    5    5    0    0 -0.16938908394E+03 -0.41285675701E+03  0.58120319782E+03  0.73276225389E+03  0.00000000000E+00 0. -1.
          2    1    6    6  503    0  0.41322185222E+03 -0.10413205643E+03  0.38392012280E+03  0.57357688676E+03  0.00000000000E+00 0. -1.
         -2    1    6    6    0  503  0.26427035437E+03 -0.24665604217E+02  0.16681683061E+03  0.31348854398E+03  0.00000000000E+00 0.  1.
<mgrwt>
<rscale>  0 0.20694163E+04</rscale>
<asrwt>0</asrwt>
<pdfrwt beam="1">  1        2 0.76210243E-01 0.20694163E+04</pdfrwt>
<pdfrwt beam="2">  1       -1 0.33250308E+00 0.20694163E+04</pdfrwt>
<totfact> 0.13329988E+00</totfact>
</mgrwt>
</event>
<event>
12    6  0.1556619E-007  0.2424166E+04  0.7818608E-02  0.8430511E-01
         -1   -1    0    0    0  501 -0.00000000000E+00  0.00000000000E+00  0.21265233566E+04  0.21265233566E+04  0.00000000000E+00 0.  1.
          2   -1    0    0  501    0  0.00000000000E+00 -0.00000000000E+00 -0.69086709105E+03  0.69086709105E+03  0.00000000000E+00 0. -1.
         24    2    1    2    0    0 -0.41046262274E+03 -0.87198982341E+03  0.10749773129E+04  0.14459466537E+04  0.79622141280E+02 0.  0.
        254    2    1    2    0    0  0.41046262274E+03  0.87198982341E+03  0.36067895268E+03  0.13714437939E+04  0.90659966701E+03 0.  0.
         23    2    4    4    0    0 -0.23787924311E+03  0.35284869605E+02  0.11000234567E+03  0.28000164975E+03  0.92026362989E+02 0.  0.
         23    2    4    4    0    0  0.64834186585E+03  0.83670495381E+03  0.25067660701E+03  0.10914421442E+04  0.89357921137E+02 0.  0.
          4    1    3    3  502    0 -0.82543518966E+02 -0.17791790375E+03  0.26891379584E+03  0.33284056633E+03  0.00000000000E+00 0. -1.
         -3    1    3    3    0  502 -0.32791910377E+03 -0.69407191966E+03  0.80606351704E+03  0.11131060874E+04  0.00000000000E+00 0.  1.
         11    1    5    5    0    0 -0.20525243249E+03  0.15023682227E+02  0.55190086680E+02  0.21307326847E+03  0.00000000000E+00 0.  1.
        -11    1    5    5    0    0 -0.32626810624E+02  0.20261187378E+02  0.54812258986E+02  0.66928381279E+02  0.00000000000E+00 0. -1.
          1    1    6    6  503    0  0.11225258420E+03  0.11683869314E+03  0.10774460325E+02  0.16238230159E+03  0.00000000000E+00 0. -1.
         -1    1    6    6    0  503  0.53608928165E+03  0.71986626066E+03  0.23990214668E+03  0.92905984260E+03  0.00000000000E+00 0.  1.
<mgrwt>
<rscale>  0 0.24241658E+04</rscale>
<asrwt>0</asrwt>
<pdfrwt beam="1">  1        2 0.10628725E+00 0.24241658E+04</pdfrwt>
<pdfrwt beam="2">  1       -1 0.32715744E+00 0.24241658E+04</pdfrwt>
<totfact> 0.93764460E-01</totfact>
</mgrwt>
</event>
<event>
12    6  0.1556619E-007  0.1667092E+04  0.7818608E-02  0.8780359E-01
         -1   -1    0    0    0  501 -0.00000000000E+00  0.00000000000E+00  0.13675055095E+04  0.13675055095E+04  0.00000000000E+00 0.  1.
          2   -1    0    0  501    0  0.00000000000E+00 -0.00000000000E+00 -0.50807745771E+03  0.50807745771E+03  0.00000000000E+00 0. -1.
         24    2    1    2    0    0  0.93432449045E+02 -0.25679890336E+03  0.89639832113E+03  0.94070556386E+03  0.81986025861E+02 0.  0.
        254    2    1    2    0    0 -0.93432449045E+02  0.25679890336E+03 -0.36970269369E+02  0.93487740332E+03  0.89328251921E+03 0.  0.
         23    2    4    4    0    0 -0.28739302316E+03  0.50716812751E+03 -0.10099467791E+03  0.59894658494E+03  0.93396077662E+02 0.  0.
         23    2    4    4    0    0  0.19396057411E+03 -0.25036922414E+03  0.64024408540E+02  0.33593081839E+03  0.91896339114E+02 0.  0.
          4    1    3    3  502    0  0.26104837190E+01  0.61031766615E+01  0.13753655377E+02  0.15271752580E+02  0.00000000000E+00 0. -1.
         -3    1    3    3    0  502  0.90821965326E+02 -0.26290208003E+03  0.88264466576E+03  0.92543381128E+03  0.00000000000E+00 0.  1.
         11    1    5    5    0    0 -0.28846402251E+03  0.49717285152E+03 -0.11025782762E+03  0.58527696446E+03  0.00000000000E+00 0. -1.
        -11    1    5    5    0    0  0.10709993473E+01  0.99952759866E+01  0.92631497079E+01  0.13669620483E+02  0.00000000000E+00 0.  1.
          4    1    6    6  503    0  0.16258706177E+03 -0.22825157093E+03  0.25256084328E+02  0.28137377647E+03  0.00000000000E+00 0. -1.
         -4    1    6    6    0  503  0.31373512344E+02 -0.22117653210E+02  0.38768324213E+02  0.54557041915E+02  0.00000000000E+00 0.  1.
<mgrwt>
<rscale>  0 0.16670917E+04</rscale>
<asrwt>0</asrwt>
<pdfrwt beam="1">  1        2 0.78165763E-01 0.16670917E+04</pdfrwt>
<pdfrwt beam="2">  1       -1 0.21038546E+00 0.16670917E+04</pdfrwt>
<totfact> 0.84199805E+00</totfact>
</mgrwt>
</event>
<event>
12    6  0.1556619E-007  0.3210322E+04  0.7818608E-02  0.8186096E-01
         -1   -1    0    0    0  501 -0.00000000000E+00  0.00000000000E+00  0.15408797669E+04  0.15408797669E+04  0.00000000000E+00 0.  1.
          2   -1    0    0  501    0  0.00000000000E+00 -0.00000000000E+00 -0.16721241493E+04  0.16721241493E+04  0.00000000000E+00 0. -1.
         24    2    1    2    0    0 -0.31612075154E+03  0.14355318953E+04  0.74081588705E+02  0.14738349682E+04  0.77571126164E+02 0.  0.
        254    2    1    2    0    0  0.31612075154E+03 -0.14355318953E+04 -0.20532597111E+03  0.17391689480E+04  0.90656810177E+03 0.  0.
         23    2    4    4    0    0 -0.72193554023E+02 -0.74147027067E+03 -0.48229190083E+03  0.89209574023E+03  0.90770372902E+02 0.  0.
         23    2    4    4    0    0  0.38831430557E+03 -0.69406162464E+03  0.27696592972E+03  0.84707320775E+03  0.91177597814E+02 0.  0.
          2    1    3    3  502    0 -0.47066123074E+02  0.30763582630E+03 -0.87383970113E+01  0.31133804963E+03  0.00000000000E+00 0. -1.
         -1    1    3    3    0  502 -0.26905462847E+03  0.11278960690E+04  0.82819985717E+02  0.11624969185E+04  0.00000000000E+00 0.  1.
         11    1    5    5    0    0 -0.55366931253E+02 -0.35708243351E+03 -0.18556794954E+03  0.40621278328E+03  0.00000000000E+00 0. -1.
        -11    1    5    5    0    0 -0.16826622770E+02 -0.38438783716E+03 -0.29672395129E+03  0.48588295695E+03  0.00000000000E+00 0.  1.
          1    1    6    6  503    0  0.13726470797E+03 -0.25636985300E+03  0.14787618218E+03  0.32624295677E+03  0.00000000000E+00 0.  1.
         -1    1    6    6    0  503  0.25104959760E+03 -0.43769177164E+03  0.12908974754E+03  0.52083025098E+03  0.00000000000E+00 0. -1.
<mgrwt>
<rscale>  0 0.32103223E+04</rscale>
<asrwt>0</asrwt>
<pdfrwt beam="1">  1        2 0.25724987E+00 0.32103223E+04</pdfrwt>
<pdfrwt beam="2">  1       -1 0.23705843E+00 0.32103223E+04</pdfrwt>
<totfact> 0.82508899E-01</totfact>
</mgrwt>
</event>
<event>
12    6  0.1556619E-007  0.1900023E+04  0.7818608E-02  0.8654845E-01
         -1   -1    0    0    0  501 -0.00000000000E+00  0.00000000000E+00  0.32903341972E+03  0.32903341972E+03  0.00000000000E+00 0.  1.
          2   -1    0    0  501    0  0.00000000000E+00 -0.00000000000E+00 -0.27429485823E+04  0.27429485823E+04  0.00000000000E+00 0. -1.
         24    2    1    2    0    0 -0.65139738969E+03 -0.15470151564E+03 -0.14654614216E+04  0.16131431345E+04  0.80015474250E+02 0.  0.
        254    2    1    2    0    0  0.65139738969E+03  0.15470151564E+03 -0.94845374104E+03  0.14588388675E+04  0.88339980998E+03 0.  0.
         23    2    4    4    0    0  0.37230742934E+03  0.31652234393E+03 -0.10022197404E+04  0.11191258085E+04  0.95911163091E+02 0.  0.
         23    2    4    4    0    0  0.27908996035E+03 -0.16182082829E+03  0.53765999310E+02  0.33971305900E+03  0.91853107387E+02 0.  0.
          4    1    3    3  502    0 -0.23994792826E+03 -0.56318083373E+02 -0.63456010627E+03  0.68074463880E+03  0.00000000000E+00 0. -1.
         -3    1    3    3    0  502 -0.41144946143E+03 -0.98383432269E+02 -0.83090131531E+03  0.93239849573E+03  0.00000000000E+00 0.  1.
         11    1    5    5    0    0  0.14253234343E+03  0.17768729087E+03 -0.50693795140E+03  0.55576463438E+03  0.00000000000E+00 0.  1.
        -11    1    5    5    0    0  0.22977508591E+03  0.13883505306E+03 -0.49528178895E+03  0.56336117414E+03  0.00000000000E+00 0. -1.
          1    1    6    6  503    0  0.11198536541E+03 -0.11079894874E+03  0.48808703407E+02  0.16492246250E+03  0.00000000000E+00 0. -1.
         -1    1    6    6    0  503  0.16710459494E+03 -0.51021879550E+02  0.49572959035E+01  0.17479059650E+03  0.00000000000E+00 0.  1.
<mgrwt>
<rscale>  0 0.19000229E+04</rscale>
<asrwt>0</asrwt>
<pdfrwt beam="1">  1        2 0.42199208E+00 0.19000229E+04</pdfrwt>
<pdfrwt beam="2">  1       -1 0.50620527E-01 0.19000229E+04</pdfrwt>
<totfact> 0.10480593E+01</totfact>
</mgrwt>
</event>
<event>
12    6  0.1556619E-007  0.2398232E+04  0.7818608E-02  0.8440166E-01
          2   -1    0    0  501    0  0.00000000000E+00  0.00000000000E+00  0.24601414973E+04  0.24601414973E+04  0.00000000000E+00 0. -1.
         -1   -1    0    0    0  501 -0.00000000000E+00 -0.00000000000E+00 -0.58447000793E+03  0.58447000793E+03  0.00000000000E+00 0.  1.
         24    2    1    2    0    0 -0.21179035414E+02  0.46456280070E+03 -0.35354163238E+03  0.59020379818E+03  0.84152779089E+02 0.  0.
        254    2    1    2    0    0  0.21179035414E+02 -0.46456280070E+03  0.22292131218E+04  0.24544077071E+04  0.91567401563E+03 0.  0.
         23    2    4    4    0    0 -0.31735978412E+03  0.72158090564E+02  0.44646468258E+03  0.55987380668E+03  0.90575625865E+02 0.  0.
         23    2    4    4    0    0  0.33853881953E+03 -0.53672089126E+03  0.17827484392E+04  0.18945339004E+04  0.91590691930E+02 0.  0.
          2    1    3    3  502    0  0.13737884991E+02  0.92334859734E+02 -0.37294672970E+02  0.10052536216E+03  0.00000000000E+00 0. -1.
         -1    1    3    3    0  502 -0.34916920405E+02  0.37222794096E+03 -0.31624695941E+03  0.48967843602E+03  0.00000000000E+00 0.  1.
         11    1    5    5    0    0 -0.61680318454E+02  0.38967796110E+02  0.56022134211E+02  0.91986033395E+02  0.00000000000E+00 0. -1.
        -11    1    5    5    0    0 -0.25567946566E+03  0.33190294454E+02  0.39044254837E+03  0.46788777328E+03  0.00000000000E+00 0.  1.
          2    1    6    6  503    0  0.50939200195E+02 -0.15529543356E+03  0.45069184490E+03  0.47941069331E+03  0.00000000000E+00 0. -1.
         -2    1    6    6    0  503  0.28759961934E+03 -0.38142545770E+03  0.13320565943E+04  0.14151232071E+04  0.00000000000E+00 0.  1.
<mgrwt>
<rscale>  0 0.23982318E+04</rscale>
<asrwt>0</asrwt>
<pdfrwt beam="1">  1        2 0.37848330E+00 0.23982318E+04</pdfrwt>
<pdfrwt beam="2">  1       -1 0.89918464E-01 0.23982318E+04</pdfrwt>
<totfact> 0.45453615E+00</totfact>
</mgrwt>
</event>
<event>
12    6  0.3009639E-007  0.1509766E+04  0.7818608E-02  0.8877985E-01
         -1   -1    0    0    0  501 -0.00000000000E+00  0.00000000000E+00  0.20805656278E+03  0.20805656278E+03  0.00000000000E+00 0.  1.
          2   -1    0    0  501    0  0.00000000000E+00 -0.00000000000E+00 -0.27389089843E+04  0.27389089843E+04  0.00000000000E+00 0. -1.
         24    2    1    2    0    0  0.17527798215E+03  0.11184382475E+03  0.27924776704E+02  0.22533002427E+03  0.82233901298E+02 0.  0.
        254    2    1    2    0    0 -0.17527798215E+03 -0.11184382475E+03 -0.25587771982E+04  0.27216355228E+04  0.90372991356E+03 0.  0.
         23    2    4    4    0    0 -0.33201194648E+02 -0.84306289899E+02  0.26128513179E+02  0.13138155761E+03  0.91479749866E+02 0.  0.
         23    2    4    4    0    0 -0.14207678750E+03 -0.27537534852E+02 -0.25849057114E+04  0.25902539652E+04  0.82060575125E+02 0.  0.
          2    1    3    3  502    0  0.23065235634E+02  0.79367899644E+01 -0.23626412808E+02  0.33958873833E+02  0.00000000000E+00 0. -1.
         -1    1    3    3    0  502  0.15221274651E+03  0.10390703479E+03  0.51551189513E+02  0.19137115044E+03  0.00000000000E+00 0.  1.
         11    1    5    5    0    0 -0.68990851765E+01  0.10116915948E+02 -0.19686890668E+02  0.23184542884E+02  0.00000000000E+00 0. -1.
        -11    1    5    5    0    0 -0.26302109472E+02 -0.94423205847E+02  0.45815403847E+02  0.10819701472E+03  0.00000000000E+00 0.  1.
          2    1    6    6  503    0 -0.80939821931E+01 -0.15052322792E+02 -0.83479805576E+02  0.85211283925E+02  0.00000000000E+00 0. -1.
         -2    1    6    6    0  503 -0.13398280530E+03 -0.12485212060E+02 -0.25014259058E+04  0.25050426813E+04  0.00000000000E+00 0.  1.
<mgrwt>
<rscale>  0 0.15097655E+04</rscale>
<asrwt>0</asrwt>
<pdfrwt beam="1">  1        2 0.42137062E+00 0.15097655E+04</pdfrwt>
<pdfrwt beam="2">  1       -1 0.32008702E-01 0.15097655E+04</pdfrwt>
<totfact> 0.25300893E+01</totfact>
</mgrwt>
</event>
<event>
12    6  0.1556619E-007  0.1706616E+04  0.7818608E-02  0.8757600E-01
          2   -1    0    0  501    0  0.00000000000E+00  0.00000000000E+00  0.18808019144E+04  0.18808019144E+04  0.00000000000E+00 0. -1.
         -1   -1    0    0    0  501 -0.00000000000E+00 -0.00000000000E+00 -0.38714027741E+03  0.38714027741E+03  0.00000000000E+00 0.  1.
         24    2    1    2    0    0  0.24923219772E+03 -0.44948855417E+03  0.99105381099E+03  0.11192864049E+04  0.80360135171E+02 0.  0.
        254    2    1    2    0    0 -0.24923219772E+03  0.44948855417E+03  0.50260782598E+03  0.11486557868E+04  0.89590113359E+03 0.  0.
         23    2    4    4    0    0 -0.21780091379E+03  0.53798042656E+03  0.69701966573E+03  0.91149020364E+03  0.90098831897E+02 0.  0.
         23    2    4    4    0    0 -0.31431283938E+02 -0.88491872394E+02 -0.19441183975E+03  0.23716558319E+03  0.98146896650E+02 0.  0.
          4    1    3    3  502    0  0.16241715887E+03 -0.35837347631E+03  0.77811927748E+03  0.87194064707E+03  0.00000000000E+00 0. -1.
         -3    1    3    3    0  502  0.86815038851E+02 -0.91115077856E+02  0.21293453350E+03  0.24734575788E+03  0.00000000000E+00 0.  1.
         11    1    5    5    0    0 -0.21863461795E+03  0.45970262289E+03  0.60667172268E+03  0.79194581680E+03  0.00000000000E+00 0.  1.
        -11    1    5    5    0    0  0.83370416096E+00  0.78277803676E+02  0.90347943052E+02  0.11954438684E+03  0.00000000000E+00 0. -1.
          2    1    6    6  503    0 -0.56129199354E+02 -0.33072561844E+02 -0.55508016275E+02  0.85588674706E+02  0.00000000000E+00 0.  1.
         -2    1    6    6    0  503  0.24697915416E+02 -0.55419310550E+02 -0.13890382348E+03  0.15157690848E+03  0.00000000000E+00 0. -1.
<mgrwt>
<rscale>  0 0.17066156E+04</rscale>
<asrwt>0</asrwt>
<pdfrwt beam="1">  1        2 0.28935413E+00 0.17066156E+04</pdfrwt>
<pdfrwt beam="2">  1       -1 0.59560044E-01 0.17066156E+04</pdfrwt>
<totfact> 0.24092217E+01</totfact>
</mgrwt>
</event>
<event>
12    6  0.1556619E-007  0.1102538E+04  0.7818608E-02  0.9202722E-01
         -1   -1    0    0    0  501 -0.00000000000E+00  0.00000000000E+00  0.42837144864E+03  0.42837144864E+03  0.00000000000E+00 0.  1.
          2   -1    0    0  501    0  0.00000000000E+00 -0.00000000000E+00 -0.70942510057E+03  0.70942510057E+03  0.00000000000E+00 0. -1.
         24    2    1    2    0    0  0.31750561642E+02 -0.13150948716E+03  0.16159483183E+02  0.15853038623E+03  0.81042649789E+02 0.  0.
        254    2    1    2    0    0 -0.31750561642E+02  0.13150948716E+03 -0.29721313511E+03  0.97926616298E+03  0.92321380346E+03 0.  0.
         23    2    4    4    0    0  0.26205130015E+03  0.24643335811E+03  0.16918439197E+03  0.40784346519E+03  0.91173733680E+02 0.  0.
         23    2    4    4    0    0 -0.29380186179E+03 -0.11492387095E+03 -0.46639752708E+03  0.57142269779E+03  0.97315035759E+02 0.  0.
          4    1    3    3  502    0  0.93886780653E+00 -0.97601610388E+02 -0.20641194583E+02  0.99764797082E+02  0.00000000000E+00 0. -1.
         -3    1    3    3    0  502  0.30811693835E+02 -0.33907876773E+02  0.36800677766E+02  0.58765589152E+02  0.00000000000E+00 0.  1.
         11    1    5    5    0    0  0.85713632311E+02  0.13674794055E+03  0.95281779414E+02  0.18741783132E+03  0.00000000000E+00 0.  1.
        -11    1    5    5    0    0  0.17633766784E+03  0.10968541755E+03  0.73902612555E+02  0.22042563386E+03  0.00000000000E+00 0. -1.
          3    1    6    6  503    0 -0.29827012831E+03 -0.10071049894E+03 -0.43863865596E+03  0.53991809058E+03  0.00000000000E+00 0. -1.
         -3    1    6    6    0  503  0.44682665220E+01 -0.14213372008E+02 -0.27758871121E+02  0.31504607210E+02  0.00000000000E+00 0.  1.
<mgrwt>
<rscale>  0 0.11025379E+04</rscale>
<asrwt>0</asrwt>
<pdfrwt beam="1">  1        2 0.10914232E+00 0.11025379E+04</pdfrwt>
<pdfrwt beam="2">  1       -1 0.65903300E-01 0.11025379E+04</pdfrwt>
<totfact> 0.10660273E+02</totfact>
</mgrwt>
</event>
<event>
12    6  0.1556619E-007  0.1340345E+04  0.7818608E-02  0.8998169E-01
         -1   -1    0    0    0  501 -0.00000000000E+00  0.00000000000E+00  0.99688916052E+03  0.99688916052E+03  0.00000000000E+00 0.  1.
          2   -1    0    0  501    0  0.00000000000E+00 -0.00000000000E+00 -0.45053279606E+03  0.45053279606E+03  0.00000000000E+00 0. -1.
         24    2    1    2    0    0  0.82396725346E+02 -0.16956527250E+02  0.52649694964E+03  0.53909126275E+03  0.79646766583E+02 0.  0.
        254    2    1    2    0    0 -0.82396725346E+02  0.16956527250E+02  0.19859414813E+02  0.90833069383E+03  0.90420877503E+03 0.  0.
         23    2    4    4    0    0 -0.34972303590E+03 -0.94091082997E+02 -0.29180733452E+03  0.47362749824E+03  0.89510629965E+02 0.  0.
         23    2    4    4    0    0  0.26732631055E+03  0.11104761025E+03  0.31166674933E+03  0.43470319559E+03  0.89642498616E+02 0.  0.
          4    1    3    3  502    0  0.11424031255E+02  0.95759014065E+01  0.12255715224E+02  0.19297899717E+02  0.00000000000E+00 0. -1.
         -3    1    3    3    0  502  0.70972694092E+02 -0.26532428656E+02  0.51424123442E+03  0.51979336303E+03  0.00000000000E+00 0.  1.
         11    1    5    5    0    0 -0.21004022155E+03 -0.35978737698E+02 -0.21956886737E+03  0.30597688108E+03  0.00000000000E+00 0. -1.
        -11    1    5    5    0    0 -0.13968281435E+03 -0.58112345299E+02 -0.72238467145E+02  0.16765061717E+03  0.00000000000E+00 0.  1.
          2    1    6    6  503    0  0.11311825275E+03  0.91735494280E+02  0.17565101587E+03  0.22817629016E+03  0.00000000000E+00 0. -1.
         -2    1    6    6    0  503  0.15420805780E+03  0.19312115967E+02  0.13601573346E+03  0.20652690542E+03  0.00000000000E+00 0.  1.
<mgrwt>
<rscale>  0 0.13403451E+04</rscale>
<asrwt>0</asrwt>
<pdfrwt beam="1">  1        2 0.69312738E-01 0.13403451E+04</pdfrwt>
<pdfrwt beam="2">  1       -1 0.15336756E+00 0.13403451E+04</pdfrwt>
<totfact> 0.25510875E+01</totfact>
</mgrwt>
</event>
<event>
12    6  0.1556619E-007  0.2232818E+04  0.7818608E-02  0.8504891E-01
         -1   -1    0    0    0  501 -0.00000000000E+00  0.00000000000E+00  0.42045600209E+03  0.42045600209E+03  0.00000000000E+00 0.  1.
          2   -1    0    0  501    0  0.00000000000E+00 -0.00000000000E+00 -0.29643276036E+04  0.29643276036E+04  0.00000000000E+00 0. -1.
         24    2    1    2    0    0  0.91613040887E+03 -0.16221696016E+03 -0.10150177547E+04  0.13792121184E+04  0.79723002235E+02 0.  0.
        254    2    1    2    0    0 -0.91613040887E+03  0.16221696016E+03 -0.15288538468E+04  0.20055714873E+04  0.90515945412E+03 0.  0.
         23    2    4    4    0    0 -0.40699738021E+02  0.55654200986E+02  0.99650105063E+02  0.15152936137E+03  0.90978817069E+02 0.  0.
         23    2    4    4    0    0 -0.87543067084E+03  0.10656275917E+03 -0.16285039519E+04  0.18540421259E+04  0.87821422131E+02 0.  0.
          2    1    3    3  502    0  0.77925013661E+03 -0.13527331362E+03 -0.81825851448E+03  0.11380143414E+04  0.00000000000E+00 0. -1.
         -1    1    3    3    0  502  0.13688027226E+03 -0.26943646543E+02 -0.19675924024E+03  0.24119777702E+03  0.00000000000E+00 0.  1.
         11    1    5    5    0    0 -0.44657688570E+02  0.57116821609E+02  0.11481369306E+03  0.13578963353E+03  0.00000000000E+00 0.  1.
        -11    1    5    5    0    0  0.39579505493E+01 -0.14626206231E+01 -0.15163587996E+02  0.15739727843E+02  0.00000000000E+00 0. -1.
          4    1    6    6  503    0 -0.51136795631E+02  0.16772140680E+02 -0.14304015589E+03  0.15282919475E+03  0.00000000000E+00 0. -1.
         -4    1    6    6    0  503 -0.82429387521E+03  0.89790618495E+02 -0.14854637960E+04  0.17012129312E+04  0.00000000000E+00 0.  1.
<mgrwt>
<rscale>  0 0.22328182E+04</rscale>
<asrwt>0</asrwt>
<pdfrwt beam="1">  1        2 0.45605039E+00 0.22328182E+04</pdfrwt>
<pdfrwt beam="2">  1       -1 0.64685540E-01 0.22328182E+04</pdfrwt>
<totfact> 0.46114076E+00</totfact>
</mgrwt>
</event>
<event>
12    6  0.1556619E-007  0.1294757E+04  0.7818608E-02  0.9033734E-01
         -1   -1    0    0    0  501 -0.00000000000E+00  0.00000000000E+00  0.86606268932E+03  0.86606268932E+03  0.00000000000E+00 0.  1.
          2   -1    0    0  501    0  0.00000000000E+00 -0.00000000000E+00 -0.48391265289E+03  0.48391265289E+03  0.00000000000E+00 0. -1.
         24    2    1    2    0    0 -0.28951887010E+03 -0.12580368461E+03  0.17838068167E+02  0.32595092671E+03  0.79234252324E+02 0.  0.
        254    2    1    2    0    0  0.28951887010E+03  0.12580368461E+03  0.36431196826E+03  0.10240244155E+04  0.90346834483E+03 0.  0.
         23    2    4    4    0    0  0.53319247102E+03  0.15172854439E+03  0.47844358023E+03  0.73806487463E+03  0.92280752958E+02 0.  0.
         23    2    4    4    0    0 -0.24367360092E+03 -0.25924859780E+02 -0.11413161196E+03  0.28595954087E+03  0.93262597145E+02 0.  0.
          4    1    3    3  502    0 -0.24879907261E+03 -0.99849014089E+02 -0.13429520574E+02  0.26842346427E+03  0.00000000000E+00 0. -1.
         -3    1    3    3    0  502 -0.40719797491E+02 -0.25954670517E+02  0.31267588741E+02  0.57527462442E+02  0.00000000000E+00 0.  1.
         11    1    5    5    0    0  0.12240808507E+03  0.13042573627E+02  0.66077412395E+02  0.13971425283E+03  0.00000000000E+00 0.  1.
        -11    1    5    5    0    0  0.41078438596E+03  0.13868597076E+03  0.41236616783E+03  0.59835062179E+03  0.00000000000E+00 0. -1.
          2    1    6    6  503    0 -0.22239051717E+03 -0.50647943978E+02 -0.10950815407E+03  0.25301144671E+03  0.00000000000E+00 0. -1.
         -2    1    6    6    0  503 -0.21283083743E+02  0.24723084198E+02 -0.46234578923E+01  0.32948094159E+02  0.00000000000E+00 0.  1.
<mgrwt>
<rscale>  0 0.12947566E+04</rscale>
<asrwt>0</asrwt>
<pdfrwt beam="1">  1        2 0.74448100E-01 0.12947566E+04</pdfrwt>
<pdfrwt beam="2">  1       -1 0.13324041E+00 0.12947566E+04</pdfrwt>
<totfact> 0.34178898E+01</totfact>
</mgrwt>
</event>
<event>
12    6  0.1556619E-007  0.2845512E+04  0.7818608E-02  0.8289277E-01
          2   -1    0    0  501    0  0.00000000000E+00  0.00000000000E+00  0.15561366890E+04  0.15561366890E+04  0.00000000000E+00 0. -1.
         -1   -1    0    0    0  501 -0.00000000000E+00 -0.00000000000E+00 -0.13008073255E+04  0.13008073255E+04  0.00000000000E+00 0.  1.
         24    2    1    2    0    0 -0.12223142594E+04 -0.45327709195E+02  0.48748077759E+03  0.13190501779E+04  0.78416281792E+02 0.  0.
        254    2    1    2    0    0  0.12223142594E+04  0.45327709195E+02 -0.23215141413E+03  0.15378938366E+04  0.90283798302E+03 0.  0.
         23    2    4    4    0    0  0.33607821934E+03 -0.22358407655E+03  0.25706395080E+03  0.48696752613E+03  0.90094882752E+02 0.  0.
         23    2    4    4    0    0  0.88623604008E+03  0.26891178575E+03 -0.48921536493E+03  0.10509263105E+04  0.85945154130E+02 0.  0.
          2    1    3    3  502    0 -0.49784984527E+03  0.19530618477E+01  0.23360214896E+03  0.54993476603E+03  0.00000000000E+00 0. -1.
         -1    1    3    3    0  502 -0.72446441415E+03 -0.47280771043E+02  0.25387862864E+03  0.76911541186E+03  0.00000000000E+00 0.  1.
         11    1    5    5    0    0  0.27698698902E+03 -0.20000600571E+03  0.24916777591E+03  0.42285786614E+03  0.00000000000E+00 0. -1.
        -11    1    5    5    0    0  0.59091230322E+02 -0.23578070844E+02  0.78961748909E+01  0.64109659987E+02  0.00000000000E+00 0.  1.
          2    1    6    6  503    0  0.74014191591E+03  0.22762882049E+03 -0.44355559809E+03  0.89239369350E+03  0.00000000000E+00 0. -1.
         -2    1    6    6    0  503  0.14609412417E+03  0.41282965259E+02 -0.45659766847E+02  0.15853261698E+03  0.00000000000E+00 0.  1.
<mgrwt>
<rscale>  0 0.28455116E+04</rscale>
<asrwt>0</asrwt>
<pdfrwt beam="1">  1        2 0.23940564E+00 0.28455116E+04</pdfrwt>
<pdfrwt beam="2">  1       -1 0.20012420E+00 0.28455116E+04</pdfrwt>
<totfact> 0.17499207E+00</totfact>
</mgrwt>
</event>
<event>
12    6  0.1556619E-007  0.1748829E+04  0.7818608E-02  0.8733995E-01
         -1   -1    0    0    0  501 -0.00000000000E+00  0.00000000000E+00  0.53856758375E+03  0.53856758375E+03  0.00000000000E+00 0.  1.
          2   -1    0    0  501    0  0.00000000000E+00 -0.00000000000E+00 -0.14196936888E+04  0.14196936888E+04  0.00000000000E+00 0. -1.
         24    2    1    2    0    0 -0.39014052770E+02 -0.61923886961E+03 -0.47277328441E+03  0.78425261783E+03  0.80985901012E+02 0.  0.
        254    2    1    2    0    0  0.39014052770E+02  0.61923886961E+03 -0.40835282064E+03  0.11740086547E+04  0.90915643389E+03 0.  0.
         23    2    4    4    0    0 -0.34527562651E+01 -0.74329774947E+02  0.20842020136E+03  0.24026067879E+03  0.93538101680E+02 0.  0.
         23    2    4    4    0    0  0.42466809035E+02  0.69356864456E+03 -0.61677302200E+03  0.93374797594E+03  0.92926999951E+02 0.  0.
          4    1    3    3  502    0  0.40560564979E+01 -0.28712293908E+03 -0.26080273969E+03  0.38790991579E+03  0.00000000000E+00 0. -1.
         -1    1    3    3    0  502 -0.43070109268E+02 -0.33211593054E+03 -0.21197054472E+03  0.39634270204E+03  0.00000000000E+00 0.  1.
         11    1    5    5    0    0  0.37251399133E+02 -0.88657081821E+01  0.10122787122E+03  0.10822822844E+03  0.00000000000E+00 0. -1.
        -11    1    5    5    0    0 -0.40704155398E+02 -0.65464066765E+02  0.10719233014E+03  0.13203245035E+03  0.00000000000E+00 0.  1.
          3    1    6    6  503    0  0.30612685945E+02  0.58155315619E+03 -0.55867692638E+03  0.80700750807E+03  0.00000000000E+00 0. -1.
         -3    1    6    6    0  503  0.11854123091E+02  0.11201548837E+03 -0.58096095618E+02  0.12674046787E+03  0.00000000000E+00 0.  1.
<mgrwt>
<rscale>  0 0.17488293E+04</rscale>
<asrwt>0</asrwt>
<pdfrwt beam="1">  1        2 0.21841442E+00 0.17488293E+04</pdfrwt>
<pdfrwt beam="2">  1       -1 0.82856551E-01 0.17488293E+04</pdfrwt>
<totfact> 0.22039675E+01</totfact>
</mgrwt>
</event>
<event>
12    6  0.1556619E-007  0.1280194E+04  0.7818608E-02  0.9045421E-01
          2   -1    0    0  501    0  0.00000000000E+00  0.00000000000E+00  0.20067020851E+04  0.20067020851E+04  0.00000000000E+00 0. -1.
         -1   -1    0    0    0  501 -0.00000000000E+00 -0.00000000000E+00 -0.20417780035E+03  0.20417780035E+03  0.00000000000E+00 0.  1.
         24    2    1    2    0    0 -0.67668931833E+02  0.29576297368E+03  0.21150017243E+03  0.37778315123E+03  0.77025745566E+02 0.  0.
        254    2    1    2    0    0  0.67668931833E+02 -0.29576297368E+03  0.15910241123E+04  0.18330967342E+04  0.85838865910E+03 0.  0.
         23    2    4    4    0    0  0.23731702947E+03 -0.68510778829E+02  0.55730072866E+02  0.26921270730E+03  0.91414120679E+02 0.  0.
         23    2    4    4    0    0 -0.16964809764E+03 -0.22725219486E+03  0.15352940395E+04  0.15638840269E+04  0.90451229628E+02 0.  0.
          4    1    3    3  502    0 -0.17055715187E+02  0.27588904413E+02  0.53139674128E+02  0.62256485876E+02  0.00000000000E+00 0. -1.
         -1    1    3    3    0  502 -0.50613216646E+02  0.26817406927E+03  0.15836049830E+03  0.31552666536E+03  0.00000000000E+00 0.  1.
         11    1    5    5    0    0  0.19076914946E+03 -0.69882449687E+02  0.77960803368E+02  0.21761045936E+03  0.00000000000E+00 0.  1.
        -11    1    5    5    0    0  0.46547880012E+02  0.13716708583E+01 -0.22230730502E+02  0.51602247947E+02  0.00000000000E+00 0. -1.
          3    1    6    6  503    0  0.11102655515E+02 -0.10114837319E+02  0.68173503036E+02  0.69808347707E+02  0.00000000000E+00 0. -1.
         -3    1    6    6    0  503 -0.18075075315E+03 -0.21713735754E+03  0.14671205364E+04  0.14940756792E+04  0.00000000000E+00 0.  1.
<mgrwt>
<rscale>  0 0.12801938E+04</rscale>
<asrwt>0</asrwt>
<pdfrwt beam="1">  1        2 0.30872338E+00 0.12801938E+04</pdfrwt>
<pdfrwt beam="2">  1       -1 0.31411971E-01 0.12801938E+04</pdfrwt>
<totfact> 0.69753480E+01</totfact>
</mgrwt>
</event>
<event>
12    6  0.1556619E-007  0.2766206E+04  0.7818608E-02  0.8313837E-01
         -1   -1    0    0    0  501 -0.00000000000E+00  0.00000000000E+00  0.89035991136E+03  0.89035991136E+03  0.00000000000E+00 0.  1.
          2   -1    0    0  501    0  0.00000000000E+00 -0.00000000000E+00 -0.21485407157E+04  0.21485407157E+04  0.00000000000E+00 0. -1.
         24    2    1    2    0    0  0.10655965477E+04 -0.36221073708E+03 -0.11408425257E+04  0.16044885990E+04  0.78545372545E+02 0.  0.
        254    2    1    2    0    0 -0.10655965477E+04  0.36221073708E+03 -0.11733827860E+03  0.14344120280E+04  0.88151969574E+03 0.  0.
         23    2    4    4    0    0 -0.68963947972E+03 -0.11941826363E+03  0.20861328867E+03  0.73607259705E+03  0.91760722736E+02 0.  0.
         23    2    4    4    0    0 -0.37595706794E+03  0.48162900072E+03 -0.32595156727E+03  0.69833943094E+03  0.90129492091E+02 0.  0.
          4    1    3    3  502    0  0.72531426531E+03 -0.26023309833E+03 -0.82852171209E+03  0.11314814521E+04  0.00000000000E+00 0. -1.
         -3    1    3    3    0  502  0.34028228234E+03 -0.10197763875E+03 -0.31232081362E+03  0.47300714699E+03  0.00000000000E+00 0.  1.
         11    1    5    5    0    0 -0.29385114100E+03 -0.50067774325E+01  0.88207719249E+02  0.30684550286E+03  0.00000000000E+00 0.  1.
        -11    1    5    5    0    0 -0.39578833872E+03 -0.11441148620E+03  0.12040556942E+03  0.42922709419E+03  0.00000000000E+00 0. -1.
          2    1    6    6  503    0 -0.30644024371E+03  0.35478260755E+03 -0.21352921585E+03  0.51514177427E+03  0.00000000000E+00 0. -1.
         -2    1    6    6    0  503 -0.69516824232E+02  0.12684639317E+03 -0.11242235142E+03  0.18319765667E+03  0.00000000000E+00 0.  1.
<mgrwt>
<rscale>  0 0.27662064E+04</rscale>
<asrwt>0</asrwt>
<pdfrwt beam="1">  1        2 0.33054472E+00 0.27662064E+04</pdfrwt>
<pdfrwt beam="2">  1       -1 0.13697845E+00 0.27662064E+04</pdfrwt>
<totfact> 0.24301647E+00</totfact>
</mgrwt>
</event>
<event>
12    6  0.1556619E-007  0.1814593E+04  0.7818608E-02  0.8698577E-01
          2   -1    0    0  501    0  0.00000000000E+00  0.00000000000E+00  0.92371250976E+03  0.92371250976E+03  0.00000000000E+00 0. -1.
         -1   -1    0    0    0  501 -0.00000000000E+00 -0.00000000000E+00 -0.89117230131E+03  0.89117230131E+03  0.00000000000E+00 0.  1.
         24    2    1    2    0    0 -0.24612679333E+03  0.54920123366E+02  0.64719294906E+03  0.69929202047E+03  0.80969119045E+02 0.  0.
        254    2    1    2    0    0  0.24612679333E+03 -0.54920123366E+02 -0.61465274060E+03  0.11155927906E+04  0.89618896700E+03 0.  0.
         23    2    4    4    0    0  0.52320328131E+03  0.16509830566E+03 -0.29697919287E+03  0.63127026197E+03  0.96469573148E+02 0.  0.
         23    2    4    4    0    0 -0.27707648798E+03 -0.22001842902E+03 -0.31767354773E+03  0.48432252864E+03  0.92045312327E+02 0.  0.
          4    1    3    3  502    0 -0.15013434340E+03  0.63247418208E+02  0.47238617115E+03  0.49968915505E+03  0.00000000000E+00 0. -1.
         -3    1    3    3    0  502 -0.95992449927E+02 -0.83272948428E+01  0.17480677790E+03  0.19960286542E+03  0.00000000000E+00 0.  1.
         11    1    5    5    0    0  0.99584215616E+02  0.70327438533E+02 -0.49415473411E+02  0.13154791379E+03  0.00000000000E+00 0.  1.
        -11    1    5    5    0    0  0.42361906569E+03  0.94770867123E+02 -0.24756371946E+03  0.49972234817E+03  0.00000000000E+00 0. -1.
          4    1    6    6  503    0 -0.27281827486E+03 -0.18930392117E+03 -0.30481905128E+03  0.45075541005E+03  0.00000000000E+00 0. -1.
         -4    1    6    6    0  503 -0.42582131210E+01 -0.30714507849E+02 -0.12854496452E+02  0.33567118590E+02  0.00000000000E+00 0.  1.
<mgrwt>
<rscale>  0 0.18145931E+04</rscale>
<asrwt>0</asrwt>
<pdfrwt beam="1">  1        2 0.14210962E+00 0.18145931E+04</pdfrwt>
<pdfrwt beam="2">  1       -1 0.13710343E+00 0.18145931E+04</pdfrwt>
<totfact> 0.13462962E+01</totfact>
</mgrwt>
</event>
<event>
12    6  0.1556619E-007  0.1202670E+04  0.7818608E-02  0.9110522E-01
         -1   -1    0    0    0  501 -0.00000000000E+00  0.00000000000E+00  0.69676224817E+03  0.69676224817E+03  0.00000000000E+00 0.  1.
          2   -1    0    0  501    0  0.00000000000E+00 -0.00000000000E+00 -0.51897750174E+03  0.51897750174E+03  0.00000000000E+00 0. -1.
         24    2    1    2    0    0  0.19384011547E+03 -0.40174681671E+02  0.21160692401E+03  0.30091945540E+03  0.81160538037E+02 0.  0.
        254    2    1    2    0    0 -0.19384011547E+03  0.40174681671E+02 -0.33822177585E+02  0.91482029451E+03  0.89250447402E+03 0.  0.
         23    2    4    4    0    0 -0.26140995259E+03  0.38371659844E+03  0.16599444862E+03  0.50143904864E+03  0.91177690820E+02 0.  0.
         23    2    4    4    0    0  0.67569837117E+02 -0.34354191677E+03 -0.19981662621E+03  0.41338124587E+03  0.91491195540E+02 0.  0.
          2    1    3    3  502    0  0.27490943412E+02 -0.33710836866E+02  0.69749244917E+02  0.82201761893E+02  0.00000000000E+00 0. -1.
         -3    1    3    3    0  502  0.16634917206E+03 -0.64638448055E+01  0.14185767910E+03  0.21871769351E+03  0.00000000000E+00 0.  1.
         11    1    5    5    0    0 -0.39513544362E+02  0.13113157237E+03  0.47497696859E+02  0.14495806520E+03  0.00000000000E+00 0.  1.
        -11    1    5    5    0    0 -0.22189640822E+03  0.25258502607E+03  0.11849675176E+03  0.35648098344E+03  0.00000000000E+00 0. -1.
          3    1    6    6  503    0  0.33462744270E+02 -0.13771436364E+03 -0.13287714562E+03  0.19427129751E+03  0.00000000000E+00 0. -1.
         -3    1    6    6    0  503  0.34107092847E+02 -0.20582755313E+03 -0.66939480584E+02  0.21910994836E+03  0.00000000000E+00 0.  1.
<mgrwt>
<rscale>  0 0.12026702E+04</rscale>
<asrwt>0</asrwt>
<pdfrwt beam="1">  1        2 0.79842692E-01 0.12026702E+04</pdfrwt>
<pdfrwt beam="2">  1       -1 0.10719419E+00 0.12026702E+04</pdfrwt>
<totfact> 0.53974133E+01</totfact>
</mgrwt>
</event>
<event>
12    6  0.1556619E-007  0.2062264E+04  0.7818608E-02  0.8578051E-01
         -1   -1    0    0    0  501 -0.00000000000E+00  0.00000000000E+00  0.30121085459E+03  0.30121085459E+03  0.00000000000E+00 0.  1.
          2   -1    0    0  501    0  0.00000000000E+00 -0.00000000000E+00 -0.35298641389E+04  0.35298641389E+04  0.00000000000E+00 0. -1.
         24    2    1    2    0    0  0.12489024500E+03  0.80584017236E+03 -0.16147454888E+04  0.18108399072E+04  0.82232713406E+02 0.  0.
        254    2    1    2    0    0 -0.12489024500E+03 -0.80584017236E+03 -0.16139077955E+04  0.20202350863E+04  0.90093033854E+03 0.  0.
         23    2    4    4    0    0  0.27881744788E+02  0.16842700751E+03 -0.11941998564E+03  0.22743100133E+03  0.91206791666E+02 0.  0.
         23    2    4    4    0    0 -0.15277198979E+03 -0.97426717987E+03 -0.14944878099E+04  0.17928040850E+04  0.90093588265E+02 0.  0.
          4    1    3    3  502    0  0.46622953657E+02  0.30995161914E+03 -0.71088522701E+03  0.77691795706E+03  0.00000000000E+00 0. -1.
         -3    1    3    3    0  502  0.78267291340E+02  0.49588855322E+03 -0.90386026183E+03  0.10339219502E+04  0.00000000000E+00 0.  1.
         11    1    5    5    0    0  0.12974886385E+02  0.38051244146E+02  0.11755191601E+02  0.41885909174E+02  0.00000000000E+00 0.  1.
        -11    1    5    5    0    0  0.14906858404E+02  0.13037576337E+03 -0.13117517724E+03  0.18554509216E+03  0.00000000000E+00 0. -1.
          3    1    6    6  503    0 -0.12320237070E+03 -0.79650750431E+03 -0.11543556533E+04  0.14078849395E+04  0.00000000000E+00 0. -1.
         -3    1    6    6    0  503 -0.29569619089E+02 -0.17775967557E+03 -0.34013215653E+03  0.38491914545E+03  0.00000000000E+00 0.  1.
<mgrwt>
<rscale>  0 0.20622642E+04</rscale>
<asrwt>0</asrwt>
<pdfrwt beam="1">  1        2 0.54305600E+00 0.20622642E+04</pdfrwt>
<pdfrwt beam="2">  1       -1 0.46340133E-01 0.20622642E+04</pdfrwt>
<totfact> 0.37967827E+00</totfact>
</mgrwt>
</event>
<event>
12    6  0.1556619E-007  0.1212193E+04  0.7818608E-02  0.9102251E-01
          2   -1    0    0  501    0  0.00000000000E+00  0.00000000000E+00  0.84925360807E+03  0.84925360807E+03  0.00000000000E+00 0. -1.
         -3   -1    0    0    0  501 -0.00000000000E+00 -0.00000000000E+00 -0.43255964980E+03  0.43255964980E+03  0.00000000000E+00 0.  1.
         24    2    1    2    0    0 -0.58293179008E+02 -0.16901026493E+03 -0.10918054215E+03  0.22441107052E+03  0.80482131061E+02 0.  0.
        254    2    1    2    0    0  0.58293179008E+02  0.16901026493E+03  0.52587450041E+03  0.10574021873E+04  0.89977376671E+03 0.  0.
         23    2    4    4    0    0  0.68969007850E+02  0.36645183392E+03 -0.97848158715E+02  0.39619508502E+03  0.91392628848E+02 0.  0.
         23    2    4    4    0    0 -0.10675828842E+02 -0.19744156899E+03  0.62372265913E+03  0.66120710233E+03  0.95224630086E+02 0.  0.
          2    1    3    3  502    0 -0.50991492793E+01 -0.97490115283E+01  0.12794189798E+02  0.16874117510E+02  0.00000000000E+00 0. -1.
         -1    1    3    3    0  502 -0.53194029729E+02 -0.15926125340E+03 -0.12197473194E+03  0.20753695301E+03  0.00000000000E+00 0.  1.
         11    1    5    5    0    0  0.82000772363E+02  0.19739942492E+03 -0.43417985381E+02  0.21811873161E+03  0.00000000000E+00 0.  1.
        -11    1    5    5    0    0 -0.13031764512E+02  0.16905240900E+03 -0.54430173334E+02  0.17807635341E+03  0.00000000000E+00 0. -1.
          2    1    6    6  503    0  0.23908463307E+02 -0.10732441859E+03  0.44163442700E+03  0.45511659227E+03  0.00000000000E+00 0. -1.
         -2    1    6    6    0  503 -0.34584292150E+02 -0.90117150392E+02  0.18208823212E+03  0.20609051006E+03  0.00000000000E+00 0.  1.
<mgrwt>
<rscale>  0 0.12121928E+04</rscale>
<asrwt>0</asrwt>
<pdfrwt beam="1">  1        2 0.13065440E+00 0.12121928E+04</pdfrwt>
<pdfrwt beam="2">  1       -3 0.66547639E-01 0.12121928E+04</pdfrwt>
<totfact> 0.43309418E+01</totfact>
</mgrwt>
</event>
<event>
12    6  0.1556619E-007  0.1662496E+04  0.7818608E-02  0.8783048E-01
          2   -1    0    0  501    0  0.00000000000E+00  0.00000000000E+00  0.23939285197E+04  0.23939285197E+04  0.00000000000E+00 0. -1.
         -1   -1    0    0    0  501 -0.00000000000E+00 -0.00000000000E+00 -0.28863554968E+03  0.28863554968E+03  0.00000000000E+00 0.  1.
         24    2    1    2    0    0 -0.24944872874E+03 -0.38262041651E+03  0.11806053510E+03  0.47838889727E+03  0.79338488027E+02 0.  0.
        254    2    1    2    0    0  0.24944872874E+03  0.38262041651E+03  0.19872324349E+04  0.22041751721E+04  0.83706175853E+03 0.  0.
         23    2    4    4    0    0  0.16406336270E+03  0.10789287429E+02  0.17181873433E+04  0.17284024162E+04  0.90410011378E+02 0.  0.
         23    2    4    4    0    0  0.85385366038E+02  0.37183112908E+03  0.26904509163E+03  0.47577275587E+03  0.91790002801E+02 0.  0.
          2    1    3    3  502    0 -0.59409493575E+02 -0.13667088257E+03  0.67056746717E+02  0.16341672298E+03  0.00000000000E+00 0. -1.
         -1    1    3    3    0  502 -0.19003923517E+03 -0.24594953394E+03  0.51003788386E+02  0.31497217429E+03  0.00000000000E+00 0.  1.
         11    1    5    5    0    0  0.55640869444E+02  0.21063128823E+02  0.10237194294E+04  0.10254467474E+04  0.00000000000E+00 0. -1.
        -11    1    5    5    0    0  0.10842249326E+03 -0.10273841394E+02  0.69446791388E+03  0.70295566878E+03  0.00000000000E+00 0.  1.
          1    1    6    6  503    0  0.95598538043E+02  0.36027852656E+03  0.24130740331E+03  0.44403711564E+03  0.00000000000E+00 0. -1.
         -1    1    6    6    0  503 -0.10213172005E+02  0.11552602520E+02  0.27737688324E+02  0.31735640232E+02  0.00000000000E+00 0.  1.
<mgrwt>
<rscale>  0 0.16624956E+04</rscale>
<asrwt>0</asrwt>
<pdfrwt beam="1">  1        2 0.36829668E+00 0.16624956E+04</pdfrwt>
<pdfrwt beam="2">  1       -1 0.44405471E-01 0.16624956E+04</pdfrwt>
<totfact> 0.21894925E+01</totfact>
</mgrwt>
</event>
<event>
12    6  0.1556619E-007  0.1687866E+04  0.7818608E-02  0.8768316E-01
         -1   -1    0    0    0  501 -0.00000000000E+00  0.00000000000E+00  0.75813810815E+03  0.75813810815E+03  0.00000000000E+00 0.  1.
          2   -1    0    0  501    0  0.00000000000E+00 -0.00000000000E+00 -0.93943634196E+03  0.93943634196E+03  0.00000000000E+00 0. -1.
         24    2    1    2    0    0 -0.63714023275E+02  0.29071902716E+03  0.45981363600E+03  0.55338367308E+03  0.78916920054E+02 0.  0.
        254    2    1    2    0    0  0.63714023275E+02 -0.29071902716E+03 -0.64111186980E+03  0.11441907770E+04  0.89976167684E+03 0.  0.
         23    2    4    4    0    0  0.16353062180E+03 -0.30780317273E+03 -0.83350016698E+03  0.90840409691E+03  0.94817812199E+02 0.  0.
         23    2    4    4    0    0 -0.99816598522E+02  0.17084145572E+02  0.19238829717E+03  0.23578668012E+03  0.91251741155E+02 0.  0.
          4    1    3    3  502    0 -0.25078634553E+02  0.95994536423E+02  0.91458033302E+02  0.13493872976E+03  0.00000000000E+00 0. -1.
         -3    1    3    3    0  502 -0.38635388722E+02  0.19472449074E+03  0.36835560270E+03  0.41844494332E+03  0.00000000000E+00 0.  1.
         11    1    5    5    0    0 -0.92294271292E+01 -0.26966209530E+02 -0.39901698345E+02  0.49035745251E+02  0.00000000000E+00 0.  1.
        -11    1    5    5    0    0  0.17276004893E+03 -0.28083696320E+03 -0.79359846863E+03  0.85936835165E+03  0.00000000000E+00 0. -1.
          2    1    6    6  503    0 -0.16430650798E+02  0.35451253986E+02  0.11158822022E+03  0.11823150421E+03  0.00000000000E+00 0. -1.
         -2    1    6    6    0  503 -0.83385947724E+02 -0.18367108414E+02  0.80800076952E+02  0.11755517592E+03  0.00000000000E+00 0.  1.
<mgrwt>
<rscale>  0 0.16878655E+04</rscale>
<asrwt>0</asrwt>
<pdfrwt beam="1">  1        2 0.14452867E+00 0.16878655E+04</pdfrwt>
<pdfrwt beam="2">  1       -1 0.11663663E+00 0.16878655E+04</pdfrwt>
<totfact> 0.19897877E+01</totfact>
</mgrwt>
</event>
<event>
12    6  0.1556619E-007  0.1777730E+04  0.7818608E-02  0.8718233E-01
          2   -1    0    0  501    0  0.00000000000E+00  0.00000000000E+00  0.10922406457E+04  0.10922406457E+04  0.00000000000E+00 0. -1.
         -1   -1    0    0    0  501 -0.00000000000E+00 -0.00000000000E+00 -0.72335795204E+03  0.72335795204E+03  0.00000000000E+00 0.  1.
         24    2    1    2    0    0 -0.40990320704E+03  0.44655055225E+03 -0.39692224595E+02  0.61265717301E+03  0.79657417016E+02 0.  0.
        254    2    1    2    0    0  0.40990320704E+03 -0.44655055225E+03  0.40857491823E+03  0.12029414247E+04  0.95535677764E+03 0.  0.
         23    2    4    4    0    0  0.11791158120E+03 -0.24900664242E+03  0.68618907506E+03  0.74498303194E+03  0.90756940216E+02 0.  0.
         23    2    4    4    0    0  0.29199162584E+03 -0.19754390983E+03 -0.27761415683E+03  0.45795839276E+03  0.91507177608E+02 0.  0.
          2    1    3    3  502    0 -0.19720673735E+02  0.43874684129E+02  0.11991413572E+02  0.49575063081E+02  0.00000000000E+00 0. -1.
         -1    1    3    3    0  502 -0.39018253331E+03  0.40267586812E+03 -0.51683638167E+02  0.56308210993E+03  0.00000000000E+00 0.  1.
         11    1    5    5    0    0  0.95226643048E+02 -0.16750636004E+03  0.56682644696E+03  0.59868081243E+03  0.00000000000E+00 0. -1.
        -11    1    5    5    0    0  0.22684938157E+02 -0.81500282376E+02  0.11936262811E+03  0.14630221951E+03  0.00000000000E+00 0.  1.
          3    1    6    6  503    0  0.24852631788E+03 -0.18283101765E+03 -0.27276130283E+03  0.41181456994E+03  0.00000000000E+00 0. -1.
         -3    1    6    6    0  503  0.43465307961E+02 -0.14712892188E+02 -0.48528540005E+01  0.46143822822E+02  0.00000000000E+00 0.  1.
<mgrwt>
<rscale>  0 0.17777300E+04</rscale>
<asrwt>0</asrwt>
<pdfrwt beam="1">  1        2 0.16803702E+00 0.17777300E+04</pdfrwt>
<pdfrwt beam="2">  1       -1 0.11128584E+00 0.17777300E+04</pdfrwt>
<totfact> 0.17643980E+01</totfact>
</mgrwt>
</event>
<event>
12    6  0.1556619E-007  0.1462796E+04  0.7818608E-02  0.8909577E-01
         -1   -1    0    0    0  501 -0.00000000000E+00  0.00000000000E+00  0.24654000731E+03  0.24654000731E+03  0.00000000000E+00 0.  1.
          2   -1    0    0  501    0  0.00000000000E+00 -0.00000000000E+00 -0.21698010838E+04  0.21698010838E+04  0.00000000000E+00 0. -1.
         24    2    1    2    0    0  0.17419882864E+02  0.10745333916E+03  0.12119512073E+03  0.18093024431E+03  0.78726257374E+02 0.  0.
        254    2    1    2    0    0 -0.17419882864E+02 -0.10745333916E+03 -0.20444561972E+04  0.22354108468E+04  0.89744684480E+03 0.  0.
         23    2    4    4    0    0  0.27559704489E+03 -0.56879852136E+02 -0.18385419051E+04  0.18621420181E+04  0.90263557509E+02 0.  0.
         23    2    4    4    0    0 -0.29301692776E+03 -0.50573487023E+02 -0.20591429212E+03  0.37326882876E+03  0.92262263599E+02 0.  0.
          2    1    3    3  502    0  0.18776544534E+01  0.14413976039E+02  0.74074458114E+02  0.75487175311E+02  0.00000000000E+00 0. -1.
         -1    1    3    3    0  502  0.15542228410E+02  0.93039363120E+02  0.47120662621E+02  0.10544306900E+03  0.00000000000E+00 0.  1.
         11    1    5    5    0    0  0.22216956353E+03 -0.25280719031E+02 -0.16046168697E+04  0.16201215165E+04  0.00000000000E+00 0. -1.
        -11    1    5    5    0    0  0.53427481362E+02 -0.31599133105E+02 -0.23392503542E+03  0.24202050156E+03  0.00000000000E+00 0.  1.
          3    1    6    6  503    0 -0.10017755797E+03  0.22890626156E+02 -0.89900795741E+02  0.13653452663E+03  0.00000000000E+00 0. -1.
         -3    1    6    6    0  503 -0.19283936979E+03 -0.73464113179E+02 -0.11601349638E+03  0.23673430213E+03  0.00000000000E+00 0.  1.
<mgrwt>
<rscale>  0 0.14627956E+04</rscale>
<asrwt>0</asrwt>
<pdfrwt beam="1">  1        2 0.33381557E+00 0.14627956E+04</pdfrwt>
<pdfrwt beam="2">  1       -1 0.37929230E-01 0.14627956E+04</pdfrwt>
<totfact> 0.39813843E+01</totfact>
</mgrwt>
</event>
<event>
12    6  0.1556619E-007  0.1637213E+04  0.7818608E-02  0.8798007E-01
         -1   -1    0    0    0  501 -0.00000000000E+00  0.00000000000E+00  0.60141331659E+03  0.60141331659E+03  0.00000000000E+00 0.  1.
          2   -1    0    0  501    0  0.00000000000E+00 -0.00000000000E+00 -0.11142367162E+04  0.11142367162E+04  0.00000000000E+00 0. -1.
         24    2    1    2    0    0 -0.15255829253E+03 -0.51067876774E+03 -0.13325433509E+01  0.53866386218E+03  0.78039376696E+02 0.  0.
        254    2    1    2    0    0  0.15255829253E+03  0.51067876774E+03 -0.51149085622E+03  0.11769861706E+04  0.91630055838E+03 0.  0.
         23    2    4    4    0    0 -0.13442478704E+03  0.19657747144E+03 -0.66830564839E+03  0.71533292408E+03  0.91411306479E+02 0.  0.
         23    2    4    4    0    0  0.28698307957E+03  0.31410129630E+03  0.15681479216E+03  0.46165324650E+03  0.86682920249E+02 0.  0.
          4    1    3    3  502    0 -0.15067365230E+02 -0.78931951785E+02 -0.27146521984E+02  0.84818701731E+02  0.00000000000E+00 0. -1.
         -3    1    3    3    0  502 -0.13749092730E+03 -0.43174681595E+03  0.25813978633E+02  0.45384516045E+03  0.00000000000E+00 0.  1.
         11    1    5    5    0    0  0.13804791203E+02  0.11890780468E+02 -0.51555108607E+02  0.54679906216E+02  0.00000000000E+00 0. -1.
        -11    1    5    5    0    0 -0.14822957825E+03  0.18468669097E+03 -0.61675053978E+03  0.66065301786E+03  0.00000000000E+00 0.  1.
          2    1    6    6  503    0  0.15361388182E+03  0.12738713717E+03  0.37584015827E+02  0.20306960789E+03  0.00000000000E+00 0.  1.
         -2    1    6    6    0  503  0.13336919775E+03  0.18671415913E+03  0.11923077634E+03  0.25858363861E+03  0.00000000000E+00 0. -1.
<mgrwt>
<rscale>  0 0.16372132E+04</rscale>
<asrwt>0</asrwt>
<pdfrwt beam="1">  1        2 0.17142103E+00 0.16372132E+04</pdfrwt>
<pdfrwt beam="2">  1       -1 0.92525126E-01 0.16372132E+04</pdfrwt>
<totfact> 0.26454708E+01</totfact>
</mgrwt>
</event>
<event>
12    6  0.1556619E-007  0.1744932E+04  0.7818608E-02  0.8736145E-01
          2   -1    0    0  501    0  0.00000000000E+00  0.00000000000E+00  0.19577360911E+04  0.19577360911E+04  0.00000000000E+00 0. -1.
         -1   -1    0    0    0  501 -0.00000000000E+00 -0.00000000000E+00 -0.38881480241E+03  0.38881480241E+03  0.00000000000E+00 0.  1.
         24    2    1    2    0    0  0.12691500884E+03  0.46075749844E+03  0.19002410052E+02  0.48492263120E+03  0.79899779890E+02 0.  0.
        254    2    1    2    0    0 -0.12691500884E+03 -0.46075749844E+03  0.15499188787E+04  0.18616282623E+04  0.91378682682E+03 0.  0.
         23    2    4    4    0    0 -0.11286897579E+03 -0.31867334373E+03  0.51280553136E+02  0.35334776887E+03  0.89066519757E+02 0.  0.
         23    2    4    4    0    0 -0.14046033051E+02 -0.14208415471E+03  0.14986383255E+04  0.15082804935E+04  0.92779405891E+02 0.  0.
          4    1    3    3  502    0  0.17031346976E+02  0.18191418828E+02  0.14632619171E+02  0.28898235977E+02  0.00000000000E+00 0. -1.
         -3    1    3    3    0  502  0.10988366187E+03  0.44256607961E+03  0.43697908809E+01  0.45602439522E+03  0.00000000000E+00 0.  1.
         11    1    5    5    0    0 -0.60221724975E+02 -0.26797034356E+03  0.25471898739E+02  0.27583251950E+03  0.00000000000E+00 0. -1.
        -11    1    5    5    0    0 -0.52647250815E+02 -0.50703000163E+02  0.25808654397E+02  0.77515249375E+02  0.00000000000E+00 0.  1.
          1    1    6    6  503    0 -0.18767549243E+02 -0.13331838892E+03  0.14864851554E+04  0.14925696402E+04  0.00000000000E+00 0. -1.
         -1    1    6    6    0  503  0.47215161915E+01 -0.87657657853E+01  0.12153170124E+02  0.15710853224E+02  0.00000000000E+00 0.  1.
<mgrwt>
<rscale>  0 0.17449318E+04</rscale>
<asrwt>0</asrwt>
<pdfrwt beam="1">  1        2 0.30119016E+00 0.17449318E+04</pdfrwt>
<pdfrwt beam="2">  1       -1 0.59817663E-01 0.17449318E+04</pdfrwt>
<totfact> 0.21582637E+01</totfact>
</mgrwt>
</event>
<event>
12    6  0.1556619E-007  0.1384307E+04  0.7818608E-02  0.8965257E-01
          2   -1    0    0  501    0  0.00000000000E+00  0.00000000000E+00  0.23856744227E+04  0.23856744227E+04  0.00000000000E+00 0. -1.
         -1   -1    0    0    0  501 -0.00000000000E+00 -0.00000000000E+00 -0.20081377314E+03  0.20081377314E+03  0.00000000000E+00 0.  1.
         24    2    1    2    0    0  0.34748272359E+02 -0.20448143090E+03  0.10197791999E+02  0.22402063061E+03  0.84030648931E+02 0.  0.
        254    2    1    2    0    0 -0.34748272359E+02  0.20448143090E+03  0.21746628576E+04  0.23624675652E+04  0.89948560560E+03 0.  0.
         23    2    4    4    0    0  0.29928736435E+03 -0.79634486428E+02  0.16067576350E+04  0.16390634466E+04  0.94574344138E+02 0.  0.
         23    2    4    4    0    0 -0.33403563671E+03  0.28411591733E+03  0.56790522259E+03  0.72340411862E+03  0.92171123051E+02 0.  0.
          2    1    3    3  502    0  0.18759057898E+02 -0.85548880196E+02  0.45819100366E+02  0.98842820247E+02  0.00000000000E+00 0. -1.
         -1    1    3    3    0  502  0.15989214461E+02 -0.11893255071E+03 -0.35621308367E+02  0.12517781036E+03  0.00000000000E+00 0.  1.
         11    1    5    5    0    0  0.12166955582E+02  0.16928130361E+02  0.96664057835E+02  0.98886482811E+02  0.00000000000E+00 0. -1.
        -11    1    5    5    0    0  0.28712040877E+03 -0.96562616789E+02  0.15100935771E+04  0.15401769638E+04  0.00000000000E+00 0.  1.
          1    1    6    6  503    0 -0.84494170733E+02  0.33419471232E+02  0.15532810452E+03  0.17995262154E+03  0.00000000000E+00 0. -1.
         -1    1    6    6    0  503 -0.24954146597E+03  0.25069644610E+03  0.41257711807E+03  0.54345149709E+03  0.00000000000E+00 0.  1.
<mgrwt>
<rscale>  0 0.13843067E+04</rscale>
<asrwt>0</asrwt>
<pdfrwt beam="1">  1        2 0.36702681E+00 0.13843067E+04</pdfrwt>
<pdfrwt beam="2">  1       -1 0.30894428E-01 0.13843067E+04</pdfrwt>
<totfact> 0.43690726E+01</totfact>
</mgrwt>
</event>
<event>
12    6  0.1556619E-007  0.1507369E+04  0.7818608E-02  0.8879567E-01
         -1   -1    0    0    0  501 -0.00000000000E+00  0.00000000000E+00  0.25131620936E+03  0.25131620936E+03  0.00000000000E+00 0.  1.
          2   -1    0    0  501    0  0.00000000000E+00 -0.00000000000E+00 -0.22602607881E+04  0.22602607881E+04  0.00000000000E+00 0. -1.
         24    2    1    2    0    0  0.38246587082E+02 -0.47091813925E+03 -0.74256199563E+03  0.88358234437E+03  0.78056048102E+02 0.  0.
        254    2    1    2    0    0 -0.38246587082E+02  0.47091813925E+03 -0.12663825831E+04  0.16279946531E+04  0.90742219963E+03 0.  0.
         23    2    4    4    0    0  0.40582354314E+03  0.35817376957E+03 -0.58687441045E+03  0.80344479276E+03  0.90115281669E+02 0.  0.
         23    2    4    4    0    0 -0.44407013023E+03  0.11274436967E+03 -0.67950817265E+03  0.82454986032E+03  0.90782938937E+02 0.  0.
          2    1    3    3  502    0  0.39722378536E+02 -0.42839790453E+03 -0.70927459960E+03  0.82956198659E+03  0.00000000000E+00 0. -1.
         -1    1    3    3    0  502 -0.14757914542E+01 -0.42520234713E+02 -0.33287396032E+02  0.54020357784E+02  0.00000000000E+00 0.  1.
         11    1    5    5    0    0  0.11867246958E+03  0.60733799375E+02 -0.11482922220E+03  0.17594743446E+03  0.00000000000E+00 0. -1.
        -11    1    5    5    0    0  0.28715107357E+03  0.29743997020E+03 -0.47204518825E+03  0.62749735830E+03  0.00000000000E+00 0.  1.
          4    1    6    6  503    0 -0.27631597754E+03  0.26088527650E+02 -0.38192633992E+03  0.47212165789E+03  0.00000000000E+00 0. -1.
         -4    1    6    6    0  503 -0.16775415268E+03  0.86655842024E+02 -0.29758183272E+03  0.35242820242E+03  0.00000000000E+00 0.  1.
<mgrwt>
<rscale>  0 0.15073688E+04</rscale>
<asrwt>0</asrwt>
<pdfrwt beam="1">  1        2 0.34773242E+00 0.15073688E+04</pdfrwt>
<pdfrwt beam="2">  1       -1 0.38664033E-01 0.15073688E+04</pdfrwt>
<totfact> 0.34081477E+01</totfact>
</mgrwt>
</event>
<event>
12    6  0.1556619E-007  0.1332255E+04  0.7818608E-02  0.9004371E-01
         -1   -1    0    0    0  501 -0.00000000000E+00  0.00000000000E+00  0.25326244771E+03  0.25326244771E+03  0.00000000000E+00 0.  1.
          2   -1    0    0  501    0  0.00000000000E+00 -0.00000000000E+00 -0.17520394296E+04  0.17520394296E+04  0.00000000000E+00 0. -1.
         24    2    1    2    0    0 -0.25362616509E+02  0.31285300764E+03 -0.67357097650E+03  0.74749623104E+03  0.80823810427E+02 0.  0.
        254    2    1    2    0    0  0.25362616509E+02 -0.31285300764E+03 -0.82520600535E+03  0.12578056462E+04  0.89587377777E+03 0.  0.
         23    2    4    4    0    0 -0.27383778445E+03  0.14627663354E+03 -0.54870810654E+03  0.63694350164E+03  0.90732862725E+02 0.  0.
         23    2    4    4    0    0  0.29920040096E+03 -0.45912964119E+03 -0.27649789881E+03  0.62086214459E+03  0.93262035081E+02 0.  0.
          4    1    3    3  502    0 -0.27035403823E+02  0.31341786593E+03 -0.67532942158E+03  0.74500436199E+03  0.00000000000E+00 0. -1.
         -3    1    3    3    0  502  0.16727873144E+01 -0.56485828090E+00  0.17584450766E+01  0.24918690504E+01  0.00000000000E+00 0.  1.
         11    1    5    5    0    0 -0.14271303630E+03  0.11857718751E+03 -0.26898781113E+03  0.32677515613E+03  0.00000000000E+00 0.  1.
        -11    1    5    5    0    0 -0.13112474814E+03  0.27699446034E+02 -0.27972029542E+03  0.31016834551E+03  0.00000000000E+00 0. -1.
          1    1    6    6  503    0  0.24126211042E+03 -0.37074170494E+03 -0.17934177120E+03  0.47730523631E+03  0.00000000000E+00 0. -1.
         -1    1    6    6    0  503  0.57938290536E+02 -0.88387936245E+02 -0.97156127605E+02  0.14355690828E+03  0.00000000000E+00 0.  1.
<mgrwt>
<rscale>  0 0.13322549E+04</rscale>
<asrwt>0</asrwt>
<pdfrwt beam="1">  1        2 0.26954452E+00 0.13322549E+04</pdfrwt>
<pdfrwt beam="2">  1       -1 0.38963455E-01 0.13322549E+04</pdfrwt>
<totfact> 0.65325676E+01</totfact>
</mgrwt>
</event>
<event>
12    6  0.1556619E-007  0.2135812E+04  0.7818608E-02  0.8545630E-01
          2   -1    0    0  501    0  0.00000000000E+00  0.00000000000E+00  0.15641120558E+04  0.15641120558E+04  0.00000000000E+00 0. -1.
         -1   -1    0    0    0  501 -0.00000000000E+00 -0.00000000000E+00 -0.72911833205E+03  0.72911833205E+03  0.00000000000E+00 0.  1.
         24    2    1    2    0    0 -0.56230312507E+03 -0.40880450432E+03 -0.22154524442E+03  0.73393542523E+03  0.79202183560E+02 0.  0.
        254    2    1    2    0    0  0.56230312507E+03  0.40880450432E+03  0.10565389682E+04  0.15592949626E+04  0.91204180932E+03 0.  0.
         23    2    4    4    0    0  0.56051407217E+03  0.18080692080E+03  0.14215043581E+03  0.61244674927E+03  0.89538296770E+02 0.  0.
         23    2    4    4    0    0  0.17890528992E+01  0.22799758351E+03  0.91438853237E+03  0.94684821334E+03  0.91809869730E+02 0.  0.
          4    1    3    3  502    0 -0.23706113943E+03 -0.20389823068E+03 -0.13093619813E+03  0.33899374667E+03  0.00000000000E+00 0. -1.
         -3    1    3    3    0  502 -0.32524198564E+03 -0.20490627364E+03 -0.90609046295E+02  0.39494167857E+03  0.00000000000E+00 0.  1.
         11    1    5    5    0    0  0.27638895679E+03  0.13518678036E+03  0.82806418997E+02  0.31862709245E+03  0.00000000000E+00 0.  1.
        -11    1    5    5    0    0  0.28412511538E+03  0.45620140447E+02  0.59344016810E+02  0.29381965682E+03  0.00000000000E+00 0. -1.
          3    1    6    6  503    0  0.20132058822E+02  0.17873498905E+03  0.54938992273E+03  0.57808371652E+03  0.00000000000E+00 0. -1.
         -3    1    6    6    0  503 -0.18343005922E+02  0.49262594457E+02  0.36499860964E+03  0.36876449682E+03  0.00000000000E+00 0.  1.
<mgrwt>
<rscale>  0 0.21358116E+04</rscale>
<asrwt>0</asrwt>
<pdfrwt beam="1">  1        2 0.24063262E+00 0.21358116E+04</pdfrwt>
<pdfrwt beam="2">  1       -1 0.11217205E+00 0.21358116E+04</pdfrwt>
<totfact> 0.89074265E+00</totfact>
</mgrwt>
</event>
<event>
12    6  0.1556619E-007  0.2690134E+04  0.7818608E-02  0.8338213E-01
         -1   -1    0    0    0  501 -0.00000000000E+00  0.00000000000E+00  0.78912965746E+03  0.78912965746E+03  0.00000000000E+00 0.  1.
          2   -1    0    0  501    0  0.00000000000E+00 -0.00000000000E+00 -0.22926589786E+04  0.22926589786E+04  0.00000000000E+00 0. -1.
         24    2    1    2    0    0  0.10200894394E+03 -0.70493417064E+02 -0.20232912134E+04  0.20286774744E+04  0.80310736613E+02 0.  0.
        254    2    1    2    0    0 -0.10200894394E+03  0.70493417064E+02  0.51976189230E+03  0.10531111616E+04  0.90747757413E+03 0.  0.
         23    2    4    4    0    0 -0.39095025991E+03 -0.19935559156E+03  0.81000681521E+02  0.45549770936E+03  0.91281406705E+02 0.  0.
         23    2    4    4    0    0  0.28894131598E+03  0.26984900862E+03  0.43876121078E+03  0.59761345227E+03  0.91240707509E+02 0.  0.
          4    1    3    3  502    0  0.72557830830E+02 -0.41110851410E+02 -0.17723730497E+04  0.17743339506E+04  0.00000000000E+00 0. -1.
         -3    1    3    3    0  502  0.29451113109E+02 -0.29382565654E+02 -0.25091816371E+03  0.25434352381E+03  0.00000000000E+00 0.  1.
         11    1    5    5    0    0 -0.37119094416E+03 -0.16009944707E+03  0.71163984050E+02  0.41046176753E+03  0.00000000000E+00 0. -1.
        -11    1    5    5    0    0 -0.19759315759E+02 -0.39256144491E+02  0.98366974710E+01  0.45035941832E+02  0.00000000000E+00 0.  1.
          2    1    6    6  503    0  0.19177243919E+03  0.12904575113E+03  0.21272832570E+03  0.31413820983E+03  0.00000000000E+00 0. -1.
         -2    1    6    6    0  503  0.97168876786E+02  0.14080325749E+03  0.22603288508E+03  0.28347524244E+03  0.00000000000E+00 0.  1.
<mgrwt>
<rscale>  0 0.26901340E+04</rscale>
<asrwt>0</asrwt>
<pdfrwt beam="1">  1        2 0.35271676E+00 0.26901340E+04</pdfrwt>
<pdfrwt beam="2">  1       -1 0.12140456E+00 0.26901340E+04</pdfrwt>
<totfact> 0.27491808E+00</totfact>
</mgrwt>
</event>
<event>
12    6  0.1556619E-007  0.1443176E+04  0.7818608E-02  0.8923145E-01
          2   -1    0    0  501    0  0.00000000000E+00  0.00000000000E+00  0.25193491716E+03  0.25193491716E+03  0.00000000000E+00 0. -1.
         -1   -1    0    0    0  501 -0.00000000000E+00 -0.00000000000E+00 -0.20667622266E+04  0.20667622266E+04  0.00000000000E+00 0.  1.
         24    2    1    2    0    0 -0.39016037798E+03  0.14749322805E+03 -0.75237343962E+03  0.86391227829E+03  0.79367871729E+02 0.  0.
        254    2    1    2    0    0  0.39016037798E+03 -0.14749322805E+03 -0.10624538698E+04  0.14547848655E+04  0.90200410556E+03 0.  0.
         23    2    4    4    0    0  0.30716804398E+03 -0.13223916148E+03  0.37834257309E+02  0.34742546919E+03  0.86218458273E+02 0.  0.
         23    2    4    4    0    0  0.82992334005E+02 -0.15254066570E+02 -0.11002881271E+04  0.11073593963E+04  0.92143669289E+02 0.  0.
          4    1    3    3  502    0 -0.35506671936E+02  0.44297232108E+01 -0.30577656354E+02  0.47067390705E+02  0.00000000000E+00 0. -1.
         -3    1    3    3    0  502 -0.35465370605E+03  0.14306350484E+03 -0.72179578327E+03  0.81684488758E+03  0.00000000000E+00 0.  1.
         11    1    5    5    0    0  0.59064848719E+02 -0.53486904691E+02 -0.16839388219E+02  0.81443663493E+02  0.00000000000E+00 0. -1.
        -11    1    5    5    0    0  0.24810319526E+03 -0.78752256786E+02  0.54673645528E+02  0.26598180570E+03  0.00000000000E+00 0.  1.
          3    1    6    6  503    0  0.10510813140E+02 -0.87844244028E+01 -0.17960007103E+02  0.22587721445E+02  0.00000000000E+00 0. -1.
         -3    1    6    6    0  503  0.72481520865E+02 -0.64696421677E+01 -0.10823281200E+04  0.10847716748E+04  0.00000000000E+00 0.  1.
<mgrwt>
<rscale>  0 0.14431765E+04</rscale>
<asrwt>0</asrwt>
<pdfrwt beam="1">  1        2 0.38759219E-01 0.14431765E+04</pdfrwt>
<pdfrwt beam="2">  1       -1 0.31796341E+00 0.14431765E+04</pdfrwt>
<totfact> 0.37589313E+00</totfact>
</mgrwt>
</event>
<event>
12    6  0.1556619E-007  0.1621598E+04  0.7818608E-02  0.8807388E-01
          2   -1    0    0  501    0  0.00000000000E+00  0.00000000000E+00  0.37224451728E+03  0.37224451728E+03  0.00000000000E+00 0. -1.
         -1   -1    0    0    0  501 -0.00000000000E+00 -0.00000000000E+00 -0.17660300063E+04  0.17660300063E+04  0.00000000000E+00 0.  1.
         24    2    1    2    0    0  0.93447856762E+02  0.63587800864E+02  0.23473394642E+03  0.27242031402E+03  0.79604594935E+02 0.  0.
        254    2    1    2    0    0 -0.93447856762E+02 -0.63587800864E+02 -0.16285194355E+04  0.18658542096E+04  0.90363735503E+03 0.  0.
         23    2    4    4    0    0 -0.31777204398E+03  0.31352129856E+03 -0.70498837636E+03  0.83930257765E+03  0.90252586976E+02 0.  0.
         23    2    4    4    0    0  0.22432418721E+03 -0.37710909942E+03 -0.92353105910E+03  0.10265516319E+04  0.91465961338E+02 0.  0.
          2    1    3    3  502    0  0.73077511835E+02  0.40425767405E+02  0.22511986402E+03  0.24011147116E+03  0.00000000000E+00 0. -1.
         -1    1    3    3    0  502  0.20370344927E+02  0.23162033459E+02  0.96140824025E+01  0.32308842859E+02  0.00000000000E+00 0.  1.
         11    1    5    5    0    0 -0.31394387209E+03  0.30940924408E+03 -0.70715220326E+03  0.83328210932E+03  0.00000000000E+00 0. -1.
        -11    1    5    5    0    0 -0.38281718806E+01  0.41120544803E+01  0.21638268949E+01  0.60204683230E+01  0.00000000000E+00 0.  1.
          4    1    6    6  503    0  0.20988741386E+02 -0.91447944933E+02 -0.14508321834E+03  0.17277845393E+03  0.00000000000E+00 0. -1.
         -4    1    6    6    0  503  0.20333544583E+03 -0.28566115449E+03 -0.77844784076E+03  0.85377317802E+03  0.00000000000E+00 0.  1.
<mgrwt>
<rscale>  0 0.16215980E+04</rscale>
<asrwt>0</asrwt>
<pdfrwt beam="1">  1        2 0.57268388E-01 0.16215980E+04</pdfrwt>
<pdfrwt beam="2">  1       -1 0.27169692E+00 0.16215980E+04</pdfrwt>
<totfact> 0.47620021E+00</totfact>
</mgrwt>
</event>
<event>
12    6  0.1556619E-007  0.1960661E+04  0.7818608E-02  0.8625237E-01
          2   -1    0    0  501    0  0.00000000000E+00  0.00000000000E+00  0.15657996880E+04  0.15657996880E+04  0.00000000000E+00 0. -1.
         -1   -1    0    0    0  501 -0.00000000000E+00 -0.00000000000E+00 -0.61377473852E+03  0.61377473852E+03  0.00000000000E+00 0.  1.
         24    2    1    2    0    0  0.70838926008E+03  0.59800738766E+02  0.71311761500E+03  0.10101240310E+04  0.80139584431E+02 0.  0.
        254    2    1    2    0    0 -0.70838926008E+03 -0.59800738766E+02  0.23890733444E+03  0.11694503955E+04  0.89729930398E+03 0.  0.
         23    2    4    4    0    0 -0.15896503523E+02  0.17171329370E+03  0.37360667795E+03  0.42135947427E+03  0.90684633143E+02 0.  0.
         23    2    4    4    0    0 -0.69249275655E+03 -0.23151403247E+03 -0.13469934351E+03  0.74809092122E+03  0.91384616663E+02 0.  0.
          4    1    3    3  502    0  0.45535923335E+03  0.61778018816E+02  0.41599706528E+03  0.61985652641E+03  0.00000000000E+00 0. -1.
         -3    1    3    3    0  502  0.25303002672E+03 -0.19772800503E+01  0.29712054971E+03  0.39026750457E+03  0.00000000000E+00 0.  1.
         11    1    5    5    0    0 -0.27202669973E+02  0.80893538668E+02  0.26976302365E+03  0.28294140520E+03  0.00000000000E+00 0. -1.
        -11    1    5    5    0    0  0.11306166450E+02  0.90819755036E+02  0.10384365431E+03  0.13841806907E+03  0.00000000000E+00 0.  1.
          1    1    6    6  503    0 -0.52680477068E+03 -0.13445518503E+03 -0.10613035765E+03  0.55395407392E+03  0.00000000000E+00 0. -1.
         -1    1    6    6    0  503 -0.16568798587E+03 -0.97058847437E+02 -0.28568985858E+02  0.19413684731E+03  0.00000000000E+00 0.  1.
<mgrwt>
<rscale>  0 0.19606614E+04</rscale>
<asrwt>0</asrwt>
<pdfrwt beam="1">  1        2 0.24089226E+00 0.19606614E+04</pdfrwt>
<pdfrwt beam="2">  1       -1 0.94426883E-01 0.19606614E+04</pdfrwt>
<totfact> 0.13432670E+01</totfact>
</mgrwt>
</event>
<event>
12    6  0.1556619E-007  0.1094698E+04  0.7818608E-02  0.9210375E-01
          2   -1    0    0  501    0  0.00000000000E+00  0.00000000000E+00  0.10012213654E+04  0.10012213654E+04  0.00000000000E+00 0. -1.
         -1   -1    0    0    0  501 -0.00000000000E+00 -0.00000000000E+00 -0.29922536020E+03  0.29922536020E+03  0.00000000000E+00 0.  1.
         24    2    1    2    0    0 -0.83355493063E+02  0.22500343350E+01 -0.64687174061E+02  0.13179672167E+03  0.78947732560E+02 0.  0.
        254    2    1    2    0    0  0.83355493063E+02 -0.22500343350E+01  0.76668317931E+03  0.11686500040E+04  0.87805838842E+03 0.  0.
         23    2    4    4    0    0  0.63030099364E+02  0.41511054012E+03  0.24833740162E+03  0.49662340370E+03  0.93133163331E+02 0.  0.
         23    2    4    4    0    0  0.20325393699E+02 -0.41736057446E+03  0.51834577768E+03  0.67202660027E+03  0.91293129463E+02 0.  0.
          4    1    3    3  502    0 -0.66661658327E+02  0.16422216759E+02 -0.57174738130E+01  0.68892346462E+02  0.00000000000E+00 0. -1.
         -1    1    3    3    0  502 -0.16693834736E+02 -0.14172182424E+02 -0.58969700248E+02  0.62904375207E+02  0.00000000000E+00 0.  1.
         11    1    5    5    0    0  0.40962766034E+02  0.26647277275E+03  0.10614771211E+03  0.28974648161E+03  0.00000000000E+00 0.  1.
        -11    1    5    5    0    0  0.22067333330E+02  0.14863776737E+03  0.14218968952E+03  0.20687692209E+03  0.00000000000E+00 0. -1.
          2    1    6    6  503    0  0.21399988616E+02 -0.38738460451E+03  0.43212926822E+03  0.58074133294E+03  0.00000000000E+00 0. -1.
         -2    1    6    6    0  503 -0.10745949174E+01 -0.29975969942E+02  0.86216509459E+02  0.91285267330E+02  0.00000000000E+00 0.  1.
<mgrwt>
<rscale>  0 0.10946978E+04</rscale>
<asrwt>0</asrwt>
<pdfrwt beam="1">  1        2 0.15403405E+00 0.10946978E+04</pdfrwt>
<pdfrwt beam="2">  1       -1 0.46034671E-01 0.10946978E+04</pdfrwt>
<totfact> 0.13358666E+02</totfact>
</mgrwt>
</event>
<event>
12    6  0.1556619E-007  0.1960213E+04  0.7818608E-02  0.8625452E-01
          2   -1    0    0  501    0  0.00000000000E+00  0.00000000000E+00  0.17480358489E+04  0.17480358489E+04  0.00000000000E+00 0. -1.
         -1   -1    0    0    0  501 -0.00000000000E+00 -0.00000000000E+00 -0.54953579847E+03  0.54953579847E+03  0.00000000000E+00 0.  1.
         24    2    1    2    0    0  0.19884868228E+03  0.23441567448E+03  0.12711851126E+04  0.13103968837E+04  0.82078592571E+02 0.  0.
        254    2    1    2    0    0 -0.19884868228E+03 -0.23441567448E+03 -0.72685062237E+02  0.98717476363E+03  0.93527503376E+03 0.  0.
         23    2    4    4    0    0 -0.40097110679E+03 -0.34929636370E+03  0.23738035709E+03  0.59039130043E+03  0.97091068141E+02 0.  0.
         23    2    4    4    0    0  0.20212242451E+03  0.11488068923E+03 -0.31006541933E+03  0.39678346320E+03  0.85120533101E+02 0.  0.
          2    1    3    3  502    0  0.19279348497E+03  0.18681667020E+03  0.11227477013E+04  0.11543968975E+04  0.00000000000E+00 0. -1.
         -1    1    3    3    0  502  0.60551973145E+01  0.47599004271E+02  0.14843741131E+03  0.15599998621E+03  0.00000000000E+00 0.  1.
         11    1    5    5    0    0 -0.32578170082E+03 -0.32317420120E+03  0.22009974123E+03  0.50893926652E+03  0.00000000000E+00 0. -1.
        -11    1    5    5    0    0 -0.75189405971E+02 -0.26122162497E+02  0.17280615860E+02  0.81452033911E+02  0.00000000000E+00 0.  1.
          4    1    6    6  503    0  0.17732703952E+03  0.82224837595E+02 -0.29334825779E+03  0.35250390525E+03  0.00000000000E+00 0. -1.
         -4    1    6    6    0  503  0.24795384986E+02  0.32655851631E+02 -0.16717161535E+02  0.44279557949E+02  0.00000000000E+00 0.  1.
<mgrwt>
<rscale>  0 0.19602125E+04</rscale>
<asrwt>0</asrwt>
<pdfrwt beam="1">  1        2 0.26892859E+00 0.19602125E+04</pdfrwt>
<pdfrwt beam="2">  1       -1 0.84543970E-01 0.19602125E+04</pdfrwt>
<totfact> 0.13558826E+01</totfact>
</mgrwt>
</event>
<event>
12    6  0.1556619E-007  0.1540171E+04  0.7818608E-02  0.8858170E-01
          2   -1    0    0  501    0  0.00000000000E+00  0.00000000000E+00  0.16166470789E+04  0.16166470789E+04  0.00000000000E+00 0. -1.
         -1   -1    0    0    0  501 -0.00000000000E+00 -0.00000000000E+00 -0.36682825445E+03  0.36682825445E+03  0.00000000000E+00 0.  1.
         24    2    1    2    0    0  0.80817497761E+01  0.32633275397E+03 -0.50583796555E+02  0.33991901201E+03  0.80173769148E+02 0.  0.
        254    2    1    2    0    0 -0.80817497761E+01 -0.32633275397E+03  0.13004026210E+04  0.16435563213E+04  0.95061665442E+03 0.  0.
         23    2    4    4    0    0  0.32526947016E+03 -0.23600351219E+03  0.15067817650E+03  0.43929693234E+03  0.93701632309E+02 0.  0.
         23    2    4    4    0    0 -0.33335121994E+03 -0.90329241780E+02  0.11497244445E+04  0.12042593890E+04  0.95351821952E+02 0.  0.
          2    1    3    3  502    0 -0.29562861858E+00  0.23139121940E+02 -0.27196520093E+02  0.35709341434E+02  0.00000000000E+00 0. -1.
         -1    1    3    3    0  502  0.83773783947E+01  0.30319363203E+03 -0.23387276462E+02  0.30420967058E+03  0.00000000000E+00 0.  1.
         11    1    5    5    0    0  0.20767371168E+03 -0.20320361484E+03  0.10760530444E+03  0.30983702353E+03  0.00000000000E+00 0. -1.
        -11    1    5    5    0    0  0.11759575848E+03 -0.32799897350E+02  0.43072872059E+02  0.12945990880E+03  0.00000000000E+00 0.  1.
          1    1    6    6  503    0 -0.29666768574E+03 -0.75803397391E+02  0.88190440647E+03  0.93354874162E+03  0.00000000000E+00 0. -1.
         -1    1    6    6    0  503 -0.36683534201E+02 -0.14525844389E+02  0.26782003799E+03  0.27071064735E+03  0.00000000000E+00 0.  1.
<mgrwt>
<rscale>  0 0.15401712E+04</rscale>
<asrwt>0</asrwt>
<pdfrwt beam="1">  1        2 0.24871493E+00 0.15401712E+04</pdfrwt>
<pdfrwt beam="2">  1       -1 0.56435117E-01 0.15401712E+04</pdfrwt>
<totfact> 0.38062393E+01</totfact>
</mgrwt>
</event>
<event>
12    6  0.1556619E-007  0.1799902E+04  0.7818608E-02  0.8706352E-01
          2   -1    0    0  501    0  0.00000000000E+00  0.00000000000E+00  0.81538933322E+03  0.81538933322E+03  0.00000000000E+00 0. -1.
         -1   -1    0    0    0  501 -0.00000000000E+00 -0.00000000000E+00 -0.99328224992E+03  0.99328224992E+03  0.00000000000E+00 0.  1.
         24    2    1    2    0    0 -0.14678240617E+02 -0.66185866225E+03 -0.19116013559E+03  0.69376106281E+03  0.80559762218E+02 0.  0.
        254    2    1    2    0    0  0.14678240617E+02  0.66185866225E+03  0.13267218897E+02  0.11149105203E+04  0.89698222373E+03 0.  0.
         23    2    4    4    0    0  0.12450676908E+03  0.76876881353E+03  0.24567438272E+03  0.82207087439E+03  0.94536744126E+02 0.  0.
         23    2    4    4    0    0 -0.10982852846E+03 -0.10691015128E+03 -0.23240716383E+03  0.29283964594E+03  0.90828862836E+02 0.  0.
          2    1    3    3  502    0 -0.15966716274E+02 -0.48893345799E+03 -0.17708380315E+03  0.52025910440E+03  0.00000000000E+00 0. -1.
         -1    1    3    3    0  502  0.12884756565E+01 -0.17292520426E+03 -0.14076332443E+02  0.17350195841E+03  0.00000000000E+00 0.  1.
         11    1    5    5    0    0  0.81129428774E+02  0.61684396548E+03  0.16026278867E+03  0.64246604844E+03  0.00000000000E+00 0.  1.
        -11    1    5    5    0    0  0.43377340304E+02  0.15192484805E+03  0.85411594049E+02  0.17960482595E+03  0.00000000000E+00 0. -1.
          1    1    6    6  503    0  0.84494249107E+00  0.11920285970E+02 -0.36361847517E+02  0.38275202158E+02  0.00000000000E+00 0. -1.
         -1    1    6    6    0  503 -0.11067347095E+03 -0.11883043725E+03 -0.19604531631E+03  0.25456444378E+03  0.00000000000E+00 0.  1.
<mgrwt>
<rscale>  0 0.17999019E+04</rscale>
<asrwt>0</asrwt>
<pdfrwt beam="1">  1        2 0.12544451E+00 0.17999019E+04</pdfrwt>
<pdfrwt beam="2">  1       -1 0.15281265E+00 0.17999019E+04</pdfrwt>
<totfact> 0.12005325E+01</totfact>
</mgrwt>
</event>
<event>
12    6  0.1556619E-007  0.2007615E+04  0.7818608E-02  0.8603069E-01
          2   -1    0    0  501    0  0.00000000000E+00  0.00000000000E+00  0.17001522055E+04  0.17001522055E+04  0.00000000000E+00 0. -1.
         -1   -1    0    0    0  501 -0.00000000000E+00 -0.00000000000E+00 -0.59267020149E+03  0.59267020149E+03  0.00000000000E+00 0.  1.
         24    2    1    2    0    0 -0.48148228857E+02  0.71385270180E+03  0.15891136567E+02  0.72041594442E+03  0.82720450577E+02 0.  0.
        254    2    1    2    0    0  0.48148228857E+02 -0.71385270180E+03  0.10915908675E+04  0.15724064626E+04  0.87691934058E+03 0.  0.
         23    2    4    4    0    0 -0.12635881011E+03 -0.86403289762E+03  0.91493300957E+03  0.12680376976E+04  0.91092225370E+02 0.  0.
         23    2    4    4    0    0  0.17450703897E+03  0.15018019582E+03  0.17665785790E+03  0.30436876499E+03  0.91790786455E+02 0.  0.
          4    1    3    3  502    0 -0.23091089292E+02  0.42194706099E+02  0.22461141905E+01  0.48152223796E+02  0.00000000000E+00 0. -1.
         -3    1    3    3    0  502 -0.25057139564E+02  0.67165799570E+03  0.13645022377E+02  0.67226372062E+03  0.00000000000E+00 0.  1.
         11    1    5    5    0    0 -0.13908478062E+03 -0.72620725589E+03  0.77893178251E+03  0.10739908177E+04  0.00000000000E+00 0. -1.
        -11    1    5    5    0    0  0.12725970508E+02 -0.13782564173E+03  0.13600122707E+03  0.19404687992E+03  0.00000000000E+00 0.  1.
          1    1    6    6  503    0  0.15620080140E+03  0.94309510722E+02  0.16145787530E+03  0.24364240121E+03  0.00000000000E+00 0. -1.
         -1    1    6    6    0  503  0.18306237568E+02  0.55870685094E+02  0.15199982600E+02  0.60726363779E+02  0.00000000000E+00 0.  1.
<mgrwt>
<rscale>  0 0.20076151E+04</rscale>
<asrwt>0</asrwt>
<pdfrwt beam="1">  1        2 0.26156188E+00 0.20076151E+04</pdfrwt>
<pdfrwt beam="2">  1       -1 0.91180032E-01 0.20076151E+04</pdfrwt>
<totfact> 0.12168257E+01</totfact>
</mgrwt>
</event>
<event>
12    6  0.1556619E-007  0.1941380E+04  0.7818608E-02  0.8634529E-01
         -1   -1    0    0    0  501 -0.00000000000E+00  0.00000000000E+00  0.46680402555E+03  0.46680402555E+03  0.00000000000E+00 0.  1.
          2   -1    0    0  501    0  0.00000000000E+00 -0.00000000000E+00 -0.20184895725E+04  0.20184895725E+04  0.00000000000E+00 0. -1.
         24    2    1    2    0    0 -0.61666314507E+03  0.26865731128E+03 -0.15369297984E+03  0.69460915593E+03  0.80063487619E+02 0.  0.
        254    2    1    2    0    0  0.61666314507E+03 -0.26865731128E+03 -0.13979925671E+04  0.17906844421E+04  0.89426918103E+03 0.  0.
         23    2    4    4    0    0  0.27376050612E+03  0.28054198902E+03 -0.83784763859E+03  0.92954946712E+03  0.91787384841E+02 0.  0.
         23    2    4    4    0    0  0.34290263895E+03 -0.54919930030E+03 -0.56014492852E+03  0.86113497500E+03  0.92676927878E+02 0.  0.
          2    1    3    3  502    0 -0.32859277086E+03  0.12849822218E+03 -0.41889458304E+02  0.35530230633E+03  0.00000000000E+00 0. -1.
         -1    1    3    3    0  502 -0.28807037421E+03  0.14015908910E+03 -0.11180352154E+03  0.33930684960E+03  0.00000000000E+00 0.  1.
         11    1    5    5    0    0  0.11711949826E+03  0.92114493359E+02 -0.22860722062E+03  0.27287967692E+03  0.00000000000E+00 0. -1.
        -11    1    5    5    0    0  0.15664100786E+03  0.18842749566E+03 -0.60924041797E+03  0.65666979020E+03  0.00000000000E+00 0.  1.
          3    1    6    6  503    0  0.32897418514E+03 -0.54804038235E+03 -0.55400710907E+03  0.84587005626E+03  0.00000000000E+00 0. -1.
         -3    1    6    6    0  503  0.13928453810E+02 -0.11589179481E+01 -0.61378194515E+01  0.15264918734E+02  0.00000000000E+00 0.  1.
<mgrwt>
<rscale>  0 0.19413800E+04</rscale>
<asrwt>0</asrwt>
<pdfrwt beam="1">  1        2 0.31053686E+00 0.19413800E+04</pdfrwt>
<pdfrwt beam="2">  1       -1 0.71816004E-01 0.19413800E+04</pdfrwt>
<totfact> 0.13571057E+01</totfact>
</mgrwt>
</event>
<event>
12    6  0.1556619E-007  0.1511364E+04  0.7818608E-02  0.8876931E-01
         -1   -1    0    0    0  501 -0.00000000000E+00  0.00000000000E+00  0.26341974365E+03  0.26341974365E+03  0.00000000000E+00 0.  1.
          2   -1    0    0  501    0  0.00000000000E+00 -0.00000000000E+00 -0.21678521625E+04  0.21678521625E+04  0.00000000000E+00 0. -1.
         24    2    1    2    0    0 -0.81970246267E+02  0.44461869746E+03 -0.88380677152E+03  0.99595480593E+03  0.80041605832E+02 0.  0.
        254    2    1    2    0    0  0.81970246267E+02 -0.44461869746E+03 -0.10206256474E+04  0.14353171003E+04  0.90224916671E+03 0.  0.
         23    2    4    4    0    0 -0.10057583990E+03  0.20780178903E+03 -0.62530372822E+02  0.25834492131E+03  0.97647159421E+02 0.  0.
         23    2    4    4    0    0  0.18254608617E+03 -0.65242048649E+03 -0.95809527455E+03  0.11769721790E+04  0.91331211282E+02 0.  0.
          2    1    3    3  502    0 -0.56230101690E+02  0.40537683947E+03 -0.75374683591E+03  0.85768671376E+03  0.00000000000E+00 0. -1.
         -1    1    3    3    0  502 -0.25740144576E+02  0.39241857989E+02 -0.13005993561E+03  0.13826809217E+03  0.00000000000E+00 0.  1.
         11    1    5    5    0    0 -0.64731495869E+02  0.94716659644E+02 -0.77975060127E+02  0.13871381392E+03  0.00000000000E+00 0.  1.
        -11    1    5    5    0    0 -0.35844344035E+02  0.11308512938E+03  0.15444687305E+02  0.11963110738E+03  0.00000000000E+00 0. -1.
          3    1    6    6  503    0  0.56477092788E+01 -0.16442849467E+03 -0.23389966157E+03  0.28596796702E+03  0.00000000000E+00 0. -1.
         -3    1    6    6    0  503  0.17689837689E+03 -0.48799199182E+03 -0.72419561298E+03  0.89100421194E+03  0.00000000000E+00 0.  1.
<mgrwt>
<rscale>  0 0.15113637E+04</rscale>
<asrwt>0</asrwt>
<pdfrwt beam="1">  1        2 0.33351573E+00 0.15113637E+04</pdfrwt>
<pdfrwt beam="2">  1       -1 0.40526113E-01 0.15113637E+04</pdfrwt>
<totfact> 0.35230714E+01</totfact>
</mgrwt>
</event>
<event>
12    6  0.1556619E-007  0.1726501E+04  0.7818608E-02  0.8746392E-01
          2   -1    0    0  501    0  0.00000000000E+00  0.00000000000E+00  0.18943691058E+04  0.18943691058E+04  0.00000000000E+00 0. -1.
         -1   -1    0    0    0  501 -0.00000000000E+00 -0.00000000000E+00 -0.39337723368E+03  0.39337723368E+03  0.00000000000E+00 0.  1.
         24    2    1    2    0    0 -0.23748263872E+03  0.44080144512E+03  0.87554683870E+01  0.50715529219E+03  0.80161801699E+02 0.  0.
        254    2    1    2    0    0  0.23748263872E+03 -0.44080144512E+03  0.14922364038E+04  0.17805910473E+04  0.83248487998E+03 0.  0.
         23    2    4    4    0    0  0.24611182383E+03 -0.14706402131E+03  0.14395627148E+04  0.14706057547E+04  0.90230923498E+02 0.  0.
         23    2    4    4    0    0 -0.86291851155E+01 -0.29373742382E+03  0.52673688940E+02  0.30998529266E+03  0.83427975979E+02 0.  0.
          4    1    3    3  502    0 -0.62550729139E+02  0.54475774346E+02 -0.11214133955E+01  0.82954573559E+02  0.00000000000E+00 0. -1.
         -3    1    3    3    0  502 -0.17493190958E+03  0.38632567078E+03  0.98768817824E+01  0.42420071863E+03  0.00000000000E+00 0.  1.
         11    1    5    5    0    0  0.22092142231E+03 -0.13857840045E+03  0.13910832980E+04  0.14153172753E+04  0.00000000000E+00 0.  1.
        -11    1    5    5    0    0  0.25190401526E+02 -0.84856208531E+01  0.48479416808E+02  0.55288479309E+02  0.00000000000E+00 0. -1.
          2    1    6    6  503    0 -0.45684609361E+02 -0.13740166088E+03  0.26371541231E+02  0.14717934003E+03  0.00000000000E+00 0. -1.
         -2    1    6    6    0  503  0.37055424246E+02 -0.15633576293E+03  0.26302147709E+02  0.16280595263E+03  0.00000000000E+00 0.  1.
<mgrwt>
<rscale>  0 0.17265013E+04</rscale>
<asrwt>0</asrwt>
<pdfrwt beam="1">  1        2 0.29144140E+00 0.17265013E+04</pdfrwt>
<pdfrwt beam="2">  1       -1 0.60519576E-01 0.17265013E+04</pdfrwt>
<totfact> 0.22903031E+01</totfact>
</mgrwt>
</event>
<event>
12    6  0.1556619E-007  0.2012005E+04  0.7818608E-02  0.8601028E-01
         -1   -1    0    0    0  501 -0.00000000000E+00  0.00000000000E+00  0.10204387411E+04  0.10204387411E+04  0.00000000000E+00 0.  1.
          2   -1    0    0  501    0  0.00000000000E+00 -0.00000000000E+00 -0.99177088355E+03  0.99177088355E+03  0.00000000000E+00 0. -1.
         24    2    1    2    0    0  0.65023823288E+03  0.34195549166E+03  0.32850170627E+03  0.80881698099E+03  0.80797400579E+02 0.  0.
        254    2    1    2    0    0 -0.65023823288E+03 -0.34195549166E+03 -0.29983384868E+03  0.12033926437E+04  0.90471553558E+03 0.  0.
         23    2    4    4    0    0  0.12962027189E+03  0.11117694856E+03 -0.21988526143E+03  0.29297415779E+03  0.91228285983E+02 0.  0.
         23    2    4    4    0    0 -0.77985850477E+03 -0.45313244023E+03 -0.79948587249E+02  0.91041848591E+03  0.94666504272E+02 0.  0.
          2    1    3    3  502    0  0.71759945715E+02  0.27114612462E+02  0.60797687229E+02  0.97882842165E+02  0.00000000000E+00 0. -1.
         -1    1    3    3    0  502  0.57847828717E+03  0.31484087920E+03  0.26770401904E+03  0.71093413883E+03  0.00000000000E+00 0.  1.
         11    1    5    5    0    0  0.77498084432E+02  0.27441773266E+02 -0.49115410494E+02  0.95767048397E+02  0.00000000000E+00 0.  1.
        -11    1    5    5    0    0  0.52122187456E+02  0.83735175298E+02 -0.17076985093E+03  0.19720710939E+03  0.00000000000E+00 0. -1.
          1    1    6    6  503    0 -0.59560472540E+03 -0.34539713728E+03 -0.10127138704E+03  0.69591670851E+03  0.00000000000E+00 0. -1.
         -1    1    6    6    0  503 -0.18425377938E+03 -0.10773530294E+03  0.21322799787E+02  0.21450177739E+03  0.00000000000E+00 0.  1.
<mgrwt>
<rscale>  0 0.20120054E+04</rscale>
<asrwt>0</asrwt>
<pdfrwt beam="1">  1        2 0.15258014E+00 0.20120054E+04</pdfrwt>
<pdfrwt beam="2">  1       -1 0.15699058E+00 0.20120054E+04</pdfrwt>
<totfact> 0.83175791E+00</totfact>
</mgrwt>
</event>
<event>
12    6  0.1556619E-007  0.1366302E+04  0.7818608E-02  0.8978579E-01
         -1   -1    0    0    0  501 -0.00000000000E+00  0.00000000000E+00  0.31366474079E+03  0.31366474079E+03  0.00000000000E+00 0.  1.
          2   -1    0    0  501    0  0.00000000000E+00 -0.00000000000E+00 -0.14878790249E+04  0.14878790249E+04  0.00000000000E+00 0. -1.
         24    2    1    2    0    0 -0.19323696647E+02  0.31952646099E+03 -0.78639205842E+02  0.33988569289E+03  0.82870953955E+02 0.  0.
        254    2    1    2    0    0  0.19323696647E+02 -0.31952646099E+03 -0.10955750783E+04  0.14616580728E+04  0.91306571787E+03 0.  0.
         23    2    4    4    0    0  0.43512592358E+03 -0.23367593279E+03 -0.76949197320E+03  0.91922810760E+03  0.94463781654E+02 0.  0.
         23    2    4    4    0    0 -0.41580222693E+03 -0.85850528198E+02 -0.32608310506E+03  0.54242996520E+03  0.87397200365E+02 0.  0.
          4    1    3    3  502    0 -0.36151195204E+02  0.56455744887E+02 -0.17305595576E+02  0.69236144344E+02  0.00000000000E+00 0. -1.
         -3    1    3    3    0  502  0.16827498556E+02  0.26307071610E+03 -0.61333610266E+02  0.27064954854E+03  0.00000000000E+00 0.  1.
         11    1    5    5    0    0  0.33126658682E+03 -0.14785384879E+03 -0.61700878393E+03  0.71575006224E+03  0.00000000000E+00 0.  1.
        -11    1    5    5    0    0  0.10385933675E+03 -0.85822084002E+02 -0.15248318927E+03  0.20347804536E+03  0.00000000000E+00 0. -1.
          4    1    6    6  503    0 -0.10956310339E+03 -0.79065101446E+01 -0.13141340435E+03  0.17127775504E+03  0.00000000000E+00 0. -1.
         -4    1    6    6    0  503 -0.30623912354E+03 -0.77944018054E+02 -0.19466970071E+03  0.37115221016E+03  0.00000000000E+00 0.  1.
<mgrwt>
<rscale>  0 0.13663019E+04</rscale>
<asrwt>0</asrwt>
<pdfrwt beam="1">  1        2 0.22890447E+00 0.13663019E+04</pdfrwt>
<pdfrwt beam="2">  1       -1 0.48256114E-01 0.13663019E+04</pdfrwt>
<totfact> 0.61552840E+01</totfact>
</mgrwt>
</event>
<event>
12    6  0.1556619E-007  0.1304431E+04  0.7818608E-02  0.9026058E-01
          2   -1    0    0  501    0  0.00000000000E+00  0.00000000000E+00  0.18497879506E+04  0.18497879506E+04  0.00000000000E+00 0. -1.
         -1   -1    0    0    0  501 -0.00000000000E+00 -0.00000000000E+00 -0.22996435139E+03  0.22996435139E+03  0.00000000000E+00 0.  1.
         24    2    1    2    0    0 -0.26004826108E+03  0.87891832356E+01  0.60857851671E+03  0.66669523967E+03  0.80077361149E+02 0.  0.
        254    2    1    2    0    0  0.26004826108E+03 -0.87891832356E+01  0.10112450825E+04  0.14130570623E+04  0.95205635163E+03 0.  0.
         23    2    4    4    0    0 -0.17149227151E+03  0.35063554662E+03  0.55505570696E+03  0.68428110518E+03  0.88311422414E+02 0.  0.
         23    2    4    4    0    0  0.43154053259E+03 -0.35942472985E+03  0.45618937556E+03  0.72877595717E+03  0.87133700006E+02 0.  0.
          2    1    3    3  502    0 -0.25515895922E+03 -0.74266791922E+01  0.56801115941E+03  0.62273423485E+03  0.00000000000E+00 0. -1.
         -1    1    3    3    0  502 -0.48893018533E+01  0.16215862428E+02  0.40567357301E+02  0.43961004826E+02  0.00000000000E+00 0.  1.
         11    1    5    5    0    0 -0.17011541793E+03  0.26779063565E+03  0.43449291175E+03  0.53799179392E+03  0.00000000000E+00 0. -1.
        -11    1    5    5    0    0 -0.13768535761E+01  0.82844910973E+02  0.12056279521E+03  0.14628931126E+03  0.00000000000E+00 0.  1.
          4    1    6    6  503    0  0.24823513905E+03 -0.16079718462E+03  0.20565467905E+03  0.36023640274E+03  0.00000000000E+00 0. -1.
         -4    1    6    6    0  503  0.18330539353E+03 -0.19862754523E+03  0.25053469651E+03  0.36853955443E+03  0.00000000000E+00 0.  1.
<mgrwt>
<rscale>  0 0.13044313E+04</rscale>
<asrwt>0</asrwt>
<pdfrwt beam="1">  1        2 0.28458275E+00 0.13044313E+04</pdfrwt>
<pdfrwt beam="2">  1       -1 0.35379132E-01 0.13044313E+04</pdfrwt>
<totfact> 0.68808816E+01</totfact>
</mgrwt>
</event>
<event>
12    6  0.1556619E-007  0.1804813E+04  0.7818608E-02  0.8703744E-01
          2   -1    0    0  501    0  0.00000000000E+00  0.00000000000E+00  0.15827445084E+04  0.15827445084E+04  0.00000000000E+00 0. -1.
         -1   -1    0    0    0  501 -0.00000000000E+00 -0.00000000000E+00 -0.51450963359E+03  0.51450963359E+03  0.00000000000E+00 0.  1.
         24    2    1    2    0    0 -0.44843965992E+03  0.79056836698E+02  0.98823203111E+03  0.10912077610E+04  0.82363331880E+02 0.  0.
        254    2    1    2    0    0  0.44843965992E+03 -0.79056836698E+02  0.80002843662E+02  0.10060463809E+04  0.89352154619E+03 0.  0.
         23    2    4    4    0    0 -0.12012585882E+03 -0.78268348746E+02 -0.27930008106E+03  0.32703302102E+03  0.91574588099E+02 0.  0.
         23    2    4    4    0    0  0.56856551874E+03 -0.78848795150E+00  0.35930292472E+03  0.67901335988E+03  0.93237226335E+02 0.  0.
          4    1    3    3  502    0 -0.35904961760E+03  0.28839647217E+02  0.77193635063E+03  0.85184158302E+03  0.00000000000E+00 0. -1.
         -3    1    3    3    0  502 -0.89390042322E+02  0.50217189480E+02  0.21629568049E+03  0.23936617802E+03  0.00000000000E+00 0.  1.
         11    1    5    5    0    0 -0.55394042361E+02 -0.60505271506E+02 -0.72042335040E+02  0.10917639785E+03  0.00000000000E+00 0.  1.
        -11    1    5    5    0    0 -0.64731816459E+02 -0.17763077240E+02 -0.20725774602E+03  0.21785662317E+03  0.00000000000E+00 0. -1.
          3    1    6    6  503    0  0.42786249346E+03 -0.37299428465E+02  0.24812058289E+03  0.49600542772E+03  0.00000000000E+00 0. -1.
         -3    1    6    6    0  503  0.14070302528E+03  0.36510940514E+02  0.11118234183E+03  0.18300793216E+03  0.00000000000E+00 0.  1.
<mgrwt>
<rscale>  0 0.18048128E+04</rscale>
<asrwt>0</asrwt>
<pdfrwt beam="1">  1        2 0.24349915E+00 0.18048128E+04</pdfrwt>
<pdfrwt beam="2">  1       -1 0.79155329E-01 0.18048128E+04</pdfrwt>
<totfact> 0.19561171E+01</totfact>
</mgrwt>
</event>
<event>
12    6  0.1556619E-007  0.2150195E+04  0.7818608E-02  0.8539449E-01
          2   -1    0    0  501    0  0.00000000000E+00  0.00000000000E+00  0.44818541824E+03  0.44818541824E+03  0.00000000000E+00 0. -1.
         -1   -1    0    0    0  501 -0.00000000000E+00 -0.00000000000E+00 -0.25789199204E+04  0.25789199204E+04  0.00000000000E+00 0.  1.
         24    2    1    2    0    0  0.70205935764E+01 -0.72307887600E+03 -0.23488677935E+03  0.76467431224E+03  0.81625088239E+02 0.  0.
        254    2    1    2    0    0 -0.70205935764E+01  0.72307887600E+03 -0.18958477228E+04  0.22624310264E+04  0.10007313383E+04 0.  0.
         23    2    4    4    0    0  0.71890912014E+02 -0.23581444288E+03 -0.49691819439E+03  0.56217470093E+03  0.91301411519E+02 0.  0.
         23    2    4    4    0    0 -0.78911505590E+02  0.95889331887E+03 -0.13989295284E+04  0.17002563255E+04  0.90356649705E+02 0.  0.
          2    1    3    3  502    0  0.33287826356E+02 -0.48493551000E+03 -0.18403629214E+03  0.51974982931E+03  0.00000000000E+00 0. -1.
         -1    1    3    3    0  502 -0.26267232779E+02 -0.23814336599E+03 -0.50850487206E+02  0.24492448292E+03  0.00000000000E+00 0.  1.
         11    1    5    5    0    0 -0.13095314992E+02 -0.30379278709E+01 -0.42571266039E+02  0.44643353063E+02  0.00000000000E+00 0.  1.
        -11    1    5    5    0    0  0.84986227006E+02 -0.23277651500E+03 -0.45434692835E+03  0.51753134786E+03  0.00000000000E+00 0. -1.
          2    1    6    6  503    0 -0.70864613345E+02  0.90618755390E+03 -0.12798060456E+04  0.15697455815E+04  0.00000000000E+00 0. -1.
         -2    1    6    6    0  503 -0.80468922450E+01  0.52705764977E+02 -0.11912348280E+03  0.13051074397E+03  0.00000000000E+00 0.  1.
<mgrwt>
<rscale>  0 0.21501947E+04</rscale>
<asrwt>0</asrwt>
<pdfrwt beam="1">  1        2 0.68951603E-01 0.21501947E+04</pdfrwt>
<pdfrwt beam="2">  1       -1 0.39675691E+00 0.21501947E+04</pdfrwt>
<totfact> 0.55207135E-01</totfact>
</mgrwt>
</event>
<event>
12    6  0.1556619E-007  0.1205990E+04  0.7818608E-02  0.9107629E-01
          2   -1    0    0  501    0  0.00000000000E+00  0.00000000000E+00  0.21778784493E+04  0.21778784493E+04  0.00000000000E+00 0. -1.
         -1   -1    0    0    0  501 -0.00000000000E+00 -0.00000000000E+00 -0.16695286395E+03  0.16695286395E+03  0.00000000000E+00 0.  1.
         24    2    1    2    0    0  0.40612508795E+02 -0.97471646780E+02  0.81014897220E+03  0.82088614769E+03  0.79765986025E+02 0.  0.
        254    2    1    2    0    0 -0.40612508795E+02  0.97471646780E+02  0.12007766132E+04  0.15239451656E+04  0.93241315688E+03 0.  0.
         23    2    4    4    0    0 -0.16091519548E+03  0.11060818985E+03 -0.83175080352E+02  0.23111947926E+03  0.91489058916E+02 0.  0.
         23    2    4    4    0    0  0.12030268668E+03 -0.13136543075E+02  0.12839516935E+04  0.12928256863E+04  0.90669723135E+02 0.  0.
          2    1    3    3  502    0  0.49409011895E+02 -0.99013517725E+02  0.57403694537E+03  0.58460528718E+03  0.00000000000E+00 0. -1.
         -1    1    3    3    0  502 -0.87965031003E+01  0.15418709448E+01  0.23611202683E+03  0.23628086051E+03  0.00000000000E+00 0.  1.
         11    1    5    5    0    0 -0.67806453564E+02 -0.15824621412E+01 -0.41385371350E+02  0.79454189903E+02  0.00000000000E+00 0. -1.
        -11    1    5    5    0    0 -0.93108741915E+02  0.11219065200E+03 -0.41789709002E+02  0.15166528935E+03  0.00000000000E+00 0.  1.
          3    1    6    6  503    0 -0.10789259900E+02 -0.67641387629E+01  0.40211231942E+02  0.42179436657E+02  0.00000000000E+00 0. -1.
         -3    1    6    6    0  503  0.13109194659E+03 -0.63724043119E+01  0.12437404616E+04  0.12506462497E+04  0.00000000000E+00 0.  1.
<mgrwt>
<rscale>  0 0.12059901E+04</rscale>
<asrwt>0</asrwt>
<pdfrwt beam="1">  1        2 0.33505820E+00 0.12059901E+04</pdfrwt>
<pdfrwt beam="2">  1       -1 0.25685058E-01 0.12059901E+04</pdfrwt>
<totfact> 0.80045390E+01</totfact>
</mgrwt>
</event>
<event>
12    6  0.1556619E-007  0.1307080E+04  0.7818608E-02  0.9023969E-01
         -1   -1    0    0    0  501 -0.00000000000E+00  0.00000000000E+00  0.46296973108E+03  0.46296973108E+03  0.00000000000E+00 0.  1.
          2   -1    0    0  501    0  0.00000000000E+00 -0.00000000000E+00 -0.92255395682E+03  0.92255395682E+03  0.00000000000E+00 0. -1.
         24    2    1    2    0    0 -0.27854240021E+03  0.24520165886E+03 -0.15217519585E+03  0.40930970139E+03  0.81654266253E+02 0.  0.
        254    2    1    2    0    0  0.27854240021E+03 -0.24520165886E+03 -0.30740902989E+03  0.97621398652E+03  0.84898981949E+03 0.  0.
         23    2    4    4    0    0 -0.17331983017E+03 -0.38474574829E+03 -0.65482102805E+02  0.43718793765E+03  0.93682083036E+02 0.  0.
         23    2    4    4    0    0  0.45186223038E+03  0.13954408943E+03 -0.24192692708E+03  0.53902604886E+03  0.91479042202E+02 0.  0.
          2    1    3    3  502    0 -0.60102978859E-02  0.17748159348E+02  0.23585068569E+01  0.17904182500E+02  0.00000000000E+00 0. -1.
         -1    1    3    3    0  502 -0.27853638991E+03  0.22745349951E+03 -0.15453370271E+03  0.39140551889E+03  0.00000000000E+00 0.  1.
         11    1    5    5    0    0 -0.94312938903E+01  0.18042261429E+01  0.59513226547E+01  0.11297025173E+02  0.00000000000E+00 0.  1.
        -11    1    5    5    0    0 -0.16388853628E+03 -0.38654997444E+03 -0.71433425460E+02  0.42589091248E+03  0.00000000000E+00 0. -1.
          2    1    6    6  503    0  0.56567300879E+02 -0.12833158587E+02 -0.27090222742E+02  0.64018978876E+02  0.00000000000E+00 0.  1.
         -2    1    6    6    0  503  0.39529492950E+03  0.15237724802E+03 -0.21483670434E+03  0.47500706999E+03  0.00000000000E+00 0. -1.
<mgrwt>
<rscale>  0 0.13070800E+04</rscale>
<asrwt>0</asrwt>
<pdfrwt beam="1">  1        2 0.14193138E+00 0.13070800E+04</pdfrwt>
<pdfrwt beam="2">  1       -1 0.71226112E-01 0.13070800E+04</pdfrwt>
<totfact> 0.63027897E+01</totfact>
</mgrwt>
</event>
<event>
12    6  0.1556619E-007  0.1744591E+04  0.7818608E-02  0.8736334E-01
          2   -1    0    0  501    0  0.00000000000E+00  0.00000000000E+00  0.94601132245E+03  0.94601132245E+03  0.00000000000E+00 0. -1.
         -1   -1    0    0    0  501 -0.00000000000E+00 -0.00000000000E+00 -0.80432342682E+03  0.80432342682E+03  0.00000000000E+00 0.  1.
         24    2    1    2    0    0 -0.44077215430E+02  0.59511334955E+03 -0.18588818969E+03  0.63080695469E+03  0.85207366366E+02 0.  0.
        254    2    1    2    0    0  0.44077215430E+02 -0.59511334955E+03  0.32757608532E+03  0.11195277946E+04  0.88878213946E+03 0.  0.
         23    2    4    4    0    0  0.14075367013E+03 -0.68628001005E+03  0.51312285963E+03  0.87303744778E+03  0.90041481000E+02 0.  0.
         23    2    4    4    0    0 -0.96676454702E+02  0.91166660498E+02 -0.18554677432E+03  0.24649034680E+03  0.93124587108E+02 0.  0.
          2    1    3    3  502    0 -0.53181591696E+02  0.18712211866E+03 -0.53010601281E+02  0.20162612142E+03  0.00000000000E+00 0. -1.
         -1    1    3    3    0  502  0.91043762661E+01  0.40799123089E+03 -0.13287758841E+03  0.42918083328E+03  0.00000000000E+00 0.  1.
         11    1    5    5    0    0 -0.51420699401E+01 -0.20061736679E+02  0.33075415309E+02  0.39024316262E+02  0.00000000000E+00 0. -1.
        -11    1    5    5    0    0  0.14589574007E+03 -0.66621827337E+03  0.48004744432E+03  0.83401313152E+03  0.00000000000E+00 0.  1.
          3    1    6    6  503    0 -0.64018634506E+02  0.10573502979E+02 -0.12401386842E+03  0.13996293827E+03  0.00000000000E+00 0. -1.
         -3    1    6    6    0  503 -0.32657820196E+02  0.80593157519E+02 -0.61532905899E+02  0.10652740853E+03  0.00000000000E+00 0.  1.
<mgrwt>
<rscale>  0 0.17445906E+04</rscale>
<asrwt>0</asrwt>
<pdfrwt beam="1">  1        2 0.14554020E+00 0.17445906E+04</pdfrwt>
<pdfrwt beam="2">  1       -1 0.12374207E+00 0.17445906E+04</pdfrwt>
<totfact> 0.16963610E+01</totfact>
</mgrwt>
</event>
<event>
12    6  0.1556619E-007  0.1565469E+04  0.7818608E-02  0.8842047E-01
         -1   -1    0    0    0  501 -0.00000000000E+00  0.00000000000E+00  0.24312939312E+03  0.24312939312E+03  0.00000000000E+00 0.  1.
          2   -1    0    0  501    0  0.00000000000E+00 -0.00000000000E+00 -0.25199480620E+04  0.25199480620E+04  0.00000000000E+00 0. -1.
         24    2    1    2    0    0  0.12940342043E+03 -0.10926115313E+03 -0.16128667607E+04  0.16236410061E+04  0.78661834906E+02 0.  0.
        254    2    1    2    0    0 -0.12940342043E+03  0.10926115313E+03 -0.66395190822E+03  0.11394364490E+04  0.91038455617E+03 0.  0.
         23    2    4    4    0    0  0.17511558745E+03  0.91094841875E+02 -0.77249233352E+03  0.80252999537E+03  0.91357807135E+02 0.  0.
         23    2    4    4    0    0 -0.30451900788E+03  0.18166311259E+02  0.10854042530E+03  0.33690645364E+03  0.93075740977E+02 0.  0.
          4    1    3    3  502    0  0.87571956016E+02 -0.78211923975E+02 -0.13815604287E+04  0.13865407209E+04  0.00000000000E+00 0. -1.
         -3    1    3    3    0  502  0.41831464410E+02 -0.31049229159E+02 -0.23130633194E+03  0.23710028520E+03  0.00000000000E+00 0.  1.
         11    1    5    5    0    0  0.43842532161E+02  0.72526560974E+02 -0.28543274640E+03  0.29774842130E+03  0.00000000000E+00 0. -1.
        -11    1    5    5    0    0  0.13127305529E+03  0.18568280901E+02 -0.48705958713E+03  0.50478157406E+03  0.00000000000E+00 0.  1.
          1    1    6    6  503    0 -0.12482079047E+03  0.40055976767E+02  0.11717047126E+02  0.13161307003E+03  0.00000000000E+00 0. -1.
         -1    1    6    6    0  503 -0.17969821741E+03 -0.21889665508E+02  0.96823378179E+02  0.20529338362E+03  0.00000000000E+00 0.  1.
<mgrwt>
<rscale>  0 0.15654692E+04</rscale>
<asrwt>0</asrwt>
<pdfrwt beam="1">  1        2 0.38768432E+00 0.15654692E+04</pdfrwt>
<pdfrwt beam="2">  1       -1 0.37404521E-01 0.15654692E+04</pdfrwt>
<totfact> 0.25608095E+01</totfact>
</mgrwt>
</event>
<event>
12    6  0.1556619E-007  0.1855121E+04  0.7818608E-02  0.8677524E-01
          2   -1    0    0  501    0  0.00000000000E+00  0.00000000000E+00  0.77850392205E+03  0.77850392205E+03  0.00000000000E+00 0. -1.
         -1   -1    0    0    0  501 -0.00000000000E+00 -0.00000000000E+00 -0.11051561738E+04  0.11051561738E+04  0.00000000000E+00 0.  1.
         24    2    1    2    0    0 -0.46215533187E+02 -0.70171905380E+02  0.61067225311E+03  0.62174523972E+03  0.81157689569E+02 0.  0.
        254    2    1    2    0    0  0.46215533187E+02  0.70171905380E+02 -0.93732450482E+03  0.12619148561E+04  0.84070916782E+03 0.  0.
         23    2    4    4    0    0  0.31129427624E+03 -0.63232015021E+01 -0.91493161516E+03  0.97073663902E+03  0.91025560318E+02 0.  0.
         23    2    4    4    0    0 -0.26507874305E+03  0.76495106882E+02 -0.22392889664E+02  0.29117821706E+03  0.90360783475E+02 0.  0.
          4    1    3    3  502    0  0.22246039099E+02 -0.26502866958E+02  0.22205250771E+03  0.22473229495E+03  0.00000000000E+00 0. -1.
         -3    1    3    3    0  502 -0.68461572286E+02 -0.43669038421E+02  0.38861974540E+03  0.39701294476E+03  0.00000000000E+00 0.  1.
         11    1    5    5    0    0  0.12947682717E+03  0.91073948515E+00 -0.52039286668E+03  0.53625909215E+03  0.00000000000E+00 0.  1.
        -11    1    5    5    0    0  0.18181744907E+03 -0.72339409872E+01 -0.39453874848E+03  0.43447754687E+03  0.00000000000E+00 0. -1.
          3    1    6    6  503    0 -0.31388189962E+02 -0.46787392064E+01 -0.30004936337E+02  0.43673851149E+02  0.00000000000E+00 0. -1.
         -3    1    6    6    0  503 -0.23369055309E+03  0.81173846088E+02  0.76120466727E+01  0.24750436591E+03  0.00000000000E+00 0.  1.
<mgrwt>
<rscale>  0 0.18551209E+04</rscale>
<asrwt>0</asrwt>
<pdfrwt beam="1">  1        2 0.11976983E+00 0.18551209E+04</pdfrwt>
<pdfrwt beam="2">  1       -1 0.17002403E+00 0.18551209E+04</pdfrwt>
<totfact> 0.94243337E+00</totfact>
</mgrwt>
</event>
<event>
12    6  0.1556619E-007  0.1920726E+04  0.7818608E-02  0.8644608E-01
         -1   -1    0    0    0  501 -0.00000000000E+00  0.00000000000E+00  0.66139162287E+03  0.66139162287E+03  0.00000000000E+00 0.  1.
          2   -1    0    0  501    0  0.00000000000E+00 -0.00000000000E+00 -0.13944792901E+04  0.13944792901E+04  0.00000000000E+00 0. -1.
         24    2    1    2    0    0 -0.59673762641E+03  0.26827605514E+02 -0.74959116596E+03  0.96178909358E+03  0.79597922501E+02 0.  0.
        254    2    1    2    0    0  0.59673762641E+03 -0.26827605514E+02  0.16503498760E+02  0.10940818194E+04  0.91647539345E+03 0.  0.
         23    2    4    4    0    0  0.19091489305E+03 -0.13423491061E+02 -0.43331713487E+03  0.48154562740E+03  0.86566537383E+02 0.  0.
         23    2    4    4    0    0  0.40582273336E+03 -0.13404114453E+02  0.44982063363E+03  0.61253619196E+03  0.89388046355E+02 0.  0.
          2    1    3    3  502    0 -0.16970987548E+03  0.15447230066E+02 -0.27252495128E+03  0.32141858662E+03  0.00000000000E+00 0. -1.
         -1    1    3    3    0  502 -0.42702775092E+03  0.11380375447E+02 -0.47706621468E+03  0.64037050697E+03  0.00000000000E+00 0.  1.
         11    1    5    5    0    0  0.25081773596E+02  0.99394148446E+01 -0.14815732879E+02  0.30779754303E+02  0.00000000000E+00 0. -1.
        -11    1    5    5    0    0  0.16583311946E+03 -0.23362905905E+02 -0.41850140199E+03  0.45076587310E+03  0.00000000000E+00 0.  1.
          4    1    6    6  503    0  0.34883864581E+03 -0.31132314615E+02  0.41652842187E+03  0.54419991551E+03  0.00000000000E+00 0. -1.
         -4    1    6    6    0  503  0.56984087550E+02  0.17728200162E+02  0.33292211763E+02  0.68336276449E+02  0.00000000000E+00 0.  1.
<mgrwt>
<rscale>  0 0.19207258E+04</rscale>
<asrwt>0</asrwt>
<pdfrwt beam="1">  1        2 0.21453527E+00 0.19207258E+04</pdfrwt>
<pdfrwt beam="2">  1       -1 0.10175256E+00 0.19207258E+04</pdfrwt>
<totfact> 0.14224931E+01</totfact>
</mgrwt>
</event>
<event>
12    6  0.1556619E-007  0.1482926E+04  0.7818608E-02  0.8895887E-01
          2   -1    0    0  501    0  0.00000000000E+00  0.00000000000E+00  0.26976854851E+04  0.26976854851E+04  0.00000000000E+00 0. -1.
         -1   -1    0    0    0  501 -0.00000000000E+00 -0.00000000000E+00 -0.20379235951E+03  0.20379235951E+03  0.00000000000E+00 0.  1.
         24    2    1    2    0    0  0.13523251720E+03 -0.45144497566E+03  0.75530629934E+03  0.89409940990E+03  0.82678589784E+02 0.  0.
        254    2    1    2    0    0 -0.13523251720E+03  0.45144497566E+03  0.17385868262E+04  0.20073784347E+04  0.88588578719E+03 0.  0.
         23    2    4    4    0    0 -0.32952933333E+03  0.23357138915E+03  0.16311693869E+04  0.16829340259E+04  0.91696191038E+02 0.  0.
         23    2    4    4    0    0  0.19429681612E+03  0.21787358651E+03  0.10741743932E+03  0.32444440877E+03  0.92225352572E+02 0.  0.
          2    1    3    3  502    0  0.14009701829E+03 -0.35993226397E+03  0.62729592981E+03  0.73666721981E+03  0.00000000000E+00 0. -1.
         -1    1    3    3    0  502 -0.48645010833E+01 -0.91512711693E+02  0.12801036952E+03  0.15743219009E+03  0.00000000000E+00 0.  1.
         11    1    5    5    0    0 -0.15501969589E+03  0.10568578347E+03  0.57507981416E+03  0.60491105428E+03  0.00000000000E+00 0.  1.
        -11    1    5    5    0    0 -0.17450963743E+03  0.12788560567E+03  0.10560895727E+04  0.10780229716E+04  0.00000000000E+00 0. -1.
          3    1    6    6  503    0  0.21644713256E+02  0.77615089494E+02  0.85835225846E+01  0.81032540309E+02  0.00000000000E+00 0. -1.
         -3    1    6    6    0  503  0.17265210287E+03  0.14025849702E+03  0.98833916737E+02  0.24341186846E+03  0.00000000000E+00 0.  1.
<mgrwt>
<rscale>  0 0.14829264E+04</rscale>
<asrwt>0</asrwt>
<pdfrwt beam="1">  1        2 0.41502851E+00 0.14829264E+04</pdfrwt>
<pdfrwt beam="2">  1       -1 0.31352673E-01 0.14829264E+04</pdfrwt>
<totfact> 0.27832996E+01</totfact>
</mgrwt>
</event>
<event>
12    6  0.1556619E-007  0.1436948E+04  0.7818608E-02  0.8927500E-01
          2   -1    0    0  501    0  0.00000000000E+00  0.00000000000E+00  0.23054428036E+04  0.23054428036E+04  0.00000000000E+00 0. -1.
         -1   -1    0    0    0  501 -0.00000000000E+00 -0.00000000000E+00 -0.22390704582E+03  0.22390704582E+03  0.00000000000E+00 0.  1.
         24    2    1    2    0    0  0.26787296251E+02  0.71566516524E+02  0.13775130435E+04  0.13819764556E+04  0.80482378092E+02 0.  0.
        254    2    1    2    0    0 -0.26787296251E+02 -0.71566516524E+02  0.70402271429E+03  0.11473733939E+04  0.90276153949E+03 0.  0.
         23    2    4    4    0    0 -0.13791098145E+02 -0.33992573674E+03 -0.36412746754E+02  0.35440033872E+03  0.92379711371E+02 0.  0.
         23    2    4    4    0    0 -0.12996198106E+02  0.26835922022E+03  0.74043546105E+03  0.79297305514E+03  0.91520609521E+02 0.  0.
          4    1    3    3  502    0  0.53169911289E+02  0.36020947717E+02  0.95304746972E+03  0.95520889217E+03  0.00000000000E+00 0. -1.
         -3    1    3    3    0  502 -0.26382615038E+02  0.35545568806E+02  0.42446557382E+03  0.42676756343E+03  0.00000000000E+00 0.  1.
         11    1    5    5    0    0 -0.52462657987E+02 -0.16105035049E+03 -0.22438422720E+02  0.17085967544E+03  0.00000000000E+00 0.  1.
        -11    1    5    5    0    0  0.38671559842E+02 -0.17887538625E+03 -0.13974324035E+02  0.18354066329E+03  0.00000000000E+00 0. -1.
          3    1    6    6  503    0 -0.48512452964E+02  0.12124175693E+03  0.29761621750E+03  0.32500528401E+03  0.00000000000E+00 0. -1.
         -3    1    6    6    0  503  0.35516254858E+02  0.14711746329E+03  0.44281924355E+03  0.46796777113E+03  0.00000000000E+00 0.  1.
<mgrwt>
<rscale>  0 0.14369480E+04</rscale>
<asrwt>0</asrwt>
<pdfrwt beam="1">  1        2 0.35468349E+00 0.14369480E+04</pdfrwt>
<pdfrwt beam="2">  1       -1 0.34447239E-01 0.14369480E+04</pdfrwt>
<totfact> 0.39815022E+01</totfact>
</mgrwt>
</event>
<event>
12    6  0.1556619E-007  0.1373333E+04  0.7818608E-02  0.8973351E-01
          2   -1    0    0  501    0  0.00000000000E+00  0.00000000000E+00  0.91700638547E+03  0.91700638547E+03  0.00000000000E+00 0. -1.
         -1   -1    0    0    0  501 -0.00000000000E+00 -0.00000000000E+00 -0.51418489598E+03  0.51418489598E+03  0.00000000000E+00 0.  1.
         24    2    1    2    0    0  0.34798027094E+03  0.21998146449E+02 -0.52595261215E+02  0.36163312565E+03  0.80237576327E+02 0.  0.
        254    2    1    2    0    0 -0.34798027094E+03 -0.21998146449E+02  0.45541675071E+03  0.10695581558E+04  0.90276023639E+03 0.  0.
         23    2    4    4    0    0 -0.19126408794E+03 -0.35941727609E+03 -0.66239720268E+02  0.42229539754E+03  0.90459784186E+02 0.  0.
         23    2    4    4    0    0 -0.15671618300E+03  0.33741912964E+03  0.52165647097E+03  0.64726275826E+03  0.91716811230E+02 0.  0.
          2    1    3    3  502    0  0.53561104728E+01 -0.11977528057E+02 -0.50606889151E+01  0.14062704933E+02  0.00000000000E+00 0. -1.
         -1    1    3    3    0  502  0.34262416047E+03  0.33975674505E+02 -0.47534572300E+02  0.34757042072E+03  0.00000000000E+00 0.  1.
         11    1    5    5    0    0 -0.12437325497E+03 -0.30290247161E+03 -0.69206896810E+02  0.33467627407E+03  0.00000000000E+00 0. -1.
        -11    1    5    5    0    0 -0.66890832973E+02 -0.56514804479E+02  0.29671765423E+01  0.87619123471E+02  0.00000000000E+00 0.  1.
          1    1    6    6  503    0 -0.11976695508E+03  0.31403842898E+03  0.48570504400E+03  0.59065527016E+03  0.00000000000E+00 0. -1.
         -1    1    6    6    0  503 -0.36949227920E+02  0.23380700661E+02  0.35951426972E+02  0.56607488097E+02  0.00000000000E+00 0.  1.
<mgrwt>
<rscale>  0 0.13733329E+04</rscale>
<asrwt>0</asrwt>
<pdfrwt beam="1">  1        2 0.14107791E+00 0.13733329E+04</pdfrwt>
<pdfrwt beam="2">  1       -1 0.79105369E-01 0.13733329E+04</pdfrwt>
<totfact> 0.50791164E+01</totfact>
</mgrwt>
</event>
<event>
12    6  0.1556619E-007  0.1366414E+04  0.7818608E-02  0.8978495E-01
          2   -1    0    0  501    0  0.00000000000E+00  0.00000000000E+00  0.74959859162E+03  0.74959859162E+03  0.00000000000E+00 0. -1.
         -1   -1    0    0    0  501 -0.00000000000E+00 -0.00000000000E+00 -0.62269605186E+03  0.62269605186E+03  0.00000000000E+00 0.  1.
         24    2    1    2    0    0 -0.32621708864E+03 -0.71798341454E+02 -0.19375711765E+03  0.39466802441E+03  0.81537954903E+02 0.  0.
        254    2    1    2    0    0  0.32621708864E+03  0.71798341454E+02  0.32065965741E+03  0.97762661907E+03  0.86102183461E+03 0.  0.
         23    2    4    4    0    0  0.15080552378E+03  0.44115864689E+03  0.29227027756E+03  0.55743641931E+03  0.89163830663E+02 0.  0.
         23    2    4    4    0    0  0.17541156486E+03 -0.36936030543E+03  0.28389379856E+02  0.42019019977E+03  0.92507268779E+02 0.  0.
          2    1    3    3  502    0 -0.12015841396E+03 -0.85577253588E+01 -0.30469440821E+02  0.12425645228E+03  0.00000000000E+00 0. -1.
         -1    1    3    3    0  502 -0.20605867468E+03 -0.63240616096E+02 -0.16328767683E+03  0.27041157213E+03  0.00000000000E+00 0.  1.
         11    1    5    5    0    0  0.16417253574E+01  0.32902446095E+02 -0.12355795706E+01  0.32966541797E+02  0.00000000000E+00 0. -1.
        -11    1    5    5    0    0  0.14916379843E+03  0.40825620079E+03  0.29350585713E+03  0.52446987751E+03  0.00000000000E+00 0.  1.
          4    1    6    6  503    0  0.10646404987E+03 -0.12147056763E+03  0.19970339658E+02  0.16275290222E+03  0.00000000000E+00 0. -1.
         -4    1    6    6    0  503  0.68947514994E+02 -0.24788973781E+03  0.84190401980E+01  0.25743729755E+03  0.00000000000E+00 0.  1.
<mgrwt>
<rscale>  0 0.13664144E+04</rscale>
<asrwt>0</asrwt>
<pdfrwt beam="1">  1        2 0.11532286E+00 0.13664144E+04</pdfrwt>
<pdfrwt beam="2">  1       -1 0.95799393E-01 0.13664144E+04</pdfrwt>
<totfact> 0.43950967E+01</totfact>
</mgrwt>
</event>
<event>
12    6  0.1556619E-007  0.2360060E+04  0.7818608E-02  0.8454610E-01
          2   -1    0    0  501    0  0.00000000000E+00  0.00000000000E+00  0.11826747016E+04  0.11826747016E+04  0.00000000000E+00 0. -1.
         -1   -1    0    0    0  501 -0.00000000000E+00 -0.00000000000E+00 -0.11773912864E+04  0.11773912864E+04  0.00000000000E+00 0.  1.
         24    2    1    2    0    0  0.48486567579E+03  0.61249355177E+03  0.63909613751E+03  0.10126389846E+04  0.82163043403E+02 0.  0.
        254    2    1    2    0    0 -0.48486567579E+03 -0.61249355177E+03 -0.63381272233E+03  0.13474270034E+04  0.89643621518E+03 0.  0.
         23    2    4    4    0    0 -0.59617456432E+03 -0.44529389041E+03 -0.83415204786E+02  0.75451073406E+03  0.92830983235E+02 0.  0.
         23    2    4    4    0    0  0.11130888853E+03 -0.16719966136E+03 -0.55039751755E+03  0.59291626930E+03  0.90922382579E+02 0.  0.
          4    1    3    3  502    0  0.41706508492E+03  0.55448969720E+03  0.59016165111E+03  0.91087479041E+03  0.00000000000E+00 0. -1.
         -3    1    3    3    0  502  0.67800590867E+02  0.58003854562E+02  0.48934486402E+02  0.10176419422E+03  0.00000000000E+00 0.  1.
         11    1    5    5    0    0 -0.42574164577E+03 -0.35770990652E+03 -0.36700757470E+02  0.55727845084E+03  0.00000000000E+00 0.  1.
        -11    1    5    5    0    0 -0.17043291855E+03 -0.87583983888E+02 -0.46714447316E+02  0.19723228323E+03  0.00000000000E+00 0. -1.
          2    1    6    6  503    0  0.79002147926E+02 -0.14229813948E+03 -0.32082527832E+03  0.35974846641E+03  0.00000000000E+00 0. -1.
         -2    1    6    6    0  503  0.32306740604E+02 -0.24901521880E+02 -0.22957223922E+03  0.23316780289E+03  0.00000000000E+00 0.  1.
<mgrwt>
<rscale>  0 0.23600601E+04</rscale>
<asrwt>0</asrwt>
<pdfrwt beam="1">  1        2 0.18194995E+00 0.23600601E+04</pdfrwt>
<pdfrwt beam="2">  1       -1 0.18113712E+00 0.23600601E+04</pdfrwt>
<totfact> 0.40745617E+00</totfact>
</mgrwt>
</event>
<event>
12    6  0.1556619E-007  0.1488964E+04  0.7818608E-02  0.8891825E-01
         -1   -1    0    0    0  501 -0.00000000000E+00  0.00000000000E+00  0.14157381810E+03  0.14157381810E+03  0.00000000000E+00 0.  1.
          2   -1    0    0  501    0  0.00000000000E+00 -0.00000000000E+00 -0.39149431646E+04  0.39149431646E+04  0.00000000000E+00 0. -1.
         24    2    1    2    0    0  0.16645475827E+03 -0.41518172609E+03 -0.85719209336E+03  0.97020209226E+03  0.80192036272E+02 0.  0.
        254    2    1    2    0    0 -0.16645475827E+03  0.41518172609E+03 -0.29161772531E+04  0.30863148904E+04  0.90618253070E+03 0.  0.
         23    2    4    4    0    0  0.17351321115E+03  0.12451809150E+03 -0.13588880754E+03  0.26869497636E+03  0.90109004816E+02 0.  0.
         23    2    4    4    0    0 -0.33996796942E+03  0.29066363459E+03 -0.27802884456E+04  0.28176199140E+04  0.94417004790E+02 0.  0.
          2    1    3    3  502    0  0.60989787507E+02 -0.19747887392E+03 -0.47316980666E+03  0.51634031971E+03  0.00000000000E+00 0. -1.
         -1    1    3    3    0  502  0.10546497076E+03 -0.21770285217E+03 -0.38402228670E+03  0.45386177255E+03  0.00000000000E+00 0.  1.
         11    1    5    5    0    0  0.19362054113E+02  0.56954915972E+02 -0.16610775513E+02  0.62407286882E+02  0.00000000000E+00 0. -1.
        -11    1    5    5    0    0  0.15415115704E+03  0.67563175528E+02 -0.11927803203E+03  0.20628768947E+03  0.00000000000E+00 0.  1.
          4    1    6    6  503    0 -0.45083391075E+02  0.49142428687E+02 -0.24823549600E+03  0.25703764689E+03  0.00000000000E+00 0. -1.
         -4    1    6    6    0  503 -0.29488457834E+03  0.24152120590E+03 -0.25320529496E+04  0.25605822672E+04  0.00000000000E+00 0.  1.
<mgrwt>
<rscale>  0 0.14889640E+04</rscale>
<asrwt>0</asrwt>
<pdfrwt beam="1">  1        2 0.60229885E+00 0.14889640E+04</pdfrwt>
<pdfrwt beam="2">  1       -1 0.21780591E-01 0.14889640E+04</pdfrwt>
<totfact> 0.79824454E+00</totfact>
</mgrwt>
</event>
<event>
12    6  0.1556619E-007  0.1647660E+04  0.7818608E-02  0.8791792E-01
          2   -1    0    0  501    0  0.00000000000E+00  0.00000000000E+00  0.25529535226E+04  0.25529535226E+04  0.00000000000E+00 0. -1.
         -1   -1    0    0    0  501 -0.00000000000E+00 -0.00000000000E+00 -0.26584747202E+03  0.26584747202E+03  0.00000000000E+00 0.  1.
         24    2    1    2    0    0 -0.63102422253E+02 -0.55082636819E+03  0.55552349849E+03  0.78897907810E+03  0.80560689715E+02 0.  0.
        254    2    1    2    0    0  0.63102422253E+02  0.55082636819E+03  0.17315825521E+04  0.20298219165E+04  0.90244516426E+03 0.  0.
         23    2    4    4    0    0  0.17609599734E+03  0.41012951967E+03  0.22270748356E+03  0.50743378561E+03  0.93136460968E+02 0.  0.
         23    2    4    4    0    0 -0.11299357508E+03  0.14069684852E+03  0.15088750685E+04  0.15223881309E+04  0.91643316793E+02 0.  0.
          2    1    3    3  502    0  0.11469129384E+02 -0.10074837465E+03  0.73086099973E+02  0.12499341556E+03  0.00000000000E+00 0. -1.
         -1    1    3    3    0  502 -0.74571551636E+02 -0.45007799354E+03  0.48243739851E+03  0.66398566255E+03  0.00000000000E+00 0.  1.
         11    1    5    5    0    0  0.96634812738E+02  0.19538352828E+03  0.58574445534E+02  0.22570772213E+03  0.00000000000E+00 0. -1.
        -11    1    5    5    0    0  0.79461184599E+02  0.21474599139E+03  0.16413303803E+03  0.28172606349E+03  0.00000000000E+00 0.  1.
          4    1    6    6  503    0 -0.10789608655E+03  0.84410531399E+02  0.12458866583E+04  0.12533954957E+04  0.00000000000E+00 0. -1.
         -4    1    6    6    0  503 -0.50974885378E+01  0.56286317119E+02  0.26298841025E+03  0.26899263524E+03  0.00000000000E+00 0.  1.
<mgrwt>
<rscale>  0 0.16476605E+04</rscale>
<asrwt>0</asrwt>
<pdfrwt beam="1">  1        2 0.39276206E+00 0.16476605E+04</pdfrwt>
<pdfrwt beam="2">  1       -1 0.40899613E-01 0.16476605E+04</pdfrwt>
<totfact> 0.20673203E+01</totfact>
</mgrwt>
</event>
<event>
12    6  0.1556619E-007  0.1593683E+04  0.7818608E-02  0.8824438E-01
          2   -1    0    0  501    0  0.00000000000E+00  0.00000000000E+00  0.17547013805E+04  0.17547013805E+04  0.00000000000E+00 0. -1.
         -1   -1    0    0    0  501 -0.00000000000E+00 -0.00000000000E+00 -0.36186020035E+03  0.36186020035E+03  0.00000000000E+00 0.  1.
         24    2    1    2    0    0 -0.22320339851E+02  0.13793191104E+03  0.11440153446E+04  0.11553112222E+04  0.80308790799E+02 0.  0.
        254    2    1    2    0    0  0.22320339851E+02 -0.13793191104E+03  0.24882583557E+03  0.96125035864E+03  0.91791314724E+03 0.  0.
         23    2    4    4    0    0  0.18736066959E+03 -0.48242046390E+03  0.20442594372E+03  0.56489039079E+03  0.97353287771E+02 0.  0.
         23    2    4    4    0    0 -0.16504032974E+03  0.34448855286E+03  0.44399891846E+02  0.39635996785E+03  0.96016666390E+02 0.  0.
          4    1    3    3  502    0 -0.39561487761E+02  0.12086775199E+03  0.10673400380E+04  0.10748901718E+04  0.00000000000E+00 0. -1.
         -3    1    3    3    0  502  0.17241147910E+02  0.17064159046E+02  0.76675306640E+02  0.80421050438E+02  0.00000000000E+00 0.  1.
         11    1    5    5    0    0  0.11530835480E+03 -0.16741717704E+03  0.71758729156E+02  0.21557792806E+03  0.00000000000E+00 0. -1.
        -11    1    5    5    0    0  0.72052314789E+02 -0.31500328686E+03  0.13266721457E+03  0.34931246273E+03  0.00000000000E+00 0.  1.
          2    1    6    6  503    0 -0.24634583553E+01 -0.30260452305E+01 -0.82255611701E+01  0.91041437471E+01  0.00000000000E+00 0. -1.
         -2    1    6    6    0  503 -0.16257687139E+03  0.34751459809E+03  0.52625453016E+02  0.38725582410E+03  0.00000000000E+00 0.  1.
<mgrwt>
<rscale>  0 0.15936833E+04</rscale>
<asrwt>0</asrwt>
<pdfrwt beam="1">  1        2 0.26995405E+00 0.15936833E+04</pdfrwt>
<pdfrwt beam="2">  1       -1 0.55670801E-01 0.15936833E+04</pdfrwt>
<totfact> 0.32608221E+01</totfact>
</mgrwt>
</event>
<event>
12    6  0.1556619E-007  0.1205577E+04  0.7818608E-02  0.9107989E-01
          2   -1    0    0  501    0  0.00000000000E+00  0.00000000000E+00  0.72418727625E+03  0.72418727625E+03  0.00000000000E+00 0. -1.
         -1   -1    0    0    0  501 -0.00000000000E+00 -0.00000000000E+00 -0.50174007009E+03  0.50174007009E+03  0.00000000000E+00 0.  1.
         24    2    1    2    0    0 -0.24979355805E+03 -0.25043693906E+02  0.11630242876E+03  0.28785992116E+03  0.79454836395E+02 0.  0.
        254    2    1    2    0    0  0.24979355805E+03  0.25043693906E+02  0.10614477740E+03  0.93806742517E+03  0.89759666451E+03 0.  0.
         23    2    4    4    0    0 -0.12623560828E+03 -0.12319288848E+03 -0.30015944037E+03  0.35840002654E+03  0.85105656761E+02 0.  0.
         23    2    4    4    0    0  0.37602916633E+03  0.14823658239E+03  0.40630421777E+03  0.57966739863E+03  0.86943414738E+02 0.  0.
          2    1    3    3  502    0 -0.24587214779E+03 -0.23969209331E+02  0.92617932570E+02  0.26382895498E+03  0.00000000000E+00 0. -1.
         -1    1    3    3    0  502 -0.39214102642E+01 -0.10744845752E+01  0.23684496194E+02  0.24030966180E+02  0.00000000000E+00 0.  1.
         11    1    5    5    0    0 -0.42236711919E+02 -0.78947361978E+02 -0.86034189842E+02  0.12417128339E+03  0.00000000000E+00 0.  1.
        -11    1    5    5    0    0 -0.83998896356E+02 -0.44245526505E+02 -0.21412525053E+03  0.23422874315E+03  0.00000000000E+00 0. -1.
          4    1    6    6  503    0  0.37788071562E+03  0.13700192618E+03  0.39713410273E+03  0.56504766043E+03  0.00000000000E+00 0. -1.
         -4    1    6    6    0  503 -0.18515492888E+01  0.11234656213E+02  0.91701150383E+01  0.14619738192E+02  0.00000000000E+00 0.  1.
<mgrwt>
<rscale>  0 0.12055767E+04</rscale>
<asrwt>0</asrwt>
<pdfrwt beam="1">  1        2 0.11141343E+00 0.12055767E+04</pdfrwt>
<pdfrwt beam="2">  1       -1 0.77190780E-01 0.12055767E+04</pdfrwt>
<totfact> 0.74412241E+01</totfact>
</mgrwt>
</event>
<event>
12    6  0.1556619E-007  0.1782322E+04  0.7818608E-02  0.8715757E-01
          2   -1    0    0  501    0  0.00000000000E+00  0.00000000000E+00  0.71727835813E+03  0.71727835813E+03  0.00000000000E+00 0. -1.
         -1   -1    0    0    0  501 -0.00000000000E+00 -0.00000000000E+00 -0.11071958310E+04  0.11071958310E+04  0.00000000000E+00 0.  1.
         24    2    1    2    0    0  0.16883620361E+03 -0.12986721432E+03 -0.78340588328E+03  0.81571522308E+03  0.79343494963E+02 0.  0.
        254    2    1    2    0    0 -0.16883620361E+03  0.12986721432E+03  0.39348841046E+03  0.10087589660E+04  0.90409643587E+03 0.  0.
         23    2    4    4    0    0 -0.53239270377E+03  0.78719868505E+02  0.27226598660E+03  0.61177538022E+03  0.10247702017E+03 0.  0.
         23    2    4    4    0    0  0.36355650016E+03  0.51147345820E+02  0.12122242386E+03  0.39698358579E+03  0.90065040668E+02 0.  0.
          2    1    3    3  502    0  0.13052217167E+03 -0.11192807394E+03 -0.49036280067E+03  0.51963410907E+03  0.00000000000E+00 0. -1.
         -1    1    3    3    0  502  0.38314031936E+02 -0.17939140381E+02 -0.29304308261E+03  0.29608111400E+03  0.00000000000E+00 0.  1.
         11    1    5    5    0    0 -0.21410938203E+03  0.61201711048E+02  0.15843714702E+03  0.27329618817E+03  0.00000000000E+00 0.  1.
        -11    1    5    5    0    0 -0.31828332173E+03  0.17518157457E+02  0.11382883958E+03  0.33847919206E+03  0.00000000000E+00 0. -1.
          3    1    6    6  503    0  0.88533989032E+02  0.24502444579E+02  0.71102467597E+02  0.11616452945E+03  0.00000000000E+00 0. -1.
         -3    1    6    6    0  503  0.27502251113E+03  0.26644901241E+02  0.50119956259E+02  0.28081905634E+03  0.00000000000E+00 0.  1.
<mgrwt>
<rscale>  0 0.17823216E+04</rscale>
<asrwt>0</asrwt>
<pdfrwt beam="1">  1        2 0.11035052E+00 0.17823216E+04</pdfrwt>
<pdfrwt beam="2">  1       -1 0.17033782E+00 0.17823216E+04</pdfrwt>
<totfact> 0.10489533E+01</totfact>
</mgrwt>
</event>
<event>
12    6  0.1556619E-007  0.1547770E+04  0.7818608E-02  0.8853294E-01
         -1   -1    0    0    0  501 -0.00000000000E+00  0.00000000000E+00  0.31556860356E+03  0.31556860356E+03  0.00000000000E+00 0.  1.
          2   -1    0    0  501    0  0.00000000000E+00 -0.00000000000E+00 -0.18978366000E+04  0.18978366000E+04  0.00000000000E+00 0. -1.
         24    2    1    2    0    0 -0.19805275493E+03  0.26395573257E+03  0.28289819910E+02  0.34066133430E+03  0.79701369426E+02 0.  0.
        254    2    1    2    0    0  0.19805275493E+03 -0.26395573257E+03 -0.16105578163E+04  0.18727438692E+04  0.89686988884E+03 0.  0.
         23    2    4    4    0    0 -0.14986976623E+03 -0.44388754812E+03 -0.50389871275E+03  0.69526182243E+03  0.99889873400E+02 0.  0.
         23    2    4    4    0    0  0.34792252116E+03  0.17993181555E+03 -0.11066591036E+04  0.11774820468E+04  0.91345826564E+02 0.  0.
          2    1    3    3  502    0 -0.10959271277E+03  0.17871545713E+03 -0.15573055090E+02  0.21021964074E+03  0.00000000000E+00 0. -1.
         -1    1    3    3    0  502 -0.88460042161E+02  0.85240275436E+02  0.43862874999E+02  0.13044169356E+03  0.00000000000E+00 0.  1.
         11    1    5    5    0    0 -0.12093142969E+03 -0.41336455558E+03 -0.48648202226E+03  0.64973796601E+03  0.00000000000E+00 0. -1.
        -11    1    5    5    0    0 -0.28938336538E+02 -0.30522992545E+02 -0.17416690492E+02  0.45523856418E+02  0.00000000000E+00 0.  1.
          3    1    6    6  503    0  0.19254372381E+03  0.14968029598E+03 -0.66403960807E+03  0.70740785808E+03  0.00000000000E+00 0. -1.
         -3    1    6    6    0  503  0.15537879735E+03  0.30251519579E+02 -0.44261949550E+03  0.47007418872E+03  0.00000000000E+00 0.  1.
<mgrwt>
<rscale>  0 0.15477696E+04</rscale>
<asrwt>0</asrwt>
<pdfrwt beam="1">  1        2 0.29197487E+00 0.15477696E+04</pdfrwt>
<pdfrwt beam="2">  1       -1 0.48549015E-01 0.15477696E+04</pdfrwt>
<totfact> 0.35452456E+01</totfact>
</mgrwt>
</event>
<event>
12    6  0.1556619E-007  0.1085573E+04  0.7818608E-02  0.9219369E-01
          2   -1    0    0  501    0  0.00000000000E+00  0.00000000000E+00  0.49916608120E+03  0.49916608120E+03  0.00000000000E+00 0. -1.
         -1   -1    0    0    0  501 -0.00000000000E+00 -0.00000000000E+00 -0.59021874174E+03  0.59021874174E+03  0.00000000000E+00 0.  1.
         24    2    1    2    0    0  0.12197147656E+02  0.20379470332E+02  0.13697060781E+03  0.16168528603E+03  0.82565677446E+02 0.  0.
        254    2    1    2    0    0 -0.12197147656E+02 -0.20379470332E+02 -0.22802326835E+03  0.92769953691E+03  0.89892587384E+03 0.  0.
         23    2    4    4    0    0 -0.14611451276E+03  0.18594894571E+03  0.26681834726E+03  0.36761569401E+03  0.89570122228E+02 0.  0.
         23    2    4    4    0    0  0.13391736510E+03 -0.20632841604E+03 -0.49484161561E+03  0.56008384291E+03  0.91216284766E+02 0.  0.
          4    1    3    3  502    0  0.35853075361E+02  0.12071571471E+02  0.13038512531E+03  0.13576246445E+03  0.00000000000E+00 0. -1.
         -3    1    3    3    0  502 -0.23655927705E+02  0.83078988607E+01  0.65854825040E+01  0.25922821584E+02  0.00000000000E+00 0.  1.
         11    1    5    5    0    0 -0.12505255285E+03  0.13722299101E+03  0.14782671865E+03  0.23732051952E+03  0.00000000000E+00 0. -1.
        -11    1    5    5    0    0 -0.21061959907E+02  0.48725954698E+02  0.11899162861E+03  0.13029517449E+03  0.00000000000E+00 0.  1.
          4    1    6    6  503    0 -0.87488004809E+01 -0.23088760886E+02 -0.90399986291E+02  0.93711204829E+02  0.00000000000E+00 0. -1.
         -4    1    6    6    0  503  0.14266616558E+03 -0.18323965515E+03 -0.40444162932E+03  0.46637263808E+03  0.00000000000E+00 0.  1.
<mgrwt>
<rscale>  0 0.10855730E+04</rscale>
<asrwt>0</asrwt>
<pdfrwt beam="1">  1        2 0.76794782E-01 0.10855730E+04</pdfrwt>
<pdfrwt beam="2">  1       -1 0.90802883E-01 0.10855730E+04</pdfrwt>
<totfact> 0.83098728E+01</totfact>
</mgrwt>
</event>
<event>
12    6  0.1556619E-007  0.1728824E+04  0.7818608E-02  0.8745094E-01
          2   -1    0    0  501    0  0.00000000000E+00  0.00000000000E+00  0.37495961978E+04  0.37495961978E+04  0.00000000000E+00 0. -1.
         -1   -1    0    0    0  501 -0.00000000000E+00 -0.00000000000E+00 -0.19927691022E+03  0.19927691022E+03  0.00000000000E+00 0.  1.
         24    2    1    2    0    0  0.54703611402E+03 -0.17859645312E+02  0.19968315746E+04  0.20720874177E+04  0.81501239747E+02 0.  0.
        254    2    1    2    0    0 -0.54703611402E+03  0.17859645312E+02  0.15534877130E+04  0.18767856904E+04  0.89968493166E+03 0.  0.
         23    2    4    4    0    0 -0.21092822308E+03 -0.40822266535E+03  0.95464943395E+03  0.10635454691E+04  0.92935264348E+02 0.  0.
         23    2    4    4    0    0 -0.33610789094E+03  0.42608231066E+03  0.59883827906E+03  0.81324022128E+03  0.90761904068E+02 0.  0.
          4    1    3    3  502    0  0.69494501345E+02 -0.22868462320E+02  0.34114614516E+03  0.34890277248E+03  0.00000000000E+00 0. -1.
         -3    1    3    3    0  502  0.47754161268E+03  0.50088170077E+01  0.16556854295E+04  0.17231846452E+04  0.00000000000E+00 0.  1.
         11    1    5    5    0    0 -0.19880982737E+03 -0.34311104294E+03  0.74904154886E+03  0.84753393865E+03  0.00000000000E+00 0.  1.
        -11    1    5    5    0    0 -0.12118395715E+02 -0.65111622410E+02  0.20560788508E+03  0.21601153047E+03  0.00000000000E+00 0. -1.
          3    1    6    6  503    0 -0.49479849476E+02  0.58260261634E+02  0.42995311412E+02  0.87698976010E+02  0.00000000000E+00 0. -1.
         -3    1    6    6    0  503 -0.28662804147E+03  0.36782204903E+03  0.55584296765E+03  0.72554124527E+03  0.00000000000E+00 0.  1.
<mgrwt>
<rscale>  0 0.17288238E+04</rscale>
<asrwt>0</asrwt>
<pdfrwt beam="1">  1        2 0.57686090E+00 0.17288238E+04</pdfrwt>
<pdfrwt beam="2">  1       -1 0.30657989E-01 0.17288238E+04</pdfrwt>
<totfact> 0.57640791E+00</totfact>
</mgrwt>
</event>
<event>
12    6  0.1556619E-007  0.3154311E+04  0.7818608E-02  0.8200989E-01
         -1   -1    0    0    0  501 -0.00000000000E+00  0.00000000000E+00  0.16852708682E+04  0.16852708682E+04  0.00000000000E+00 0.  1.
          2   -1    0    0  501    0  0.00000000000E+00 -0.00000000000E+00 -0.14759759697E+04  0.14759759697E+04  0.00000000000E+00 0. -1.
         24    2    1    2    0    0 -0.88074444694E+02 -0.44973014108E+02 -0.13481380223E+04  0.13538427432E+04  0.75062416699E+02 0.  0.
        254    2    1    2    0    0  0.88074444694E+02  0.44973014108E+02  0.15574329208E+04  0.18074040948E+04  0.91177441254E+03 0.  0.
         23    2    4    4    0    0  0.19556604852E+03  0.40357941401E+03  0.11915780537E+04  0.12761983263E+04  0.87758117880E+02 0.  0.
         23    2    4    4    0    0 -0.10749160383E+03 -0.35860639990E+03  0.36585486703E+03  0.53120576845E+03  0.90425603450E+02 0.  0.
          4    1    3    3  502    0 -0.57144301415E+02 -0.47511375838E+01 -0.10379111847E+04  0.10394939499E+04  0.00000000000E+00 0. -1.
         -3    1    3    3    0  502 -0.30930143279E+02 -0.40221876524E+02 -0.31022683754E+03  0.31434879329E+03  0.00000000000E+00 0.  1.
         11    1    5    5    0    0  0.16432585821E+03  0.24276833787E+03  0.76327151139E+03  0.81763246857E+03  0.00000000000E+00 0.  1.
        -11    1    5    5    0    0  0.31240190313E+02  0.16081107614E+03  0.42830654234E+03  0.45856585777E+03  0.00000000000E+00 0. -1.
          3    1    6    6  503    0  0.13537547832E+02 -0.51943443422E+02  0.70205727996E+02  0.88375509952E+02  0.00000000000E+00 0. -1.
         -3    1    6    6    0  503 -0.12102915166E+03 -0.30666295648E+03  0.29564913904E+03  0.44283025850E+03  0.00000000000E+00 0.  1.
<mgrwt>
<rscale>  0 0.31543109E+04</rscale>
<asrwt>0</asrwt>
<pdfrwt beam="1">  1        2 0.22707323E+00 0.31543109E+04</pdfrwt>
<pdfrwt beam="2">  1       -1 0.25927244E+00 0.31543109E+04</pdfrwt>
<totfact> 0.76458775E-01</totfact>
</mgrwt>
</event>
<event>
12    6  0.1556619E-007  0.2821096E+04  0.7818608E-02  0.8296749E-01
         -1   -1    0    0    0  501 -0.00000000000E+00  0.00000000000E+00  0.75788833752E+03  0.75788833752E+03  0.00000000000E+00 0.  1.
          2   -1    0    0  501    0  0.00000000000E+00 -0.00000000000E+00 -0.26252481727E+04  0.26252481727E+04  0.00000000000E+00 0. -1.
         24    2    1    2    0    0  0.88484054985E+03 -0.21605868131E+03  0.22123951404E+03  0.94065853103E+03  0.79166893268E+02 0.  0.
        254    2    1    2    0    0 -0.88484054985E+03  0.21605868131E+03 -0.20885993492E+04  0.24424779792E+04  0.87967453345E+03 0.  0.
         23    2    4    4    0    0 -0.18985291826E+03 -0.11014438251E+03 -0.13581861683E+04  0.13790749112E+04  0.94879013776E+02 0.  0.
         23    2    4    4    0    0 -0.69498763159E+03  0.32620306382E+03 -0.73041318092E+03  0.10634030680E+04  0.88918070768E+02 0.  0.
          2    1    3    3  502    0  0.56068854223E+02 -0.31564444654E+02  0.26287717036E+02  0.69505932460E+02  0.00000000000E+00 0. -1.
         -1    1    3    3    0  502  0.82877169563E+03 -0.18449423665E+03  0.19495179701E+03  0.87115259857E+03  0.00000000000E+00 0.  1.
         11    1    5    5    0    0 -0.34278267863E+02 -0.56505278562E+02 -0.57507067493E+03  0.57885587785E+03  0.00000000000E+00 0. -1.
        -11    1    5    5    0    0 -0.15557465040E+03 -0.53639103949E+02 -0.78311549338E+03  0.80021903333E+03  0.00000000000E+00 0.  1.
          3    1    6    6  503    0 -0.65713716741E+03  0.32703816519E+03 -0.68207014834E+03  0.10019994539E+04  0.00000000000E+00 0. -1.
         -3    1    6    6    0  503 -0.37850464175E+02 -0.83510137149E+00 -0.48343032576E+02  0.61403614154E+02  0.00000000000E+00 0.  1.
<mgrwt>
<rscale>  0 0.28210955E+04</rscale>
<asrwt>0</asrwt>
<pdfrwt beam="1">  1        2 0.40388434E+00 0.28210955E+04</pdfrwt>
<pdfrwt beam="2">  1       -1 0.11659820E+00 0.28210955E+04</pdfrwt>
<totfact> 0.19274387E+00</totfact>
</mgrwt>
</event>
<event>
12    6  0.1556619E-007  0.1106850E+04  0.7818608E-02  0.9198541E-01
          2   -1    0    0  501    0  0.00000000000E+00  0.00000000000E+00  0.14422948272E+04  0.14422948272E+04  0.00000000000E+00 0. -1.
         -1   -1    0    0    0  501 -0.00000000000E+00 -0.00000000000E+00 -0.21235545716E+03  0.21235545716E+03  0.00000000000E+00 0.  1.
         24    2    1    2    0    0  0.90876559862E+02  0.34812887972E+01 -0.84466243545E+01  0.12262511794E+03  0.81822402691E+02 0.  0.
        254    2    1    2    0    0 -0.90876559862E+02 -0.34812887972E+01  0.12383859944E+04  0.15320251664E+04  0.89734640520E+03 0.  0.
         23    2    4    4    0    0  0.19274968521E+03  0.10208679324E+03 -0.17019458437E+02  0.23748844534E+03  0.92395590820E+02 0.  0.
         23    2    4    4    0    0 -0.28362624508E+03 -0.10556808203E+03  0.12554054528E+04  0.12945367211E+04  0.90520739963E+02 0.  0.
          4    1    3    3  502    0  0.34120622297E+01  0.19024628262E+02  0.21469670980E+02  0.28888153647E+02  0.00000000000E+00 0. -1.
         -3    1    3    3    0  502  0.87464497632E+02 -0.15543339465E+02 -0.29916295334E+02  0.93736964290E+02  0.00000000000E+00 0.  1.
         11    1    5    5    0    0  0.12300837773E+03  0.84868498507E+02 -0.51151859675E+02  0.15795643633E+03  0.00000000000E+00 0. -1.
        -11    1    5    5    0    0  0.69741307489E+02  0.17218294728E+02  0.34132401239E+02  0.79532009015E+02  0.00000000000E+00 0.  1.
          4    1    6    6  503    0  0.41642791805E+01 -0.89874693352E+01  0.78052557165E+02  0.78678570820E+02  0.00000000000E+00 0. -1.
         -4    1    6    6    0  503 -0.28779052426E+03 -0.96580612697E+02  0.11773528957E+04  0.12158581503E+04  0.00000000000E+00 0.  1.
<mgrwt>
<rscale>  0 0.11068499E+04</rscale>
<asrwt>0</asrwt>
<pdfrwt beam="1">  1        2 0.22189151E+00 0.11068499E+04</pdfrwt>
<pdfrwt beam="2">  1       -1 0.32670071E-01 0.11068499E+04</pdfrwt>
<totfact> 0.13573525E+02</totfact>
</mgrwt>
</event>
<event>
12    6  0.1556619E-007  0.2870573E+04  0.7818608E-02  0.8281687E-01
         -1   -1    0    0    0  501 -0.00000000000E+00  0.00000000000E+00  0.97558096556E+03  0.97558096556E+03  0.00000000000E+00 0.  1.
          2   -1    0    0  501    0  0.00000000000E+00 -0.00000000000E+00 -0.21116114134E+04  0.21116114134E+04  0.00000000000E+00 0. -1.
         24    2    1    2    0    0  0.66058282139E+03 -0.56000687893E+03  0.52955262113E+03  0.10183669049E+04  0.81656634843E+02 0.  0.
        254    2    1    2    0    0 -0.66058282139E+03  0.56000687893E+03 -0.16655830690E+04  0.20688254741E+04  0.86942194261E+03 0.  0.
         23    2    4    4    0    0  0.67988681513E+02  0.25578364745E+03 -0.98084304627E+03  0.10197259721E+04  0.87978642829E+02 0.  0.
         23    2    4    4    0    0 -0.72857150290E+03  0.30422323148E+03 -0.68474002271E+03  0.10490995020E+04  0.91502224337E+02 0.  0.
          2    1    3    3  502    0  0.28629330657E+03 -0.19640208812E+03  0.23363044147E+03  0.41847439681E+03  0.00000000000E+00 0. -1.
         -1    1    3    3    0  502  0.37428951482E+03 -0.36360479081E+03  0.29592217966E+03  0.59989250805E+03  0.00000000000E+00 0.  1.
         11    1    5    5    0    0 -0.54243428598E+01  0.78727465404E+02 -0.18502023614E+03  0.20114652640E+03  0.00000000000E+00 0.  1.
        -11    1    5    5    0    0  0.73413024373E+02  0.17705618205E+03 -0.79582281014E+03  0.81857944568E+03  0.00000000000E+00 0. -1.
          4    1    6    6  503    0 -0.46989551703E+02  0.46262158537E+02 -0.61839651401E+02  0.90401038529E+02  0.00000000000E+00 0. -1.
         -4    1    6    6    0  503 -0.68158195120E+03  0.25796107294E+03 -0.62290037131E+03  0.95869846351E+03  0.00000000000E+00 0.  1.
<mgrwt>
<rscale>  0 0.28705734E+04</rscale>
<asrwt>0</asrwt>
<pdfrwt beam="1">  1        2 0.32486329E+00 0.28705734E+04</pdfrwt>
<pdfrwt beam="2">  1       -1 0.15008938E+00 0.28705734E+04</pdfrwt>
<totfact> 0.19840227E+00</totfact>
</mgrwt>
</event>
<event>
12    6  0.1556619E-007  0.1183251E+04  0.7818608E-02  0.9127645E-01
         -1   -1    0    0    0  501 -0.00000000000E+00  0.00000000000E+00  0.14395561610E+03  0.14395561610E+03  0.00000000000E+00 0.  1.
          2   -1    0    0  501    0  0.00000000000E+00 -0.00000000000E+00 -0.24314484956E+04  0.24314484956E+04  0.00000000000E+00 0. -1.
         24    2    1    2    0    0  0.77951895714E+02 -0.31810668376E+02 -0.75236968981E-02  0.11633464161E+03  0.80282825778E+02 0.  0.
        254    2    1    2    0    0 -0.77951895714E+02  0.31810668376E+02 -0.22874853558E+04  0.24590694701E+04  0.89852378324E+03 0.  0.
         23    2    4    4    0    0  0.49145019364E+02 -0.11551264880E+03  0.57906289183E+01  0.15564511419E+03  0.91833900206E+02 0.  0.
         23    2    4    4    0    0 -0.12709691508E+03  0.14732331717E+03 -0.22932759847E+04  0.23034243559E+04  0.93761589553E+02 0.  0.
          4    1    3    3  502    0  0.16690098024E+02 -0.23376261600E+02 -0.35003138406E+02  0.45279450932E+02  0.00000000000E+00 0. -1.
         -3    1    3    3    0  502  0.61261797691E+02 -0.84344067754E+01  0.34995614710E+02  0.71055190682E+02  0.00000000000E+00 0.  1.
         11    1    5    5    0    0  0.29400073548E+02 -0.56965245938E+02  0.48627113032E+02  0.80461168841E+02  0.00000000000E+00 0.  1.
        -11    1    5    5    0    0  0.19744945816E+02 -0.58547402859E+02 -0.42836484114E+02  0.75183945347E+02  0.00000000000E+00 0. -1.
          1    1    6    6  503    0 -0.71480896137E+02  0.29668219556E+02 -0.56819341659E+03  0.57344004082E+03  0.00000000000E+00 0. -1.
         -1    1    6    6    0  503 -0.55616018941E+02  0.11765509762E+03 -0.17250825681E+04  0.17299843150E+04  0.00000000000E+00 0.  1.
<mgrwt>
<rscale>  0 0.11832509E+04</rscale>
<asrwt>0</asrwt>
<pdfrwt beam="1">  1        2 0.37406897E+00 0.11832509E+04</pdfrwt>
<pdfrwt beam="2">  1       -1 0.22147020E-01 0.11832509E+04</pdfrwt>
<totfact> 0.74338377E+01</totfact>
</mgrwt>
</event>
<event>
12    6  0.1556619E-007  0.2939333E+04  0.7818608E-02  0.8261270E-01
         -1   -1    0    0    0  501 -0.00000000000E+00  0.00000000000E+00  0.84430591132E+03  0.84430591132E+03  0.00000000000E+00 0.  1.
          2   -1    0    0  501    0  0.00000000000E+00 -0.00000000000E+00 -0.25582197530E+04  0.25582197530E+04  0.00000000000E+00 0. -1.
         24    2    1    2    0    0 -0.96078816548E+03 -0.20019209221E+03  0.30611202654E+03  0.10311594759E+04  0.79965738227E+02 0.  0.
        254    2    1    2    0    0  0.96078816548E+03  0.20019209221E+03 -0.20200258683E+04  0.23713661884E+04  0.76136871389E+03 0.  0.
         23    2    4    4    0    0  0.14209254169E+03  0.46742094374E+02  0.10270903523E+02  0.17489706525E+03  0.90046533432E+02 0.  0.
         23    2    4    4    0    0  0.81869562379E+03  0.15344999784E+03 -0.20302967718E+04  0.21964691232E+04  0.92532163820E+02 0.  0.
          4    1    3    3  502    0 -0.10446073765E+03 -0.24646888430E+02  0.60352635557E+02  0.12313389232E+03  0.00000000000E+00 0. -1.
         -3    1    3    3    0  502 -0.85632742783E+03 -0.17554520378E+03  0.24575939099E+03  0.90802558360E+03  0.00000000000E+00 0.  1.
         11    1    5    5    0    0  0.10857198190E+02  0.27952480336E+02 -0.23490270581E+02  0.38092160892E+02  0.00000000000E+00 0. -1.
        -11    1    5    5    0    0  0.13123534350E+03  0.18789614038E+02  0.33761174104E+02  0.13680490436E+03  0.00000000000E+00 0.  1.
          1    1    6    6  503    0  0.22941312646E+03  0.19491321565E+02 -0.47396321359E+03  0.52692639149E+03  0.00000000000E+00 0. -1.
         -1    1    6    6    0  503  0.58928249733E+03  0.13395867627E+03 -0.15563335582E+04  0.16695427317E+04  0.00000000000E+00 0.  1.
<mgrwt>
<rscale>  0 0.29393333E+04</rscale>
<asrwt>0</asrwt>
<pdfrwt beam="1">  1        2 0.39357227E+00 0.29393333E+04</pdfrwt>
<pdfrwt beam="2">  1       -1 0.12989322E+00 0.29393333E+04</pdfrwt>
<totfact> 0.15995291E+00</totfact>
</mgrwt>
</event>
<event>
12    6  0.1556619E-007  0.1757910E+04  0.7818608E-02  0.8729008E-01
         -1   -1    0    0    0  501 -0.00000000000E+00  0.00000000000E+00  0.59194926121E+03  0.59194926121E+03  0.00000000000E+00 0.  1.
          2   -1    0    0  501    0  0.00000000000E+00 -0.00000000000E+00 -0.13051153058E+04  0.13051153058E+04  0.00000000000E+00 0. -1.
         24    2    1    2    0    0 -0.34244709927E+03 -0.32928581611E+03  0.20552215926E+03  0.52315486577E+03  0.75845178708E+02 0.  0.
        254    2    1    2    0    0  0.34244709927E+03  0.32928581611E+03 -0.91868820388E+03  0.13739097013E+04  0.90440073354E+03 0.  0.
         23    2    4    4    0    0  0.47384539648E+03 -0.53889192300E+02 -0.81079214246E+03  0.94496557289E+03  0.90235973179E+02 0.  0.
         23    2    4    4    0    0 -0.13139829721E+03  0.38317500841E+03 -0.10789606142E+03  0.42894412839E+03  0.90900526004E+02 0.  0.
          2    1    3    3  502    0 -0.12701615419E+03 -0.81893452685E+02  0.43404482896E+02  0.15723736882E+03  0.00000000000E+00 0. -1.
         -1    1    3    3    0  502 -0.21543094509E+03 -0.24739236343E+03  0.16211767636E+03  0.36591749695E+03  0.00000000000E+00 0.  1.
         11    1    5    5    0    0  0.37625662971E+03 -0.73677468868E+01 -0.60472723143E+03  0.71226284441E+03  0.00000000000E+00 0.  1.
        -11    1    5    5    0    0  0.97588766778E+02 -0.46521445414E+02 -0.20606491103E+03  0.23270272848E+03  0.00000000000E+00 0. -1.
          1    1    6    6  503    0  0.20845166902E+01  0.11391288581E+03 -0.18714781265E+02  0.11545879699E+03  0.00000000000E+00 0. -1.
         -1    1    6    6    0  503 -0.13348281390E+03  0.26926212260E+03 -0.89181280150E+02  0.31348533140E+03  0.00000000000E+00 0.  1.
<mgrwt>
<rscale>  0 0.17579102E+04</rscale>
<asrwt>0</asrwt>
<pdfrwt beam="1">  1        2 0.20078697E+00 0.17579102E+04</pdfrwt>
<pdfrwt beam="2">  1       -1 0.91069118E-01 0.17579102E+04</pdfrwt>
<totfact> 0.20863703E+01</totfact>
</mgrwt>
</event>
<event>
12    6  0.1556619E-007  0.1501961E+04  0.7818608E-02  0.8883150E-01
         -1   -1    0    0    0  501 -0.00000000000E+00  0.00000000000E+00  0.65447364283E+03  0.65447364283E+03  0.00000000000E+00 0.  1.
          2   -1    0    0  501    0  0.00000000000E+00 -0.00000000000E+00 -0.86171762989E+03  0.86171762989E+03  0.00000000000E+00 0. -1.
         24    2    1    2    0    0  0.21676473725E+03  0.39270763073E+03 -0.22720543934E+03  0.50709982610E+03  0.65739542235E+02 0.  0.
        254    2    1    2    0    0 -0.21676473725E+03 -0.39270763073E+03  0.19961452279E+02  0.10090914466E+04  0.90369289780E+03 0.  0.
         23    2    4    4    0    0 -0.13016451291E+02 -0.19134694425E+02  0.41246160889E+03  0.42329250585E+03  0.92284354908E+02 0.  0.
         23    2    4    4    0    0 -0.20374828596E+03 -0.37357293630E+03 -0.39250015661E+03  0.58579894078E+03  0.89632155550E+02 0.  0.
          4    1    3    3  502    0  0.21430288861E+03  0.37111760766E+03 -0.20184749909E+03  0.47370499223E+03  0.00000000000E+00 0. -1.
         -3    1    3    3    0  502  0.24618486457E+01  0.21590023071E+02 -0.25357940251E+02  0.33394833863E+02  0.00000000000E+00 0.  1.
         11    1    5    5    0    0  0.31171888650E+02 -0.55177356600E+00  0.29174772277E+03  0.29340880156E+03  0.00000000000E+00 0. -1.
        -11    1    5    5    0    0 -0.44188339941E+02 -0.18582920859E+02  0.12071388613E+03  0.12988370428E+03  0.00000000000E+00 0.  1.
          3    1    6    6  503    0 -0.19202260229E+03 -0.27495244568E+03 -0.29569680376E+03  0.44711086648E+03  0.00000000000E+00 0. -1.
         -3    1    6    6    0  503 -0.11725683674E+02 -0.98620490625E+02 -0.96803352857E+02  0.13868807430E+03  0.00000000000E+00 0.  1.
<mgrwt>
<rscale>  0 0.15019607E+04</rscale>
<asrwt>0</asrwt>
<pdfrwt beam="1">  1        2 0.13257194E+00 0.15019607E+04</pdfrwt>
<pdfrwt beam="2">  1       -1 0.10068825E+00 0.15019607E+04</pdfrwt>
<totfact> 0.32235703E+01</totfact>
</mgrwt>
</event>
<event>
12    6  0.1556619E-007  0.1416498E+04  0.7818608E-02  0.8941962E-01
         -1   -1    0    0    0  501 -0.00000000000E+00  0.00000000000E+00  0.45456756446E+03  0.45456756446E+03  0.00000000000E+00 0.  1.
          2   -1    0    0  501    0  0.00000000000E+00 -0.00000000000E+00 -0.11035026326E+04  0.11035026326E+04  0.00000000000E+00 0. -1.
         24    2    1    2    0    0  0.51483429660E+02  0.39834704140E+03 -0.73429496586E+02  0.41601340136E+03  0.79651429532E+02 0.  0.
        254    2    1    2    0    0 -0.51483429660E+02 -0.39834704140E+03 -0.57550557152E+03  0.11420567957E+04  0.90097511218E+03 0.  0.
         23    2    4    4    0    0 -0.44817494554E+03 -0.32243560847E+03 -0.24242527381E+03  0.60991554864E+03  0.91659476764E+02 0.  0.
         23    2    4    4    0    0  0.39669151588E+03 -0.75911432926E+02 -0.33308029771E+03  0.53214124702E+03  0.95420740117E+02 0.  0.
          4    1    3    3  502    0  0.30278150484E+02  0.24449979951E+03 -0.84149249225E+02  0.26034211051E+03  0.00000000000E+00 0. -1.
         -3    1    3    3    0  502  0.21205279176E+02  0.15384724189E+03  0.10719752639E+02  0.15567129086E+03  0.00000000000E+00 0.  1.
         11    1    5    5    0    0 -0.28940657283E+02  0.26473435327E+01 -0.15184591366E+02  0.32789356302E+02  0.00000000000E+00 0. -1.
        -11    1    5    5    0    0 -0.41923428825E+03 -0.32508295200E+03 -0.22724068244E+03  0.57712619234E+03  0.00000000000E+00 0.  1.
          1    1    6    6  503    0  0.26892938396E+03 -0.81223803720E+02 -0.18442412780E+03  0.33605442827E+03  0.00000000000E+00 0. -1.
         -1    1    6    6    0  503  0.12776213192E+03  0.53123707943E+01 -0.14865616991E+03  0.19608681875E+03  0.00000000000E+00 0.  1.
<mgrwt>
<rscale>  0 0.14164978E+04</rscale>
<asrwt>0</asrwt>
<pdfrwt beam="1">  1        2 0.16976963E+00 0.14164978E+04</pdfrwt>
<pdfrwt beam="2">  1       -1 0.69933473E-01 0.14164978E+04</pdfrwt>
<totfact> 0.49694087E+01</totfact>
</mgrwt>
</event>
<event>
12    6  0.1556619E-007  0.1055617E+04  0.7818608E-02  0.9249564E-01
          2   -1    0    0  501    0  0.00000000000E+00  0.00000000000E+00  0.60706593856E+03  0.60706593856E+03  0.00000000000E+00 0. -1.
         -1   -1    0    0    0  501 -0.00000000000E+00 -0.00000000000E+00 -0.45889859402E+03  0.45889859402E+03  0.00000000000E+00 0.  1.
         24    2    1    2    0    0 -0.97405213239E+01  0.58629132964E+02  0.12837229426E+03  0.16340492643E+03  0.81789186703E+02 0.  0.
        254    2    1    2    0    0  0.97405213239E+01 -0.58629132964E+02  0.19795050283E+02  0.90255960614E+03  0.90038311048E+03 0.  0.
         23    2    4    4    0    0 -0.40991411806E+03 -0.42459724274E+02 -0.13680094847E+03  0.44394172235E+03  0.92397732494E+02 0.  0.
         23    2    4    4    0    0  0.41965463938E+03 -0.16169408690E+02  0.15659599875E+03  0.45861788380E+03  0.97142114366E+02 0.  0.
          4    1    3    3  502    0  0.13840745560E+02  0.44815006110E+02  0.12772815603E+03  0.13606775096E+03  0.00000000000E+00 0. -1.
         -3    1    3    3    0  502 -0.23581266884E+02  0.13814126855E+02  0.64413823303E+00  0.27337175470E+02  0.00000000000E+00 0.  1.
         11    1    5    5    0    0 -0.13917592876E+02 -0.17132158558E+02  0.48707310171E+01  0.22603855179E+02  0.00000000000E+00 0. -1.
        -11    1    5    5    0    0 -0.39599652518E+03 -0.25327565716E+02 -0.14167167949E+03  0.42133786717E+03  0.00000000000E+00 0.  1.
          4    1    6    6  503    0  0.41819424960E+03 -0.58263136680E+01  0.15975103440E+03  0.44770611937E+03  0.00000000000E+00 0.  1.
         -4    1    6    6    0  503  0.14603897794E+01 -0.10343095022E+02 -0.31550356507E+01  0.10911764426E+02  0.00000000000E+00 0. -1.
<mgrwt>
<rscale>  0 0.10556168E+04</rscale>
<asrwt>0</asrwt>
<pdfrwt beam="1">  1        2 0.93394760E-01 0.10556168E+04</pdfrwt>
<pdfrwt beam="2">  1       -1 0.70599784E-01 0.10556168E+04</pdfrwt>
<totfact> 0.11279911E+02</totfact>
</mgrwt>
</event>
<event>
12    6  0.1556619E-007  0.1661500E+04  0.7818608E-02  0.8783632E-01
         -1   -1    0    0    0  501 -0.00000000000E+00  0.00000000000E+00  0.69998448013E+03  0.69998448013E+03  0.00000000000E+00 0.  1.
          2   -1    0    0  501    0  0.00000000000E+00 -0.00000000000E+00 -0.98594430323E+03  0.98594430323E+03  0.00000000000E+00 0. -1.
         24    2    1    2    0    0  0.21167011260E+02 -0.20332594072E+03  0.45125652980E+03  0.50177854950E+03  0.79748206953E+02 0.  0.
        254    2    1    2    0    0 -0.21167011260E+02  0.20332594072E+03 -0.73721635291E+03  0.11841502339E+04  0.90384420384E+03 0.  0.
         23    2    4    4    0    0 -0.25142452869E+03  0.17991159263E+03 -0.85108437191E+03  0.91060727178E+03  0.96325077350E+02 0.  0.
         23    2    4    4    0    0  0.23025751743E+03  0.23414348092E+02  0.11386801900E+03  0.27354296208E+03  0.91066296292E+02 0.  0.
          2    1    3    3  502    0 -0.25791436240E+02 -0.32702274970E+02  0.70018512703E+02  0.81469191065E+02  0.00000000000E+00 0. -1.
         -1    1    3    3    0  502  0.46958447500E+02 -0.17062366575E+03  0.38123801710E+03  0.42030935844E+03  0.00000000000E+00 0.  1.
         11    1    5    5    0    0 -0.19297578479E+03  0.10698060795E+03 -0.68945446653E+03  0.72390052177E+03  0.00000000000E+00 0.  1.
        -11    1    5    5    0    0 -0.58448743897E+02  0.72930984678E+02 -0.16162990538E+03  0.18670675002E+03  0.00000000000E+00 0. -1.
          3    1    6    6  503    0  0.15900405118E+02  0.17417194520E+02  0.40559541662E+02  0.46917565663E+02  0.00000000000E+00 0. -1.
         -3    1    6    6    0  503  0.21435711231E+03  0.59971535721E+01  0.73308477340E+02  0.22662539641E+03  0.00000000000E+00 0.  1.
<mgrwt>
<rscale>  0 0.16615002E+04</rscale>
<asrwt>0</asrwt>
<pdfrwt beam="1">  1        2 0.15168374E+00 0.16615002E+04</pdfrwt>
<pdfrwt beam="2">  1       -1 0.10768992E+00 0.16615002E+04</pdfrwt>
<totfact> 0.22477731E+01</totfact>
</mgrwt>
</event>
<event>
12    6  0.1556619E-007  0.2592712E+04  0.7818608E-02  0.8370681E-01
         -1   -1    0    0    0  501 -0.00000000000E+00  0.00000000000E+00  0.90897272150E+03  0.90897272150E+03  0.00000000000E+00 0.  1.
          2   -1    0    0  501    0  0.00000000000E+00 -0.00000000000E+00 -0.18488334984E+04  0.18488334984E+04  0.00000000000E+00 0. -1.
         24    2    1    2    0    0  0.49857884439E+01 -0.15092022405E+03  0.78320274214E+03  0.80158433916E+03  0.79555926065E+02 0.  0.
        254    2    1    2    0    0 -0.49857884439E+01  0.15092022405E+03 -0.17230635191E+04  0.19562218808E+04  0.91381310123E+03 0.  0.
         23    2    4    4    0    0 -0.28023953546E+03  0.89759728757E+02 -0.16083855702E+04  0.16376228554E+04  0.91178220229E+02 0.  0.
         23    2    4    4    0    0  0.27525374702E+03  0.61160495295E+02 -0.11467794889E+03  0.31859902543E+03  0.94069525420E+02 0.  0.
          2    1    3    3  502    0  0.14704568873E+02 -0.48747682047E+02  0.11808927398E+03  0.12859874603E+03  0.00000000000E+00 0. -1.
         -1    1    3    3    0  502 -0.97187804290E+01 -0.10217254200E+03  0.66511346816E+03  0.67298559313E+03  0.00000000000E+00 0.  1.
         11    1    5    5    0    0 -0.21700074215E+03  0.27008088670E+02 -0.11092917523E+04  0.11306400624E+04  0.00000000000E+00 0. -1.
        -11    1    5    5    0    0 -0.63238793317E+02  0.62751640087E+02 -0.49909381790E+03  0.50698279298E+03  0.00000000000E+00 0.  1.
          1    1    6    6  503    0  0.26940116308E+03  0.52264792750E+02 -0.12693788768E+03  0.30236041831E+03  0.00000000000E+00 0. -1.
         -1    1    6    6    0  503  0.58525839379E+01  0.88957025448E+01  0.12259938783E+02  0.16238607128E+02  0.00000000000E+00 0.  1.
<mgrwt>
<rscale>  0 0.25927123E+04</rscale>
<asrwt>0</asrwt>
<pdfrwt beam="1">  1        2 0.28443592E+00 0.25927123E+04</pdfrwt>
<pdfrwt beam="2">  1       -1 0.13984196E+00 0.25927123E+04</pdfrwt>
<totfact> 0.34330331E+00</totfact>
</mgrwt>
</event>
<event>
12    6  0.1556619E-007  0.1239718E+04  0.7818608E-02  0.9078785E-01
         -1   -1    0    0    0  501 -0.00000000000E+00  0.00000000000E+00  0.30932655884E+03  0.30932655884E+03  0.00000000000E+00 0.  1.
          2   -1    0    0  501    0  0.00000000000E+00 -0.00000000000E+00 -0.12421334744E+04  0.12421334744E+04  0.00000000000E+00 0. -1.
         24    2    1    2    0    0 -0.18739845889E+03  0.18004457710E+03 -0.34559592440E+03  0.43982393367E+03  0.80463143926E+02 0.  0.
        254    2    1    2    0    0  0.18739845889E+03 -0.18004457710E+03 -0.58721099113E+03  0.11116360995E+04  0.90740500193E+03 0.  0.
         23    2    4    4    0    0  0.37797044012E+03 -0.10209646314E+03  0.78545152008E+02  0.40872218908E+03  0.87173078142E+02 0.  0.
         23    2    4    4    0    0 -0.19057198123E+03 -0.77948113961E+02 -0.66575614314E+03  0.70291391045E+03  0.91995298119E+02 0.  0.
          2    1    3    3  502    0 -0.16082929000E+03  0.17426216455E+03 -0.26929046923E+03  0.35881850473E+03  0.00000000000E+00 0. -1.
         -1    1    3    3    0  502 -0.26569168891E+02  0.57824125541E+01 -0.76305455161E+02  0.81005428940E+02  0.00000000000E+00 0.  1.
         11    1    5    5    0    0  0.27149659832E+03 -0.92115444819E+02  0.21461766740E+02  0.28750002696E+03  0.00000000000E+00 0. -1.
        -11    1    5    5    0    0  0.10647384180E+03 -0.99810183232E+01  0.57083385268E+02  0.12122216212E+03  0.00000000000E+00 0.  1.
          4    1    6    6  503    0 -0.19436059027E+03 -0.88893844274E+02 -0.62430751174E+03  0.65987727936E+03  0.00000000000E+00 0. -1.
         -4    1    6    6    0  503  0.37886090453E+01  0.10945730313E+02 -0.41448631405E+02  0.43036631094E+02  0.00000000000E+00 0.  1.
<mgrwt>
<rscale>  0 0.12397175E+04</rscale>
<asrwt>0</asrwt>
<pdfrwt beam="1">  1        2 0.19109746E+00 0.12397175E+04</pdfrwt>
<pdfrwt beam="2">  1       -1 0.47588701E-01 0.12397175E+04</pdfrwt>
<totfact> 0.88396025E+01</totfact>
</mgrwt>
</event>
<event>
12    6  0.1556619E-007  0.1495120E+04  0.7818608E-02  0.8887704E-01
          2   -1    0    0  501    0  0.00000000000E+00  0.00000000000E+00  0.11480550743E+04  0.11480550743E+04  0.00000000000E+00 0. -1.
         -1   -1    0    0    0  501 -0.00000000000E+00 -0.00000000000E+00 -0.48677647893E+03  0.48677647893E+03  0.00000000000E+00 0.  1.
         24    2    1    2    0    0 -0.29373868919E+03 -0.13371920174E+03  0.58070402996E+03  0.66910895861E+03  0.79538579587E+02 0.  0.
        254    2    1    2    0    0  0.29373868919E+03  0.13371920174E+03  0.80574565428E+02  0.96572259462E+03  0.90662264848E+03 0.  0.
         23    2    4    4    0    0 -0.21102285648E+03 -0.22431631773E+03 -0.55256180170E+02  0.32556736068E+03  0.89957793091E+02 0.  0.
         23    2    4    4    0    0  0.50476154567E+03  0.35803551947E+03  0.13583074560E+03  0.64015523394E+03  0.91515468075E+02 0.  0.
          2    1    3    3  502    0 -0.27183732902E+03 -0.10071048095E+03  0.53605215521E+03  0.60941779390E+03  0.00000000000E+00 0. -1.
         -3    1    3    3    0  502 -0.21901360179E+02 -0.33008720792E+02  0.44651874746E+02  0.59691164709E+02  0.00000000000E+00 0.  1.
         11    1    5    5    0    0 -0.52161122530E+01 -0.52424492553E+02 -0.10155960970E+02  0.53653320398E+02  0.00000000000E+00 0.  1.
        -11    1    5    5    0    0 -0.20580674423E+03 -0.17189182518E+03 -0.45100219200E+02  0.27191404028E+03  0.00000000000E+00 0. -1.
          3    1    6    6  503    0  0.14772799766E+03  0.88399716326E+02  0.78068789288E+02  0.18903123287E+03  0.00000000000E+00 0. -1.
         -3    1    6    6    0  503  0.35703354802E+03  0.26963580315E+03  0.57761956309E+02  0.45112400108E+03  0.00000000000E+00 0.  1.
<mgrwt>
<rscale>  0 0.14951203E+04</rscale>
<asrwt>0</asrwt>
<pdfrwt beam="1">  1        2 0.17662386E+00 0.14951203E+04</pdfrwt>
<pdfrwt beam="2">  1       -1 0.74888690E-01 0.14951203E+04</pdfrwt>
<totfact> 0.40249702E+01</totfact>
</mgrwt>
</event>
<event>
12    6  0.1556619E-007  0.2449395E+04  0.7818608E-02  0.8421239E-01
         -1   -1    0    0    0  501 -0.00000000000E+00  0.00000000000E+00  0.57523564357E+03  0.57523564357E+03  0.00000000000E+00 0.  1.
          2   -1    0    0  501    0  0.00000000000E+00 -0.00000000000E+00 -0.26074247677E+04  0.26074247677E+04  0.00000000000E+00 0. -1.
         24    2    1    2    0    0 -0.84175493447E+03 -0.63484627248E+03 -0.97438839459E+03  0.14381154690E+04  0.84629777999E+02 0.  0.
        254    2    1    2    0    0  0.84175493447E+03  0.63484627248E+03 -0.10578007295E+04  0.17445449422E+04  0.90161716527E+03 0.  0.
         23    2    4    4    0    0  0.87048990324E+03  0.16707624693E+03 -0.54891439323E+03  0.10466003383E+04  0.91641220004E+02 0.  0.
         23    2    4    4    0    0 -0.28734968768E+02  0.46777002555E+03 -0.50888633629E+03  0.69794460389E+03  0.92341061244E+02 0.  0.
          2    1    3    3  502    0 -0.49021118525E+02 -0.20945687243E+02 -0.32402695713E+02  0.62383704322E+02  0.00000000000E+00 0. -1.
         -1    1    3    3    0  502 -0.79273381595E+03 -0.61390058524E+03 -0.94198569888E+03  0.13757317647E+04  0.00000000000E+00 0.  1.
         11    1    5    5    0    0  0.12748904487E+03  0.57491652131E+02 -0.94567771621E+02  0.16882479100E+03  0.00000000000E+00 0.  1.
        -11    1    5    5    0    0  0.74300085837E+03  0.10958459480E+03 -0.45434662161E+03  0.87777554735E+03  0.00000000000E+00 0. -1.
          3    1    6    6  503    0 -0.29960042170E+02  0.46842098892E+03 -0.51196519919E+03  0.69456762966E+03  0.00000000000E+00 0. -1.
         -3    1    6    6    0  503  0.12250734025E+01 -0.65096336396E+00  0.30788629028E+01  0.33769742251E+01  0.00000000000E+00 0.  1.
<mgrwt>
<rscale>  0 0.24493948E+04</rscale>
<asrwt>0</asrwt>
<pdfrwt beam="1">  1        2 0.40114227E+00 0.24493948E+04</pdfrwt>
<pdfrwt beam="2">  1       -1 0.88497792E-01 0.24493948E+04</pdfrwt>
<totfact> 0.38469914E+00</totfact>
</mgrwt>
</event>
<event>
12    6  0.1556619E-007  0.1172132E+04  0.7818608E-02  0.9137605E-01
         -1   -1    0    0    0  501 -0.00000000000E+00  0.00000000000E+00  0.39810507270E+03  0.39810507270E+03  0.00000000000E+00 0.  1.
          2   -1    0    0  501    0  0.00000000000E+00 -0.00000000000E+00 -0.86277106082E+03  0.86277106082E+03  0.00000000000E+00 0. -1.
         24    2    1    2    0    0  0.85974148487E+02 -0.11844330732E+03 -0.28815622103E+03  0.33270422313E+03  0.78979244837E+02 0.  0.
        254    2    1    2    0    0 -0.85974148487E+02  0.11844330732E+03 -0.17650976709E+03  0.92817191039E+03  0.89940370586E+03 0.  0.
         23    2    4    4    0    0 -0.34735996480E+02 -0.31327893228E+03 -0.32297074656E+03  0.46040146158E+03  0.91154395550E+02 0.  0.
         23    2    4    4    0    0 -0.51238152006E+02  0.43172223960E+03  0.14646097947E+03  0.46777044881E+03  0.91372500739E+02 0.  0.
          4    1    3    3  502    0  0.90964841874E+02 -0.10283901133E+03 -0.28453153784E+03  0.31592508722E+03  0.00000000000E+00 0. -1.
         -3    1    3    3    0  502 -0.49906933875E+01 -0.15604295983E+02 -0.36246831855E+01  0.16779135907E+02  0.00000000000E+00 0.  1.
         11    1    5    5    0    0 -0.15189005243E+02 -0.50327258322E+02 -0.10831279495E+03  0.12039601472E+03  0.00000000000E+00 0. -1.
        -11    1    5    5    0    0 -0.19546991238E+02 -0.26295167396E+03 -0.21465795161E+03  0.34000544686E+03  0.00000000000E+00 0.  1.
          3    1    6    6  503    0  0.63285515091E+01  0.19601201986E+02  0.28662772532E+02  0.35296065117E+02  0.00000000000E+00 0. -1.
         -3    1    6    6    0  503 -0.57566703515E+02  0.41212103761E+03  0.11779820694E+03  0.43247438370E+03  0.00000000000E+00 0.  1.
<mgrwt>
<rscale>  0 0.11721323E+04</rscale>
<asrwt>0</asrwt>
<pdfrwt beam="1">  1        2 0.13273401E+00 0.11721323E+04</pdfrwt>
<pdfrwt beam="2">  1       -1 0.61246935E-01 0.11721323E+04</pdfrwt>
<totfact> 0.94856557E+01</totfact>
</mgrwt>
</event>
<event>
12    6  0.1556619E-007  0.2292360E+04  0.7818608E-02  0.8480940E-01
          2   -1    0    0  501    0  0.00000000000E+00  0.00000000000E+00  0.13575839823E+04  0.13575839823E+04  0.00000000000E+00 0. -1.
         -1   -1    0    0    0  501 -0.00000000000E+00 -0.00000000000E+00 -0.96769586857E+03  0.96769586857E+03  0.00000000000E+00 0.  1.
         24    2    1    2    0    0 -0.35243549143E+03 -0.52706882470E+03 -0.58211321685E+03  0.86412134000E+03  0.76404001367E+02 0.  0.
        254    2    1    2    0    0  0.35243549143E+03  0.52706882470E+03  0.97200133058E+03  0.14611585109E+04  0.88779799820E+03 0.  0.
         23    2    4    4    0    0  0.42687400380E+02  0.29744057227E+02 -0.15589916833E+03  0.18707455587E+03  0.89361153059E+02 0.  0.
         23    2    4    4    0    0  0.30974809105E+03  0.49732476747E+03  0.11279004989E+04  0.12740839550E+04  0.88626094638E+02 0.  0.
          4    1    3    3  502    0 -0.66516042101E+02 -0.15380475747E+03 -0.17320749545E+03  0.24100025676E+03  0.00000000000E+00 0. -1.
         -3    1    3    3    0  502 -0.28591944933E+03 -0.37326406723E+03 -0.40890572140E+03  0.62312108324E+03  0.00000000000E+00 0.  1.
         11    1    5    5    0    0 -0.11522415496E+01  0.33907938876E+02 -0.13335355352E+03  0.13760176676E+03  0.00000000000E+00 0. -1.
        -11    1    5    5    0    0  0.43839641930E+02 -0.41638816494E+01 -0.22545614810E+02  0.49472789108E+02  0.00000000000E+00 0.  1.
          1    1    6    6  503    0  0.19825287319E+03  0.38751163654E+03  0.79993384110E+03  0.91069403222E+03  0.00000000000E+00 0. -1.
         -1    1    6    6    0  503  0.11149521785E+03  0.10981313093E+03  0.32796665781E+03  0.36338992276E+03  0.00000000000E+00 0.  1.
<mgrwt>
<rscale>  0 0.22923598E+04</rscale>
<asrwt>0</asrwt>
<pdfrwt beam="1">  1        2 0.20885907E+00 0.22923598E+04</pdfrwt>
<pdfrwt beam="2">  1       -1 0.14887629E+00 0.22923598E+04</pdfrwt>
<totfact> 0.56340486E+00</totfact>
</mgrwt>
</event>
<event>
12    6  0.1556619E-007  0.1954880E+04  0.7818608E-02  0.8628011E-01
         -1   -1    0    0    0  501 -0.00000000000E+00  0.00000000000E+00  0.16775251048E+04  0.16775251048E+04  0.00000000000E+00 0.  1.
          2   -1    0    0  501    0  0.00000000000E+00 -0.00000000000E+00 -0.56952283982E+03  0.56952283982E+03  0.00000000000E+00 0. -1.
         24    2    1    2    0    0 -0.25656331604E+03 -0.95930339748E+02  0.12943015489E+04  0.13253713682E+04  0.79783450302E+02 0.  0.
        254    2    1    2    0    0  0.25656331604E+03  0.95930339748E+02 -0.18629928399E+03  0.92167657635E+03  0.86008890410E+03 0.  0.
         23    2    4    4    0    0 -0.26146184829E+03  0.19390324811E+03 -0.18897185784E+03  0.38715547140E+03  0.90654444120E+02 0.  0.
         23    2    4    4    0    0  0.51802516432E+03 -0.97972908363E+02  0.26725738449E+01  0.53452110496E+03  0.88073306662E+02 0.  0.
          4    1    3    3  502    0 -0.14577403351E+03 -0.24711173240E+02  0.55105439608E+03  0.57054505376E+03  0.00000000000E+00 0. -1.
         -3    1    3    3    0  502 -0.11078928253E+03 -0.71219166508E+02  0.74324715284E+03  0.75482631447E+03  0.00000000000E+00 0.  1.
         11    1    5    5    0    0 -0.14437508080E+02  0.26159192987E+02  0.60895862990E+01  0.30493082471E+02  0.00000000000E+00 0.  1.
        -11    1    5    5    0    0 -0.24702434021E+03  0.16774405512E+03 -0.19506144414E+03  0.35666238893E+03  0.00000000000E+00 0. -1.
          4    1    6    6  503    0  0.47451302313E+03 -0.93261444896E+02  0.27190851262E+02  0.48435487880E+03  0.00000000000E+00 0. -1.
         -4    1    6    6    0  503  0.43512141192E+02 -0.47114634670E+01 -0.24518277418E+02  0.50166226155E+02  0.00000000000E+00 0.  1.
<mgrwt>
<rscale>  0 0.19548799E+04</rscale>
<asrwt>0</asrwt>
<pdfrwt beam="1">  1        2 0.87618899E-01 0.19548799E+04</pdfrwt>
<pdfrwt beam="2">  1       -1 0.25808078E+00 0.19548799E+04</pdfrwt>
<totfact> 0.34734083E+00</totfact>
</mgrwt>
</event>
<event>
12    6  0.1556619E-007  0.2395194E+04  0.7818608E-02  0.8441305E-01
          2   -1    0    0  501    0  0.00000000000E+00  0.00000000000E+00  0.39530914016E+04  0.39530914016E+04  0.00000000000E+00 0. -1.
         -1   -1    0    0    0  501 -0.00000000000E+00 -0.00000000000E+00 -0.36281428521E+03  0.36281428521E+03  0.00000000000E+00 0.  1.
         24    2    1    2    0    0 -0.78559128734E+03  0.39978227465E+03  0.24898310222E+04  0.26424699377E+04  0.80058194254E+02 0.  0.
        254    2    1    2    0    0  0.78559128734E+03 -0.39978227465E+03  0.11004460942E+04  0.16734357491E+04  0.90134680473E+03 0.  0.
         23    2    4    4    0    0 -0.10834915932E+03 -0.45970573437E+02  0.53369464336E+03  0.55368367722E+03  0.88785179641E+02 0.  0.
         23    2    4    4    0    0  0.89394044666E+03 -0.35381170121E+03  0.56675145079E+03  0.11197520719E+04  0.91242826742E+02 0.  0.
          4    1    3    3  502    0 -0.65243287747E+03  0.36288774075E+03  0.20731346175E+04  0.22034616662E+04  0.00000000000E+00 0. -1.
         -3    1    3    3    0  502 -0.13315840987E+03  0.36894533899E+02  0.41669640469E+03  0.43900827149E+03  0.00000000000E+00 0.  1.
         11    1    5    5    0    0 -0.10834836783E+03 -0.53867759568E+02  0.53202579046E+03  0.54561208386E+03  0.00000000000E+00 0.  1.
        -11    1    5    5    0    0 -0.79149256877E-03  0.78971861309E+01  0.16688528913E+01  0.80715933610E+01  0.00000000000E+00 0. -1.
          1    1    6    6  503    0  0.13432559530E+03 -0.65854066845E+02  0.12559777125E+03  0.19533285391E+03  0.00000000000E+00 0. -1.
         -1    1    6    6    0  503  0.75961485136E+03 -0.28795763437E+03  0.44115367954E+03  0.92441921798E+03  0.00000000000E+00 0.  1.
<mgrwt>
<rscale>  0 0.23951935E+04</rscale>
<asrwt>0</asrwt>
<pdfrwt beam="1">  1        2 0.60816788E+00 0.23951935E+04</pdfrwt>
<pdfrwt beam="2">  1       -1 0.55817585E-01 0.23951935E+04</pdfrwt>
<totfact> 0.12450881E+00</totfact>
</mgrwt>
</event>
<event>
12    6  0.1556619E-007  0.2304319E+04  0.7818608E-02  0.8476220E-01
          2   -1    0    0  501    0  0.00000000000E+00  0.00000000000E+00  0.13709573331E+04  0.13709573331E+04  0.00000000000E+00 0. -1.
         -1   -1    0    0    0  501 -0.00000000000E+00 -0.00000000000E+00 -0.96828093815E+03  0.96828093815E+03  0.00000000000E+00 0.  1.
         24    2    1    2    0    0  0.56218825046E+03  0.68377488119E+03  0.59833512351E+03  0.10714828687E+04  0.80417043004E+02 0.  0.
        254    2    1    2    0    0 -0.56218825046E+03 -0.68377488119E+03 -0.19565872852E+03  0.12677554026E+04  0.88618153088E+03 0.  0.
         23    2    4    4    0    0 -0.39167074832E+03  0.12262365457E+03 -0.10955502381E+03  0.43406050589E+03  0.89239474342E+02 0.  0.
         23    2    4    4    0    0 -0.17051750214E+03 -0.80639853576E+03 -0.86103704711E+02  0.83369489671E+03  0.90986349617E+02 0.  0.
          2    1    3    3  502    0  0.34343071482E+03  0.35990773649E+03  0.35394222427E+03  0.61053528382E+03  0.00000000000E+00 0. -1.
         -1    1    3    3    0  502  0.21875753564E+03  0.32386714469E+03  0.24439289924E+03  0.46094758488E+03  0.00000000000E+00 0.  1.
         11    1    5    5    0    0 -0.37846929756E+03  0.13506423686E+03 -0.10568695308E+03  0.41551304351E+03  0.00000000000E+00 0.  1.
        -11    1    5    5    0    0 -0.13201450757E+02 -0.12440582281E+02 -0.38680707302E+01  0.18547462381E+02  0.00000000000E+00 0. -1.
          4    1    6    6  503    0 -0.67115393521E+02 -0.38109343915E+03  0.32550154548E+01  0.38697193766E+03  0.00000000000E+00 0. -1.
         -4    1    6    6    0  503 -0.10340210861E+03 -0.42530509661E+03 -0.89358720165E+02  0.44672295904E+03  0.00000000000E+00 0.  1.
<mgrwt>
<rscale>  0 0.23043193E+04</rscale>
<asrwt>0</asrwt>
<pdfrwt beam="1">  1        2 0.21091651E+00 0.23043193E+04</pdfrwt>
<pdfrwt beam="2">  1       -1 0.14896630E+00 0.23043193E+04</pdfrwt>
<totfact> 0.55203004E+00</totfact>
</mgrwt>
</event>
<event>
12    6  0.1556619E-007  0.1551675E+04  0.7818608E-02  0.8850799E-01
          2   -1    0    0  501    0  0.00000000000E+00  0.00000000000E+00  0.68093270540E+03  0.68093270540E+03  0.00000000000E+00 0. -1.
         -1   -1    0    0    0  501 -0.00000000000E+00 -0.00000000000E+00 -0.88396921005E+03  0.88396921005E+03  0.00000000000E+00 0.  1.
         24    2    1    2    0    0  0.67456222568E+02  0.35149940026E+03 -0.43193671535E+03  0.56654691549E+03  0.79397172680E+02 0.  0.
        254    2    1    2    0    0 -0.67456222568E+02 -0.35149940026E+03  0.22890021071E+03  0.99835499996E+03  0.90344630673E+03 0.  0.
         23    2    4    4    0    0  0.35230295275E+02 -0.53184112035E+03 -0.14542293039E+03  0.56070233806E+03  0.95619727147E+02 0.  0.
         23    2    4    4    0    0 -0.10268651784E+03  0.18034172009E+03  0.37432314111E+03  0.43765266191E+03  0.91402306075E+02 0.  0.
          4    1    3    3  502    0  0.39957645054E+02  0.11456714084E+03 -0.96913558381E+02  0.15528837998E+03  0.00000000000E+00 0. -1.
         -3    1    3    3    0  502  0.27498577513E+02  0.23693225942E+03 -0.33502315697E+03  0.41125853551E+03  0.00000000000E+00 0.  1.
         11    1    5    5    0    0  0.30346283533E+02 -0.42949002025E+02 -0.15186436958E+02  0.54737021902E+02  0.00000000000E+00 0.  1.
        -11    1    5    5    0    0  0.48840117419E+01 -0.48889211832E+03 -0.13023649344E+03  0.50596531615E+03  0.00000000000E+00 0. -1.
          4    1    6    6  503    0 -0.11963883954E+03  0.16230451180E+03  0.32501358981E+03  0.38247880993E+03  0.00000000000E+00 0. -1.
         -4    1    6    6    0  503  0.16952321701E+02  0.18037208285E+02  0.49309551293E+02  0.55173851981E+02  0.00000000000E+00 0.  1.
<mgrwt>
<rscale>  0 0.15516746E+04</rscale>
<asrwt>0</asrwt>
<pdfrwt beam="1">  1        2 0.10475888E+00 0.15516746E+04</pdfrwt>
<pdfrwt beam="2">  1       -1 0.13599526E+00 0.15516746E+04</pdfrwt>
<totfact> 0.21086742E+01</totfact>
</mgrwt>
</event>
<event>
12    6  0.1556619E-007  0.3050446E+04  0.7818608E-02  0.8229471E-01
          2   -1    0    0  501    0  0.00000000000E+00  0.00000000000E+00  0.19146761683E+04  0.19146761683E+04  0.00000000000E+00 0. -1.
         -1   -1    0    0    0  501 -0.00000000000E+00 -0.00000000000E+00 -0.12149861171E+04  0.12149861171E+04  0.00000000000E+00 0.  1.
         24    2    1    2    0    0  0.15065955455E+03  0.13752821004E+04  0.56385137774E+03  0.14965541470E+04  0.87445877467E+02 0.  0.
        254    2    1    2    0    0 -0.15065955455E+03 -0.13752821004E+04  0.13583867353E+03  0.16331081384E+04  0.85702443924E+03 0.  0.
         23    2    4    4    0    0  0.31769273308E+03 -0.65411929407E+03 -0.93520879056E+02  0.73858277221E+03  0.89205566292E+02 0.  0.
         23    2    4    4    0    0 -0.46835228764E+03 -0.72116280636E+03  0.22935955259E+03  0.89452536622E+03  0.90222878732E+02 0.  0.
          4    1    3    3  502    0  0.39572885398E+01  0.14558491028E+02 -0.26786791462E+01  0.15322699356E+02  0.00000000000E+00 0. -1.
         -3    1    3    3    0  502  0.14670226601E+03  0.13607236094E+04  0.56653005688E+03  0.14812314476E+04  0.00000000000E+00 0.  1.
         11    1    5    5    0    0  0.30589269473E+03 -0.59773730009E+03 -0.65863996961E+02  0.67468384203E+03  0.00000000000E+00 0.  1.
        -11    1    5    5    0    0  0.11800038354E+02 -0.56381993985E+02 -0.27656882095E+02  0.63898930180E+02  0.00000000000E+00 0. -1.
          1    1    6    6  503    0 -0.25937105562E+03 -0.39499338244E+03  0.17229305380E+03  0.50296919692E+03  0.00000000000E+00 0. -1.
         -1    1    6    6    0  503 -0.20898123202E+03 -0.32616942391E+03  0.57066498784E+02  0.39155616930E+03  0.00000000000E+00 0.  1.
<mgrwt>
<rscale>  0 0.30504458E+04</rscale>
<asrwt>0</asrwt>
<pdfrwt beam="1">  1        2 0.29456556E+00 0.30504458E+04</pdfrwt>
<pdfrwt beam="2">  1       -1 0.18692094E+00 0.30504458E+04</pdfrwt>
<totfact> 0.13426171E+00</totfact>
</mgrwt>
</event>
<event>
12    6  0.1556619E-007  0.1980700E+04  0.7818608E-02  0.8615698E-01
          2   -1    0    0  501    0  0.00000000000E+00  0.00000000000E+00  0.11121223603E+04  0.11121223603E+04  0.00000000000E+00 0. -1.
         -1   -1    0    0    0  501 -0.00000000000E+00 -0.00000000000E+00 -0.88191111757E+03  0.88191111757E+03  0.00000000000E+00 0.  1.
         24    2    1    2    0    0 -0.44172494281E+02 -0.75198731469E+03 -0.12068707397E+03  0.76671345999E+03  0.76472408079E+02 0.  0.
        254    2    1    2    0    0  0.44172494281E+02  0.75198731469E+03  0.35089831669E+03  0.12273200179E+04  0.90318805734E+03 0.  0.
         23    2    4    4    0    0  0.14699765314E+03  0.22050467415E+03 -0.27708861281E+03  0.39447395631E+03  0.92741476717E+02 0.  0.
         23    2    4    4    0    0 -0.10282515886E+03  0.53148264054E+03  0.62798692950E+03  0.83284606157E+03  0.78855362280E+02 0.  0.
          4    1    3    3  502    0 -0.19090919434E+02 -0.25967967245E+03 -0.52600891963E+01  0.26043360771E+03  0.00000000000E+00 0. -1.
         -3    1    3    3    0  502 -0.25081574847E+02 -0.49230764224E+03 -0.11542698477E+03  0.50627985228E+03  0.00000000000E+00 0.  1.
         11    1    5    5    0    0  0.58867336824E+02  0.26042624531E+02 -0.41765762862E+02  0.76733047540E+02  0.00000000000E+00 0.  1.
        -11    1    5    5    0    0  0.88130316318E+02  0.19446204962E+03 -0.23532284995E+03  0.31774090877E+03  0.00000000000E+00 0. -1.
          4    1    6    6  503    0 -0.49749812936E+02  0.21751056523E+03  0.31782915074E+03  0.38833137773E+03  0.00000000000E+00 0. -1.
         -4    1    6    6    0  503 -0.53075345925E+02  0.31397207531E+03  0.31015777876E+03  0.44451468384E+03  0.00000000000E+00 0.  1.
<mgrwt>
<rscale>  0 0.19807000E+04</rscale>
<asrwt>0</asrwt>
<pdfrwt beam="1">  1        2 0.17109575E+00 0.19807000E+04</pdfrwt>
<pdfrwt beam="2">  1       -1 0.13567863E+00 0.19807000E+04</pdfrwt>
<totfact> 0.10334563E+01</totfact>
</mgrwt>
</event>
<event>
12    6  0.1556619E-007  0.2748219E+04  0.7818608E-02  0.8319527E-01
         -1   -1    0    0    0  501 -0.00000000000E+00  0.00000000000E+00  0.13010900183E+04  0.13010900183E+04  0.00000000000E+00 0.  1.
          2   -1    0    0  501    0  0.00000000000E+00 -0.00000000000E+00 -0.14512269696E+04  0.14512269696E+04  0.00000000000E+00 0. -1.
         24    2    1    2    0    0  0.73615694253E+03  0.93375360190E+03 -0.35091207256E+03  0.12422841355E+04  0.79421391978E+02 0.  0.
        254    2    1    2    0    0 -0.73615694253E+03 -0.93375360190E+03  0.20077512121E+03  0.15100328524E+04  0.90888158360E+03 0.  0.
         23    2    4    4    0    0 -0.58774843553E+02 -0.67288097813E+03 -0.15118964724E+03  0.69827408907E+03  0.92223104815E+02 0.  0.
         23    2    4    4    0    0 -0.67738209898E+03 -0.26087262377E+03  0.35196476845E+03  0.81175876336E+03  0.90399434828E+02 0.  0.
          4    1    3    3  502    0  0.40204341042E+03  0.48959655440E+03 -0.22603871221E+03  0.67263451395E+03  0.00000000000E+00 0. -1.
         -3    1    3    3    0  502  0.33411353211E+03  0.44415704750E+03 -0.12487336035E+03  0.56964962153E+03  0.00000000000E+00 0.  1.
         11    1    5    5    0    0 -0.37258391613E+02 -0.82475998947E+02 -0.28391843400E+02  0.94850276328E+02  0.00000000000E+00 0. -1.
        -11    1    5    5    0    0 -0.21516451939E+02 -0.59040497919E+03 -0.12279780384E+03  0.60342381274E+03  0.00000000000E+00 0.  1.
          4    1    6    6  503    0 -0.84171158661E+02 -0.60061089340E+02  0.70431212180E+02  0.12511064724E+03  0.00000000000E+00 0. -1.
         -4    1    6    6    0  503 -0.59321094031E+03 -0.20081153443E+03  0.28153355627E+03  0.68664811612E+03  0.00000000000E+00 0.  1.
<mgrwt>
<rscale>  0 0.27482190E+04</rscale>
<asrwt>0</asrwt>
<pdfrwt beam="1">  1        2 0.22326569E+00 0.27482190E+04</pdfrwt>
<pdfrwt beam="2">  1       -1 0.20016769E+00 0.27482190E+04</pdfrwt>
<totfact> 0.20210488E+00</totfact>
</mgrwt>
</event>
<event>
12    6  0.1556619E-007  0.1431093E+04  0.7818608E-02  0.8931614E-01
          2   -1    0    0  501    0  0.00000000000E+00  0.00000000000E+00  0.12219057079E+04  0.12219057079E+04  0.00000000000E+00 0. -1.
         -1   -1    0    0    0  501 -0.00000000000E+00 -0.00000000000E+00 -0.41902311270E+03  0.41902311270E+03  0.00000000000E+00 0.  1.
         24    2    1    2    0    0 -0.24474767951E+03 -0.16861380640E+03  0.78440318100E+03  0.84261119727E+03  0.79832556441E+02 0.  0.
        254    2    1    2    0    0  0.24474767951E+03  0.16861380640E+03  0.18479414178E+02  0.79831762330E+03  0.74070067948E+03 0.  0.
         23    2    4    4    0    0  0.62060042175E+01 -0.13197754785E+03 -0.26684458756E+03  0.31177397704E+03  0.92414237133E+02 0.  0.
         23    2    4    4    0    0  0.23854167530E+03  0.30059135425E+03  0.28532400174E+03  0.48654364626E+03  0.89764361788E+02 0.  0.
          2    1    3    3  502    0 -0.19309172313E+03 -0.12356940051E+03  0.49972476199E+03  0.54979873411E+03  0.00000000000E+00 0. -1.
         -1    1    3    3    0  502 -0.51655956384E+02 -0.45044405883E+02  0.28467841901E+03  0.29281246316E+03  0.00000000000E+00 0.  1.
         11    1    5    5    0    0  0.47687540983E+02 -0.50432656538E+02 -0.10519682481E+03  0.12603144988E+03  0.00000000000E+00 0. -1.
        -11    1    5    5    0    0 -0.41481536765E+02 -0.81544891312E+02 -0.16164776275E+03  0.18574252716E+03  0.00000000000E+00 0.  1.
          4    1    6    6  503    0  0.27926855342E+02  0.91601705471E+02  0.51216766232E+02  0.10859990257E+03  0.00000000000E+00 0. -1.
         -4    1    6    6    0  503  0.21061481995E+03  0.20898964877E+03  0.23410723550E+03  0.37794374369E+03  0.00000000000E+00 0.  1.
<mgrwt>
<rscale>  0 0.14310929E+04</rscale>
<asrwt>0</asrwt>
<pdfrwt beam="1">  1        2 0.18798549E+00 0.14310929E+04</pdfrwt>
<pdfrwt beam="2">  1       -1 0.64465095E-01 0.14310929E+04</pdfrwt>
<totfact> 0.49655779E+01</totfact>
</mgrwt>
</event>
<event>
12    6  0.1556619E-007  0.1719375E+04  0.7818608E-02  0.8750391E-01
          2   -1    0    0  501    0  0.00000000000E+00  0.00000000000E+00  0.20608949329E+04  0.20608949329E+04  0.00000000000E+00 0. -1.
         -3   -1    0    0    0  501 -0.00000000000E+00 -0.00000000000E+00 -0.35861240409E+03  0.35861240409E+03  0.00000000000E+00 0.  1.
         24    2    1    2    0    0  0.44678100629E+03 -0.36175148765E+03  0.93683741155E+03  0.11018474244E+04  0.76980547015E+02 0.  0.
        254    2    1    2    0    0 -0.44678100629E+03  0.36175148765E+03  0.76544511728E+03  0.13176599126E+04  0.90545237935E+03 0.  0.
         23    2    4    4    0    0 -0.49738392756E+02  0.55562193474E+03  0.21348094570E+03  0.60425128949E+03  0.91410418431E+02 0.  0.
         23    2    4    4    0    0 -0.39704261354E+03 -0.19387044709E+03  0.55196417158E+03  0.71340862309E+03  0.95177883880E+02 0.  0.
          2    1    3    3  502    0  0.11910387585E+03 -0.98300166899E+02  0.32039168033E+03  0.35566766071E+03  0.00000000000E+00 0. -1.
         -1    1    3    3    0  502  0.32767713044E+03 -0.26345132075E+03  0.61644573122E+03  0.74617976371E+03  0.00000000000E+00 0.  1.
         11    1    5    5    0    0 -0.35470035187E+02  0.11468431846E+03  0.76326940927E+02  0.14225476515E+03  0.00000000000E+00 0. -1.
        -11    1    5    5    0    0 -0.14268357569E+02  0.44093761628E+03  0.13715400477E+03  0.46199652434E+03  0.00000000000E+00 0.  1.
          1    1    6    6  503    0 -0.26453708906E+03 -0.17475726741E+03  0.36528926409E+03  0.48369021125E+03  0.00000000000E+00 0. -1.
         -1    1    6    6    0  503 -0.13250552448E+03 -0.19113179684E+02  0.18667490748E+03  0.22971841184E+03  0.00000000000E+00 0.  1.
<mgrwt>
<rscale>  0 0.17193749E+04</rscale>
<asrwt>0</asrwt>
<pdfrwt beam="1">  1        2 0.31706075E+00 0.17193749E+04</pdfrwt>
<pdfrwt beam="2">  1       -3 0.55171140E-01 0.17193749E+04</pdfrwt>
<totfact> 0.12206604E+01</totfact>
</mgrwt>
</event>
<event>
12    6  0.1556619E-007  0.1728114E+04  0.7818608E-02  0.8745491E-01
          2   -1    0    0  501    0  0.00000000000E+00  0.00000000000E+00  0.15086399811E+04  0.15086399811E+04  0.00000000000E+00 0. -1.
         -1   -1    0    0    0  501 -0.00000000000E+00 -0.00000000000E+00 -0.49487893899E+03  0.49487893899E+03  0.00000000000E+00 0.  1.
         24    2    1    2    0    0  0.14493937353E+03 -0.29597245134E+03  0.10018477900E+04  0.10575931825E+04  0.78722495453E+02 0.  0.
        254    2    1    2    0    0 -0.14493937353E+03  0.29597245134E+03  0.11913252136E+02  0.94592573767E+03  0.88658133392E+03 0.  0.
         23    2    4    4    0    0 -0.47198581139E+03  0.29216246983E+03  0.14469219203E+03  0.58100764378E+03  0.92220045380E+02 0.  0.
         23    2    4    4    0    0  0.32704643786E+03  0.38099815139E+01 -0.13277893990E+03  0.36491809389E+03  0.92526103835E+02 0.  0.
          2    1    3    3  502    0  0.69191289123E+02 -0.20448650124E+03  0.56339634309E+03  0.60333871340E+03  0.00000000000E+00 0. -1.
         -1    1    3    3    0  502  0.75748084406E+02 -0.91485950107E+02  0.43845144693E+03  0.45425446907E+03  0.00000000000E+00 0.  1.
         11    1    5    5    0    0 -0.26097218493E+03  0.19915742933E+03  0.11809100781E+03  0.34887769933E+03  0.00000000000E+00 0.  1.
        -11    1    5    5    0    0 -0.21101362646E+03  0.93005040499E+02  0.26601184224E+02  0.23212994445E+03  0.00000000000E+00 0. -1.
          2    1    6    6  503    0  0.30986422767E+03  0.26667131483E+02 -0.11723883850E+03  0.33237316490E+03  0.00000000000E+00 0. -1.
         -2    1    6    6    0  503  0.17182210192E+02 -0.22857149969E+02 -0.15540101391E+02  0.32544928991E+02  0.00000000000E+00 0.  1.
<mgrwt>
<rscale>  0 0.17281136E+04</rscale>
<asrwt>0</asrwt>
<pdfrwt beam="1">  1        2 0.23209846E+00 0.17281136E+04</pdfrwt>
<pdfrwt beam="2">  1       -1 0.76135222E-01 0.17281136E+04</pdfrwt>
<totfact> 0.23525220E+01</totfact>
</mgrwt>
</event>
<event>
12    6  0.1556619E-007  0.2152513E+04  0.7818608E-02  0.8538457E-01
          2   -1    0    0  501    0  0.00000000000E+00  0.00000000000E+00  0.14407582087E+04  0.14407582087E+04  0.00000000000E+00 0. -1.
         -1   -1    0    0    0  501 -0.00000000000E+00 -0.00000000000E+00 -0.80397143648E+03  0.80397143648E+03  0.00000000000E+00 0.  1.
         24    2    1    2    0    0  0.86129685840E+03  0.44801215894E+02  0.46658432390E+03  0.98362035658E+03  0.77257021300E+02 0.  0.
        254    2    1    2    0    0 -0.86129685840E+03 -0.44801215894E+02  0.17020244835E+03  0.12611092886E+04  0.90420591525E+03 0.  0.
         23    2    4    4    0    0 -0.41326670771E+03  0.37353273011E+03  0.28175145568E+03  0.63124276983E+03  0.93634820058E+02 0.  0.
         23    2    4    4    0    0 -0.44803015069E+03 -0.41833394600E+03 -0.11154900733E+03  0.62986651878E+03  0.92489697503E+02 0.  0.
          4    1    3    3  502    0  0.27789793568E+03  0.28260880931E+02  0.11361275291E+03  0.30155231332E+03  0.00000000000E+00 0. -1.
         -3    1    3    3    0  502  0.58339892273E+03  0.16540334963E+02  0.35297157099E+03  0.68206804327E+03  0.00000000000E+00 0.  1.
         11    1    5    5    0    0 -0.35640917222E+03  0.27563040721E+03  0.20901429980E+03  0.49667554494E+03  0.00000000000E+00 0. -1.
        -11    1    5    5    0    0 -0.56857535495E+02  0.97902322894E+02  0.72737155873E+02  0.13456722489E+03  0.00000000000E+00 0.  1.
          2    1    6    6  503    0 -0.97234844949E+02 -0.14682743543E+03 -0.24248742800E+02  0.17776645464E+03  0.00000000000E+00 0. -1.
         -2    1    6    6    0  503 -0.35079530574E+03 -0.27150651056E+03 -0.87300264529E+02  0.45210006414E+03  0.00000000000E+00 0.  1.
<mgrwt>
<rscale>  0 0.21525134E+04</rscale>
<asrwt>0</asrwt>
<pdfrwt beam="1">  1        2 0.22165511E+00 0.21525134E+04</pdfrwt>
<pdfrwt beam="2">  1       -1 0.12368791E+00 0.21525134E+04</pdfrwt>
<totfact> 0.82386849E+00</totfact>
</mgrwt>
</event>
<event>
12    6  0.1556619E-007  0.2647485E+04  0.7818608E-02  0.8352248E-01
          2   -1    0    0  501    0  0.00000000000E+00  0.00000000000E+00  0.68539969007E+03  0.68539969007E+03  0.00000000000E+00 0. -1.
         -1   -1    0    0    0  501 -0.00000000000E+00 -0.00000000000E+00 -0.25566018514E+04  0.25566018514E+04  0.00000000000E+00 0.  1.
         24    2    1    2    0    0 -0.79803434536E+03 -0.85624092078E+03 -0.73878616365E+03  0.13866277799E+04  0.83212219941E+02 0.  0.
        254    2    1    2    0    0  0.79803434536E+03  0.85624092078E+03 -0.11324159977E+04  0.18553737616E+04  0.88884108403E+03 0.  0.
         23    2    4    4    0    0  0.12081743472E+03  0.35774512377E+03 -0.89663625743E+03  0.97732606902E+03  0.92904472176E+02 0.  0.
         23    2    4    4    0    0  0.67721691063E+03  0.49849579701E+03 -0.23577974030E+03  0.87804769261E+03  0.90856264911E+02 0.  0.
          2    1    3    3  502    0 -0.75913415819E+03 -0.81522899214E+03 -0.72273722984E+03  0.13278674946E+04  0.00000000000E+00 0. -1.
         -1    1    3    3    0  502 -0.38900187162E+02 -0.41011928644E+02 -0.16048933805E+02  0.58760285301E+02  0.00000000000E+00 0.  1.
         11    1    5    5    0    0  0.26182817719E+02  0.54706595694E+02 -0.74775388357E+02  0.96279334543E+02  0.00000000000E+00 0.  1.
        -11    1    5    5    0    0  0.94634617004E+02  0.30303852808E+03 -0.82186086907E+03  0.88104673448E+03  0.00000000000E+00 0. -1.
          3    1    6    6  503    0  0.64312283314E+03  0.46934565886E+03 -0.24340078007E+03  0.83254805611E+03  0.00000000000E+00 0. -1.
         -3    1    6    6    0  503  0.34094077489E+02  0.29150138150E+02  0.76210397650E+01  0.45499636494E+02  0.00000000000E+00 0.  1.
<mgrwt>
<rscale>  0 0.26474849E+04</rscale>
<asrwt>0</asrwt>
<pdfrwt beam="1">  1        2 0.10544611E+00 0.26474849E+04</pdfrwt>
<pdfrwt beam="2">  1       -1 0.39332336E+00 0.26474849E+04</pdfrwt>
<totfact> 0.33593494E-01</totfact>
</mgrwt>
</event>
<event>
12    6  0.1556619E-007  0.1774682E+04  0.7818608E-02  0.8719880E-01
          2   -1    0    0  501    0  0.00000000000E+00  0.00000000000E+00  0.10422066467E+04  0.10422066467E+04  0.00000000000E+00 0. -1.
         -1   -1    0    0    0  501 -0.00000000000E+00 -0.00000000000E+00 -0.75548755382E+03  0.75548755382E+03  0.00000000000E+00 0.  1.
         24    2    1    2    0    0 -0.47211837088E+03  0.17170651330E+03  0.51302932250E+03  0.72236996503E+03  0.78996188495E+02 0.  0.
        254    2    1    2    0    0  0.47211837088E+03 -0.17170651330E+03 -0.22631022963E+03  0.10753242355E+04  0.92343218949E+03 0.  0.
         23    2    4    4    0    0  0.30659731448E+03 -0.40201063263E+03  0.20355631638E+03  0.55237788408E+03  0.89842589503E+02 0.  0.
         23    2    4    4    0    0  0.16552105640E+03  0.23030411933E+03 -0.42986654601E+03  0.52294635141E+03  0.90831886372E+02 0.  0.
          4    1    3    3  502    0 -0.35282381319E+03  0.11228220605E+03  0.41962512525E+03  0.55962235721E+03  0.00000000000E+00 0. -1.
         -3    1    3    3    0  502 -0.11929455769E+03  0.59424307242E+02  0.93404197253E+02  0.16274760782E+03  0.00000000000E+00 0.  1.
         11    1    5    5    0    0  0.15100856522E+03 -0.14810123219E+03  0.50054747809E+02  0.21735463999E+03  0.00000000000E+00 0. -1.
        -11    1    5    5    0    0  0.15558874926E+03 -0.25390940044E+03  0.15350156857E+03  0.33502324410E+03  0.00000000000E+00 0.  1.
          3    1    6    6  503    0 -0.77896929155E+01  0.13104892561E+01 -0.29651174986E+01  0.84373348629E+01  0.00000000000E+00 0. -1.
         -3    1    6    6    0  503  0.17331074931E+03  0.22899363008E+03 -0.42690142851E+03  0.51450901655E+03  0.00000000000E+00 0.  1.
<mgrwt>
<rscale>  0 0.17746821E+04</rscale>
<asrwt>0</asrwt>
<pdfrwt beam="1">  1        2 0.16033948E+00 0.17746821E+04</pdfrwt>
<pdfrwt beam="2">  1       -1 0.11622885E+00 0.17746821E+04</pdfrwt>
<totfact> 0.17095573E+01</totfact>
</mgrwt>
</event>
<event>
12    6  0.1556619E-007  0.1661542E+04  0.7818608E-02  0.8783608E-01
         -1   -1    0    0    0  501 -0.00000000000E+00  0.00000000000E+00  0.27363942667E+03  0.27363942667E+03  0.00000000000E+00 0.  1.
          2   -1    0    0  501    0  0.00000000000E+00 -0.00000000000E+00 -0.25222254082E+04  0.25222254082E+04  0.00000000000E+00 0. -1.
         24    2    1    2    0    0 -0.39680467063E+03  0.45182126502E+03 -0.88746931692E+03  0.10750020227E+04  0.80194501992E+02 0.  0.
        254    2    1    2    0    0  0.39680467063E+03 -0.45182126502E+03 -0.13611166646E+04  0.17208628122E+04  0.86436904244E+03 0.  0.
         23    2    4    4    0    0  0.63625697553E+03 -0.25005160586E+03 -0.11192108103E+04  0.13147669401E+04  0.92900614560E+02 0.  0.
         23    2    4    4    0    0 -0.23945230490E+03 -0.20176965915E+03 -0.24190585426E+03  0.40609587212E+03  0.91361990741E+02 0.  0.
          4    1    3    3  502    0 -0.23303363869E+03  0.27113463923E+03 -0.59561065583E+03  0.69467310491E+03  0.00000000000E+00 0. -1.
         -3    1    3    3    0  502 -0.16377103194E+03  0.18068662579E+03 -0.29185866109E+03  0.38032891777E+03  0.00000000000E+00 0.  1.
         11    1    5    5    0    0  0.21221714000E+03 -0.40390824671E+02 -0.32120197879E+03  0.38708945272E+03  0.00000000000E+00 0. -1.
        -11    1    5    5    0    0  0.42403983552E+03 -0.20966078119E+03 -0.79800883155E+03  0.92767748734E+03  0.00000000000E+00 0.  1.
          2    1    6    6  503    0 -0.21118572885E+02 -0.52774163304E+01  0.50468248448E+01  0.22345372784E+02  0.00000000000E+00 0. -1.
         -2    1    6    6    0  503 -0.21833373201E+03 -0.19649224282E+03 -0.24695267910E+03  0.38375049933E+03  0.00000000000E+00 0.  1.
<mgrwt>
<rscale>  0 0.16615418E+04</rscale>
<asrwt>0</asrwt>
<pdfrwt beam="1">  1        2 0.38803466E+00 0.16615418E+04</pdfrwt>
<pdfrwt beam="2">  1       -1 0.42098375E-01 0.16615418E+04</pdfrwt>
<totfact> 0.20398723E+01</totfact>
</mgrwt>
</event>
<event>
12    6  0.1556619E-007  0.2718672E+04  0.7818608E-02  0.8328972E-01
         -1   -1    0    0    0  501 -0.00000000000E+00  0.00000000000E+00  0.16733004440E+04  0.16733004440E+04  0.00000000000E+00 0.  1.
          2   -1    0    0  501    0  0.00000000000E+00 -0.00000000000E+00 -0.11042810605E+04  0.11042810605E+04  0.00000000000E+00 0. -1.
         24    2    1    2    0    0 -0.70841431442E+03  0.30159956749E+03 -0.69924354589E+03  0.10434512951E+04  0.83880443928E+02 0.  0.
        254    2    1    2    0    0  0.70841431442E+03 -0.30159956749E+03  0.12682629294E+04  0.17341302093E+04  0.89772132916E+03 0.  0.
         23    2    4    4    0    0  0.91175903135E+03 -0.19867921207E+03  0.10170731450E+04  0.13831137075E+04  0.88248427843E+02 0.  0.
         23    2    4    4    0    0 -0.20334471693E+03 -0.10292035541E+03  0.25118978442E+03  0.35101650185E+03  0.90413512892E+02 0.  0.
          4    1    3    3  502    0 -0.51559986173E+03  0.20228426940E+03 -0.54716399056E+03  0.77855672602E+03  0.00000000000E+00 0. -1.
         -3    1    3    3    0  502 -0.19281445269E+03  0.99315298087E+02 -0.15207955533E+03  0.26489456912E+03  0.00000000000E+00 0.  1.
         11    1    5    5    0    0  0.58432827640E+02 -0.21172593315E+02  0.10147965688E+03  0.11899913787E+03  0.00000000000E+00 0.  1.
        -11    1    5    5    0    0  0.85332620371E+03 -0.17750661876E+03  0.91559348809E+03  0.12641145696E+04  0.00000000000E+00 0. -1.
          1    1    6    6  503    0 -0.78229278019E+02 -0.85369259991E+02  0.92669496961E+02  0.14830834824E+03  0.00000000000E+00 0. -1.
         -1    1    6    6    0  503 -0.12511543891E+03 -0.17551095422E+02  0.15852028746E+03  0.20270815361E+03  0.00000000000E+00 0.  1.
<mgrwt>
<rscale>  0 0.27186717E+04</rscale>
<asrwt>0</asrwt>
<pdfrwt beam="1">  1        2 0.16988939E+00 0.27186717E+04</pdfrwt>
<pdfrwt beam="2">  1       -1 0.25743084E+00 0.27186717E+04</pdfrwt>
<totfact> 0.13478999E+00</totfact>
</mgrwt>
</event>
<event>
12    6  0.1556619E-007  0.1092873E+04  0.7818608E-02  0.9212167E-01
          2   -1    0    0  501    0  0.00000000000E+00  0.00000000000E+00  0.35300059448E+03  0.35300059448E+03  0.00000000000E+00 0. -1.
         -1   -1    0    0    0  501 -0.00000000000E+00 -0.00000000000E+00 -0.84587013689E+03  0.84587013689E+03  0.00000000000E+00 0.  1.
         24    2    1    2    0    0  0.13333546958E+03  0.31058818817E+02 -0.18166792741E+02  0.16003865977E+03  0.80866201769E+02 0.  0.
        254    2    1    2    0    0 -0.13333546958E+03 -0.31058818817E+02 -0.47470274967E+03  0.10388320716E+04  0.91383060507E+03 0.  0.
         23    2    4    4    0    0 -0.41027638967E+03 -0.13408883461E+03  0.35084246443E+02  0.44253691075E+03  0.91112466414E+02 0.  0.
         23    2    4    4    0    0  0.27694092009E+03  0.10303001580E+03 -0.50978699611E+03  0.59629516085E+03  0.91507814282E+02 0.  0.
          2    1    3    3  502    0  0.13894070167E+03  0.28713092864E+02 -0.31548607935E+02  0.14534192425E+03  0.00000000000E+00 0. -1.
         -1    1    3    3    0  502 -0.56052320916E+01  0.23457259535E+01  0.13381815194E+02  0.14696735519E+02  0.00000000000E+00 0.  1.
         11    1    5    5    0    0 -0.33661335538E+03 -0.78088318660E+02  0.62249661292E+01  0.34560828511E+03  0.00000000000E+00 0.  1.
        -11    1    5    5    0    0 -0.73663034284E+02 -0.56000515954E+02  0.28859280313E+02  0.96928625634E+02  0.00000000000E+00 0. -1.
          1    1    6    6  503    0  0.92672683528E+02  0.81465130779E+02 -0.18862636267E+03  0.22539897626E+03  0.00000000000E+00 0. -1.
         -1    1    6    6    0  503  0.18426823656E+03  0.21564885018E+02 -0.32116063344E+03  0.37089618459E+03  0.00000000000E+00 0.  1.
<mgrwt>
<rscale>  0 0.10928727E+04</rscale>
<asrwt>0</asrwt>
<pdfrwt beam="1">  1        2 0.54307785E-01 0.10928727E+04</pdfrwt>
<pdfrwt beam="2">  1       -1 0.13013387E+00 0.10928727E+04</pdfrwt>
<totfact> 0.52679577E+01</totfact>
</mgrwt>
</event>
<event>
12    6  0.1556619E-007  0.1612066E+04  0.7818608E-02  0.8813169E-01
         -1   -1    0    0    0  501 -0.00000000000E+00  0.00000000000E+00  0.86398305484E+03  0.86398305484E+03  0.00000000000E+00 0.  1.
          2   -1    0    0  501    0  0.00000000000E+00 -0.00000000000E+00 -0.75196996032E+03  0.75196996032E+03  0.00000000000E+00 0. -1.
         24    2    1    2    0    0  0.35850456503E+03 -0.35882648154E+03  0.19637312562E+03  0.54944251339E+03  0.77734831722E+02 0.  0.
        254    2    1    2    0    0 -0.35850456503E+03  0.35882648154E+03 -0.84360031095E+02  0.10665105018E+04  0.93436934268E+03 0.  0.
         23    2    4    4    0    0 -0.39893826410E+03 -0.20355959260E+03  0.95731811499E+02  0.46763818917E+03  0.94512697187E+02 0.  0.
         23    2    4    4    0    0  0.40433699072E+02  0.56238607414E+03 -0.18009184259E+03  0.59887231260E+03  0.91115282068E+02 0.  0.
          2    1    3    3  502    0  0.16258743106E+03 -0.11096658929E+03  0.65324687451E+02  0.20740195627E+03  0.00000000000E+00 0. -1.
         -1    1    3    3    0  502  0.19591713397E+03 -0.24785989225E+03  0.13104843817E+03  0.34204055712E+03  0.00000000000E+00 0.  1.
         11    1    5    5    0    0 -0.69839772202E+02 -0.51775626963E+00  0.26113190641E+01  0.69890491772E+02  0.00000000000E+00 0.  1.
        -11    1    5    5    0    0 -0.32909849190E+03 -0.20304183633E+03  0.93120492434E+02  0.39774769739E+03  0.00000000000E+00 0. -1.
          3    1    6    6  503    0  0.15795341380E+02  0.58047545462E+02 -0.47944804415E+02  0.76926683367E+02  0.00000000000E+00 0.  1.
         -3    1    6    6    0  503  0.24638357692E+02  0.50433852868E+03 -0.13214703818E+03  0.52194562924E+03  0.00000000000E+00 0. -1.
<mgrwt>
<rscale>  0 0.16120661E+04</rscale>
<asrwt>0</asrwt>
<pdfrwt beam="1">  1        2 0.11568769E+00 0.16120661E+04</pdfrwt>
<pdfrwt beam="2">  1       -1 0.13292047E+00 0.16120661E+04</pdfrwt>
<totfact> 0.19599527E+01</totfact>
</mgrwt>
</event>
<event>
12    6  0.1556619E-007  0.1216823E+04  0.7818608E-02  0.9098258E-01
         -1   -1    0    0    0  501 -0.00000000000E+00  0.00000000000E+00  0.13112855111E+04  0.13112855111E+04  0.00000000000E+00 0.  1.
          2   -1    0    0  501    0  0.00000000000E+00 -0.00000000000E+00 -0.28229112715E+03  0.28229112715E+03  0.00000000000E+00 0. -1.
         24    2    1    2    0    0  0.11416511319E+03 -0.24805985454E+03  0.28359607220E+03  0.40156305697E+03  0.79112527829E+02 0.  0.
        254    2    1    2    0    0 -0.11416511319E+03  0.24805985454E+03  0.74539831180E+03  0.11920135813E+04  0.88921896646E+03 0.  0.
         23    2    4    4    0    0 -0.18370945187E+03  0.56092342888E+03  0.46523067272E+03  0.75704729342E+03  0.91086606442E+02 0.  0.
         23    2    4    4    0    0  0.69544338680E+02 -0.31286357434E+03  0.28016763908E+03  0.43496628789E+03  0.89340553084E+02 0.  0.
          4    1    3    3  502    0  0.11240884168E+03 -0.25125608274E+03  0.28619828325E+03  0.39708289328E+03  0.00000000000E+00 0. -1.
         -3    1    3    3    0  502  0.17562715193E+01  0.31962282031E+01 -0.26022110538E+01  0.44801636961E+01  0.00000000000E+00 0.  1.
         11    1    5    5    0    0 -0.33622733097E+02  0.22221920053E+03  0.14594884326E+03  0.26797933897E+03  0.00000000000E+00 0. -1.
        -11    1    5    5    0    0 -0.15008671878E+03  0.33870422834E+03  0.31928182946E+03  0.48906795445E+03  0.00000000000E+00 0.  1.
          2    1    6    6  503    0 -0.11033256407E+02 -0.13134228639E+03  0.87083195335E+02  0.15797471902E+03  0.00000000000E+00 0. -1.
         -2    1    6    6    0  503  0.80577595087E+02 -0.18152128796E+03  0.19308444374E+03  0.27699156887E+03  0.00000000000E+00 0.  1.
<mgrwt>
<rscale>  0 0.12168225E+04</rscale>
<asrwt>0</asrwt>
<pdfrwt beam="1">  1        2 0.43429405E-01 0.12168225E+04</pdfrwt>
<pdfrwt beam="2">  1       -1 0.20173623E+00 0.12168225E+04</pdfrwt>
<totfact> 0.19439627E+01</totfact>
</mgrwt>
</event>
<event>
12    6  0.1556619E-007  0.2276254E+04  0.7818608E-02  0.8487343E-01
         -1   -1    0    0    0  501 -0.00000000000E+00  0.00000000000E+00  0.60616590167E+03  0.60616590167E+03  0.00000000000E+00 0.  1.
          2   -1    0    0  501    0  0.00000000000E+00 -0.00000000000E+00 -0.21369285056E+04  0.21369285056E+04  0.00000000000E+00 0. -1.
         24    2    1    2    0    0 -0.58518812987E+03  0.42544421118E+03  0.11122748358E+03  0.73620356108E+03  0.78588841867E+02 0.  0.
        254    2    1    2    0    0  0.58518812987E+03 -0.42544421118E+03 -0.16419900875E+04  0.20068908461E+04  0.89890572188E+03 0.  0.
         23    2    4    4    0    0  0.70062094306E+03 -0.29795747274E+03 -0.67851223986E+03  0.10240004385E+04  0.92464463153E+02 0.  0.
         23    2    4    4    0    0 -0.11543281319E+03 -0.12748673844E+03 -0.96347784761E+03  0.98289040767E+03  0.90589115328E+02 0.  0.
          4    1    3    3  502    0 -0.53150965352E+02  0.69873184329E+02  0.10780023809E+02  0.88450528090E+02  0.00000000000E+00 0. -1.
         -3    1    3    3    0  502 -0.53203716452E+03  0.35557102685E+03  0.10044745977E+03  0.64775303299E+03  0.00000000000E+00 0.  1.
         11    1    5    5    0    0  0.20411373182E+03 -0.71059719956E+02 -0.24657224439E+03  0.32788682655E+03  0.00000000000E+00 0. -1.
        -11    1    5    5    0    0  0.49650721124E+03 -0.22689775278E+03 -0.43193999547E+03  0.69611361193E+03  0.00000000000E+00 0.  1.
          3    1    6    6  503    0 -0.36828477326E+02  0.44657740687E+01 -0.27483028116E+03  0.27732285035E+03  0.00000000000E+00 0. -1.
         -3    1    6    6    0  503 -0.78604335863E+02 -0.13195251251E+03 -0.68864756645E+03  0.70556755732E+03  0.00000000000E+00 0.  1.
<mgrwt>
<rscale>  0 0.22762541E+04</rscale>
<asrwt>0</asrwt>
<pdfrwt beam="1">  1        2 0.32875823E+00 0.22762541E+04</pdfrwt>
<pdfrwt beam="2">  1       -1 0.93256293E-01 0.22762541E+04</pdfrwt>
<totfact> 0.64638436E+00</totfact>
</mgrwt>
</event>
<event>
12    6  0.1556619E-007  0.1341538E+04  0.7818608E-02  0.8997258E-01
          2   -1    0    0  501    0  0.00000000000E+00  0.00000000000E+00  0.20254564617E+04  0.20254564617E+04  0.00000000000E+00 0. -1.
         -3   -1    0    0    0  501 -0.00000000000E+00 -0.00000000000E+00 -0.22213821419E+03  0.22213821419E+03  0.00000000000E+00 0.  1.
         24    2    1    2    0    0 -0.20485835071E+03 -0.28668711982E+03  0.34108276866E+03  0.49607460842E+03  0.74807175563E+02 0.  0.
        254    2    1    2    0    0  0.20485835071E+03  0.28668711982E+03  0.14622354788E+04  0.17515200675E+04  0.89751518239E+03 0.  0.
         23    2    4    4    0    0 -0.11977977621E+03 -0.26657529842E+03  0.59519371546E+03  0.66904727521E+03  0.89213861232E+02 0.  0.
         23    2    4    4    0    0  0.32463812692E+03  0.55326241824E+03  0.86704176337E+03  0.10824727922E+04  0.92177598265E+02 0.  0.
          4    1    3    3  502    0 -0.77583295153E+01 -0.12205491138E+01 -0.20746810217E+01  0.81231593823E+01  0.00000000000E+00 0. -1.
         -3    1    3    3    0  502 -0.19710002119E+03 -0.28546657071E+03  0.34315744968E+03  0.48795144904E+03  0.00000000000E+00 0.  1.
         11    1    5    5    0    0 -0.63529702785E+02 -0.15514551917E+03  0.24160715964E+03  0.29407511769E+03  0.00000000000E+00 0. -1.
        -11    1    5    5    0    0 -0.56250073423E+02 -0.11142977924E+03  0.35358655582E+03  0.37497215752E+03  0.00000000000E+00 0.  1.
          1    1    6    6  503    0  0.21114063614E+03  0.42759476957E+03  0.60273825584E+03  0.76857729621E+03  0.00000000000E+00 0.  1.
         -1    1    6    6    0  503  0.11349749078E+03  0.12566764867E+03  0.26430350753E+03  0.31389549603E+03  0.00000000000E+00 0. -1.
<mgrwt>
<rscale>  0 0.13415383E+04</rscale>
<asrwt>0</asrwt>
<pdfrwt beam="1">  1        2 0.31160867E+00 0.13415383E+04</pdfrwt>
<pdfrwt beam="2">  1       -3 0.34175111E-01 0.13415383E+04</pdfrwt>
<totfact> 0.34523395E+01</totfact>
</mgrwt>
</event>
<event>
12    6  0.1556619E-007  0.1929728E+04  0.7818608E-02  0.8640199E-01
          2   -1    0    0  501    0  0.00000000000E+00  0.00000000000E+00  0.89107289984E+03  0.89107289984E+03  0.00000000000E+00 0. -1.
         -1   -1    0    0    0  501 -0.00000000000E+00 -0.00000000000E+00 -0.10447654723E+04  0.10447654723E+04  0.00000000000E+00 0.  1.
         24    2    1    2    0    0  0.40798647283E+03 -0.49436228578E+03  0.32594117357E+03  0.72346624518E+03  0.79490425095E+02 0.  0.
        254    2    1    2    0    0 -0.40798647283E+03  0.49436228578E+03 -0.47963374601E+03  0.12123721269E+04  0.91046724941E+03 0.  0.
         23    2    4    4    0    0 -0.67119800027E+03  0.24870992511E+03 -0.42640639831E+03  0.83830685593E+03  0.92588259307E+02 0.  0.
         23    2    4    4    0    0  0.26321152744E+03  0.24565236067E+03 -0.53227347699E+02  0.37406527101E+03  0.86407672982E+02 0.  0.
          4    1    3    3  502    0  0.11286275301E+03 -0.17478004421E+03  0.13759038222E+03  0.24943371495E+03  0.00000000000E+00 0. -1.
         -1    1    3    3    0  502  0.29512371981E+03 -0.31958224157E+03  0.18835079135E+03  0.47403253024E+03  0.00000000000E+00 0.  1.
         11    1    5    5    0    0 -0.56715418844E+03  0.17630690298E+03 -0.33355553814E+03  0.68118080898E+03  0.00000000000E+00 0. -1.
        -11    1    5    5    0    0 -0.10404381183E+03  0.72403022136E+02 -0.92850860174E+02  0.15712604695E+03  0.00000000000E+00 0.  1.
          3    1    6    6  503    0  0.22089089959E+03  0.16693442736E+03 -0.63618501255E+02  0.28409013756E+03  0.00000000000E+00 0. -1.
         -3    1    6    6    0  503  0.42320627858E+02  0.78717933306E+02  0.10391153556E+02  0.89975133445E+02  0.00000000000E+00 0.  1.
<mgrwt>
<rscale>  0 0.19297276E+04</rscale>
<asrwt>0</asrwt>
<pdfrwt beam="1">  1        2 0.13708814E+00 0.19297276E+04</pdfrwt>
<pdfrwt beam="2">  1       -1 0.16073315E+00 0.19297276E+04</pdfrwt>
<totfact> 0.91467220E+00</totfact>
</mgrwt>
</event>
<event>
12    6  0.1556619E-007  0.1507623E+04  0.7818608E-02  0.8879400E-01
         -1   -1    0    0    0  501 -0.00000000000E+00  0.00000000000E+00  0.20135232089E+03  0.20135232089E+03  0.00000000000E+00 0.  1.
          2   -1    0    0  501    0  0.00000000000E+00 -0.00000000000E+00 -0.28220762048E+04  0.28220762048E+04  0.00000000000E+00 0. -1.
         24    2    1    2    0    0  0.50352055925E+03 -0.15388177070E+03 -0.67701247811E+03  0.86144518799E+03  0.80804476706E+02 0.  0.
        254    2    1    2    0    0 -0.50352055925E+03  0.15388177070E+03 -0.19437114058E+04  0.21619833377E+04  0.78673081199E+03 0.  0.
         23    2    4    4    0    0 -0.67619775066E+02  0.35394264167E+03 -0.13093982346E+04  0.13612304612E+04  0.92611036053E+02 0.  0.
         23    2    4    4    0    0 -0.43590078418E+03 -0.20006087097E+03 -0.63431317119E+03  0.80075287655E+03  0.93904868960E+02 0.  0.
          4    1    3    3  502    0  0.10341578978E+03 -0.64340349631E+02 -0.13489787130E+03  0.18174691703E+03  0.00000000000E+00 0. -1.
         -3    1    3    3    0  502  0.40010476946E+03 -0.89541421067E+02 -0.54211460681E+03  0.67969827096E+03  0.00000000000E+00 0.  1.
         11    1    5    5    0    0 -0.62117769417E+02  0.31654178189E+03 -0.12489439226E+04  0.12899295480E+04  0.00000000000E+00 0.  1.
        -11    1    5    5    0    0 -0.55020056492E+01  0.37400859784E+02 -0.60454312027E+02  0.71300913188E+02  0.00000000000E+00 0. -1.
          2    1    6    6  503    0 -0.11312406439E+02 -0.15303147348E+02 -0.60437837385E+02  0.63363152115E+02  0.00000000000E+00 0. -1.
         -2    1    6    6    0  503 -0.42458837774E+03 -0.18475772362E+03 -0.57387533380E+03  0.73738972443E+03  0.00000000000E+00 0.  1.
<mgrwt>
<rscale>  0 0.15076228E+04</rscale>
<asrwt>0</asrwt>
<pdfrwt beam="1">  1        2 0.43416555E+00 0.15076228E+04</pdfrwt>
<pdfrwt beam="2">  1       -1 0.30977282E-01 0.15076228E+04</pdfrwt>
<totfact> 0.23905598E+01</totfact>
</mgrwt>
</event>
<event>
12    6  0.1556619E-007  0.1083100E+04  0.7818608E-02  0.9221822E-01
          2   -1    0    0  501    0  0.00000000000E+00  0.00000000000E+00  0.19265110927E+04  0.19265110927E+04  0.00000000000E+00 0. -1.
         -1   -1    0    0    0  501 -0.00000000000E+00 -0.00000000000E+00 -0.15223178687E+03  0.15223178687E+03  0.00000000000E+00 0.  1.
         24    2    1    2    0    0 -0.13046022092E+03  0.65530778582E+02  0.24478658663E+03  0.29614528745E+03  0.80420184645E+02 0.  0.
        254    2    1    2    0    0  0.13046022092E+03 -0.65530778582E+02  0.15294927192E+04  0.17825975921E+04  0.90387612270E+03 0.  0.
         23    2    4    4    0    0  0.24191431167E+03 -0.22590507608E+03  0.15308711764E+04  0.15689263518E+04  0.91693517081E+02 0.  0.
         23    2    4    4    0    0 -0.11145409075E+03  0.16037429750E+03 -0.13784572136E+01  0.21367124030E+03  0.86669309136E+02 0.  0.
          4    1    3    3  502    0  0.58036237455E+01  0.19056497287E+02  0.50831633790E+02  0.54595669528E+02  0.00000000000E+00 0. -1.
         -3    1    3    3    0  502 -0.13626384467E+03  0.46474281295E+02  0.19395495284E+03  0.24154961792E+03  0.00000000000E+00 0.  1.
         11    1    5    5    0    0  0.19206363941E+03 -0.19263764611E+03  0.10639464151E+04  0.10981710607E+04  0.00000000000E+00 0.  1.
        -11    1    5    5    0    0  0.49850672263E+02 -0.33267429974E+02  0.46692476135E+03  0.47075529119E+03  0.00000000000E+00 0. -1.
          2    1    6    6  503    0 -0.23245340982E+02  0.96291258036E+02 -0.24887893806E+02  0.10213598538E+03  0.00000000000E+00 0. -1.
         -2    1    6    6    0  503 -0.88208749765E+02  0.64083039464E+02  0.23509436593E+02  0.11153525492E+03  0.00000000000E+00 0.  1.
<mgrwt>
<rscale>  0 0.10830997E+04</rscale>
<asrwt>0</asrwt>
<pdfrwt beam="1">  1        2 0.29638630E+00 0.10830997E+04</pdfrwt>
<pdfrwt beam="2">  1       -1 0.23420276E-01 0.10830997E+04</pdfrwt>
<totfact> 0.13038570E+02</totfact>
</mgrwt>
</event>
<event>
12    6  0.1556619E-007  0.2119396E+04  0.7818608E-02  0.8552747E-01
         -1   -1    0    0    0  501 -0.00000000000E+00  0.00000000000E+00  0.98140272180E+03  0.98140272180E+03  0.00000000000E+00 0.  1.
          2   -1    0    0  501    0  0.00000000000E+00 -0.00000000000E+00 -0.11442395439E+04  0.11442395439E+04  0.00000000000E+00 0. -1.
         24    2    1    2    0    0 -0.57825408201E+02  0.86571825982E+03 -0.51143929311E+02  0.87254507642E+03  0.76859128685E+02 0.  0.
        254    2    1    2    0    0  0.57825408201E+02 -0.86571825982E+03 -0.11169289278E+03  0.12530971893E+04  0.89719862922E+03 0.  0.
         23    2    4    4    0    0 -0.18788986132E+03 -0.19024309470E+03 -0.38533417998E+03  0.47800048049E+03  0.92233367161E+02 0.  0.
         23    2    4    4    0    0  0.24571526952E+03 -0.67547516512E+03  0.27364128720E+03  0.77509670879E+03  0.96190756054E+02 0.  0.
          4    1    3    3  502    0 -0.54991538959E+00  0.19432029797E+03  0.18089065632E+02  0.19516120236E+03  0.00000000000E+00 0. -1.
         -3    1    3    3    0  502 -0.57275492811E+02  0.67139796184E+03 -0.69232994943E+02  0.67738387406E+03  0.00000000000E+00 0.  1.
         11    1    5    5    0    0 -0.19155091835E+03 -0.16352417739E+03 -0.31932321087E+03  0.40669303401E+03  0.00000000000E+00 0.  1.
        -11    1    5    5    0    0  0.36610570252E+01 -0.26718917309E+02 -0.66010969107E+02  0.71307446477E+02  0.00000000000E+00 0. -1.
          4    1    6    6  503    0  0.12127761164E+03 -0.45092091121E+03  0.20034608271E+03  0.50811069671E+03  0.00000000000E+00 0. -1.
         -4    1    6    6    0  503  0.12443765788E+03 -0.22455425391E+03  0.73295204490E+02  0.26698601208E+03  0.00000000000E+00 0.  1.
<mgrwt>
<rscale>  0 0.21193960E+04</rscale>
<asrwt>0</asrwt>
<pdfrwt beam="1">  1        2 0.17603685E+00 0.21193960E+04</pdfrwt>
<pdfrwt beam="2">  1       -1 0.15098503E+00 0.21193960E+04</pdfrwt>
<totfact> 0.73605008E+00</totfact>
</mgrwt>
</event>
<event>
12    6  0.1556619E-007  0.2613544E+04  0.7818608E-02  0.8363615E-01
          2   -1    0    0  501    0  0.00000000000E+00  0.00000000000E+00  0.24825132841E+04  0.24825132841E+04  0.00000000000E+00 0. -1.
         -1   -1    0    0    0  501 -0.00000000000E+00 -0.00000000000E+00 -0.68787282608E+03  0.68787282608E+03  0.00000000000E+00 0.  1.
         24    2    1    2    0    0 -0.88825345244E+03 -0.69079657525E+03  0.50620846544E+03  0.12361615724E+04  0.75195202426E+02 0.  0.
        254    2    1    2    0    0  0.88825345244E+03  0.69079657525E+03  0.12884319926E+04  0.19342245378E+04  0.90275880437E+03 0.  0.
         23    2    4    4    0    0  0.30146926573E+03  0.70143102748E+03  0.10318561534E+04  0.12871735669E+04  0.95913844568E+02 0.  0.
         23    2    4    4    0    0  0.58678418671E+03 -0.10634452228E+02  0.25657583915E+03  0.64705097083E+03  0.91733441352E+02 0.  0.
          2    1    3    3  502    0 -0.31626945537E+03 -0.23739656188E+03  0.21686096915E+03  0.45101239000E+03  0.00000000000E+00 0. -1.
         -1    1    3    3    0  502 -0.57198399708E+03 -0.45340001337E+03  0.28934749629E+03  0.78514918242E+03  0.00000000000E+00 0.  1.
         11    1    5    5    0    0  0.12235669987E+03  0.25800885185E+03  0.31205450300E+03  0.42298669303E+03  0.00000000000E+00 0. -1.
        -11    1    5    5    0    0  0.17911256586E+03  0.44342217563E+03  0.71980165042E+03  0.86418687391E+03  0.00000000000E+00 0.  1.
          3    1    6    6  503    0  0.21932784814E+03 -0.40151293334E+02  0.68824464450E+02  0.23335303348E+03  0.00000000000E+00 0. -1.
         -3    1    6    6    0  503  0.36745633858E+03  0.29516841106E+02  0.18775137470E+03  0.41369793735E+03  0.00000000000E+00 0.  1.
<mgrwt>
<rscale>  0 0.26135443E+04</rscale>
<asrwt>0</asrwt>
<pdfrwt beam="1">  1        2 0.38192512E+00 0.26135443E+04</pdfrwt>
<pdfrwt beam="2">  1       -1 0.10582659E+00 0.26135443E+04</pdfrwt>
<totfact> 0.29921147E+00</totfact>
</mgrwt>
</event>
<event>
12    6  0.1556619E-007  0.2802025E+04  0.7818608E-02  0.8302640E-01
         -1   -1    0    0    0  501 -0.00000000000E+00  0.00000000000E+00  0.15577275190E+04  0.15577275190E+04  0.00000000000E+00 0.  1.
          2   -1    0    0  501    0  0.00000000000E+00 -0.00000000000E+00 -0.12600633959E+04  0.12600633959E+04  0.00000000000E+00 0. -1.
         24    2    1    2    0    0 -0.22879023666E+03 -0.83939448092E+03 -0.77599341740E+03  0.11686561504E+04  0.81629327256E+02 0.  0.
        254    2    1    2    0    0  0.22879023666E+03  0.83939448092E+03  0.10736575406E+04  0.16491347645E+04  0.89998716100E+03 0.  0.
         23    2    4    4    0    0 -0.22126282196E+03 -0.40243273960E+02  0.32680568699E+03  0.40690300430E+03  0.90506024009E+02 0.  0.
         23    2    4    4    0    0  0.45005305862E+03  0.87963775488E+03  0.74685185360E+03  0.12422317602E+04  0.95087956052E+02 0.  0.
          4    1    3    3  502    0 -0.15745561969E+03 -0.53640331699E+03 -0.54785215572E+03  0.78272777846E+03  0.00000000000E+00 0. -1.
         -3    1    3    3    0  502 -0.71334616966E+02 -0.30299116393E+03 -0.22814126168E+03  0.38592837195E+03  0.00000000000E+00 0.  1.
         11    1    5    5    0    0 -0.10259252452E+03 -0.63894760017E+02  0.14955516167E+03  0.19228757845E+03  0.00000000000E+00 0.  1.
        -11    1    5    5    0    0 -0.11867029745E+03  0.23651486057E+02  0.17725052531E+03  0.21461542585E+03  0.00000000000E+00 0. -1.
          2    1    6    6  503    0  0.43480441285E+03  0.87435814290E+03  0.73400608864E+03  0.12216063104E+04  0.00000000000E+00 0. -1.
         -2    1    6    6    0  503  0.15248645769E+02  0.52796119797E+01  0.12845764954E+02  0.20625449757E+02  0.00000000000E+00 0.  1.
<mgrwt>
<rscale>  0 0.28020246E+04</rscale>
<asrwt>0</asrwt>
<pdfrwt beam="1">  1        2 0.19385591E+00 0.28020246E+04</pdfrwt>
<pdfrwt beam="2">  1       -1 0.23965039E+00 0.28020246E+04</pdfrwt>
<totfact> 0.14094985E+00</totfact>
</mgrwt>
</event>
<event>
12    6  0.1556619E-007  0.1765389E+04  0.7818608E-02  0.8724925E-01
          2   -1    0    0  501    0  0.00000000000E+00  0.00000000000E+00  0.10458362910E+04  0.10458362910E+04  0.00000000000E+00 0. -1.
         -1   -1    0    0    0  501 -0.00000000000E+00 -0.00000000000E+00 -0.74500165056E+03  0.74500165056E+03  0.00000000000E+00 0.  1.
         24    2    1    2    0    0  0.40686085922E+03  0.37569005764E+03  0.45843618373E+03  0.72334067676E+03  0.79870031540E+02 0.  0.
        254    2    1    2    0    0 -0.40686085922E+03 -0.37569005764E+03 -0.15760154333E+03  0.10674972648E+04  0.89890677249E+03 0.  0.
         23    2    4    4    0    0 -0.28370503425E+03 -0.17922489343E+03 -0.52071364690E+03  0.62654777712E+03  0.93857903530E+02 0.  0.
         23    2    4    4    0    0 -0.12315582496E+03 -0.19646516421E+03  0.36311210357E+03  0.44094948764E+03  0.93915562701E+02 0.  0.
          4    1    3    3  502    0  0.44848033080E+02  0.80600659650E+02  0.83483602948E+02  0.12440789512E+03  0.00000000000E+00 0. -1.
         -3    1    3    3    0  502  0.36201282614E+03  0.29508939799E+03  0.37495258078E+03  0.59893278164E+03  0.00000000000E+00 0.  1.
         11    1    5    5    0    0 -0.27951660944E+03 -0.18907885247E+03 -0.50869537720E+03  0.61045174599E+03  0.00000000000E+00 0.  1.
        -11    1    5    5    0    0 -0.41884248108E+01  0.98539590420E+01 -0.12018269703E+02  0.16096031121E+02  0.00000000000E+00 0. -1.
          2    1    6    6  503    0 -0.12637767419E+02 -0.75237388986E+02  0.63049093888E+02  0.98972552290E+02  0.00000000000E+00 0. -1.
         -2    1    6    6    0  503 -0.11051805754E+03 -0.12122777522E+03  0.30006300969E+03  0.34197693535E+03  0.00000000000E+00 0.  1.
<mgrwt>
<rscale>  0 0.17653892E+04</rscale>
<asrwt>0</asrwt>
<pdfrwt beam="1">  1        2 0.16089789E+00 0.17653892E+04</pdfrwt>
<pdfrwt beam="2">  1       -1 0.11461564E+00 0.17653892E+04</pdfrwt>
<totfact> 0.17600058E+01</totfact>
</mgrwt>
</event>
<event>
12    6  0.1556619E-007  0.2154683E+04  0.7818608E-02  0.8537530E-01
         -1   -1    0    0    0  501 -0.00000000000E+00  0.00000000000E+00  0.13492566429E+04  0.13492566429E+04  0.00000000000E+00 0.  1.
          2   -1    0    0  501    0  0.00000000000E+00 -0.00000000000E+00 -0.86022513262E+03  0.86022513262E+03  0.00000000000E+00 0. -1.
         24    2    1    2    0    0  0.72583396394E+02  0.11702776436E+03  0.11136892538E+04  0.11253854479E+04  0.84998854343E+02 0.  0.
        254    2    1    2    0    0 -0.72583396394E+02 -0.11702776436E+03 -0.62465774352E+03  0.10840963276E+04  0.87527350237E+03 0.  0.
         23    2    4    4    0    0 -0.29429931727E+03 -0.79818628278E+02 -0.74700740788E+03  0.81252223749E+03  0.95860405914E+02 0.  0.
         23    2    4    4    0    0  0.22171592088E+03 -0.37209136079E+02  0.12234966436E+03  0.27157409012E+03  0.90777622112E+02 0.  0.
          2    1    3    3  502    0  0.27527876545E+02 -0.77698604863E+01  0.23521878544E+03  0.23695153881E+03  0.00000000000E+00 0. -1.
         -1    1    3    3    0  502  0.45055519849E+02  0.12479762484E+03  0.87847046833E+03  0.88843390906E+03  0.00000000000E+00 0.  1.
         11    1    5    5    0    0 -0.32245878144E+02 -0.39307421283E+02 -0.80581489316E+02  0.95279832312E+02  0.00000000000E+00 0. -1.
        -11    1    5    5    0    0 -0.26205343913E+03 -0.40511206995E+02 -0.66642591857E+03  0.71724240518E+03  0.00000000000E+00 0.  1.
          2    1    6    6  503    0  0.32360146551E+02  0.26754636989E+02  0.28663292793E+02  0.50838706110E+02  0.00000000000E+00 0. -1.
         -2    1    6    6    0  503  0.18935577433E+03 -0.63963773068E+02  0.93686371569E+02  0.22073538401E+03  0.00000000000E+00 0.  1.
<mgrwt>
<rscale>  0 0.21546828E+04</rscale>
<asrwt>0</asrwt>
<pdfrwt beam="1">  1        2 0.13234233E+00 0.21546828E+04</pdfrwt>
<pdfrwt beam="2">  1       -1 0.20757794E+00 0.21546828E+04</pdfrwt>
<totfact> 0.43633897E+00</totfact>
</mgrwt>
</event>
<event>
12    6  0.1556619E-007  0.3721895E+04  0.7818608E-02  0.8063127E-01
         -1   -1    0    0    0  501 -0.00000000000E+00  0.00000000000E+00  0.20960317684E+04  0.20960317684E+04  0.00000000000E+00 0.  1.
          2   -1    0    0  501    0  0.00000000000E+00 -0.00000000000E+00 -0.16522291719E+04  0.16522291719E+04  0.00000000000E+00 0. -1.
         24    2    1    2    0    0 -0.11248115178E+03 -0.11468114839E+04  0.15329950424E+04  0.19198145213E+04  0.88234955559E+02 0.  0.
        254    2    1    2    0    0  0.11248115178E+03  0.11468114839E+04 -0.10891924459E+04  0.18284464189E+04  0.91052047397E+03 0.  0.
         23    2    4    4    0    0  0.40330959157E+03  0.10726136473E+04 -0.91711196266E+03  0.14704472086E+04  0.89229918792E+02 0.  0.
         23    2    4    4    0    0 -0.29082843979E+03  0.74197836603E+02 -0.17208048321E+03  0.35799921023E+03  0.92006746896E+02 0.  0.
          2    1    3    3  502    0  0.61775645007E+01 -0.23590868945E+03  0.28041859854E+03  0.36650465545E+03  0.00000000000E+00 0. -1.
         -1    1    3    3    0  502 -0.11865871628E+03 -0.91090279441E+03  0.12525764438E+04  0.15533098659E+04  0.00000000000E+00 0.  1.
         11    1    5    5    0    0  0.38992836241E+03  0.10091609305E+04 -0.83998324758E+03  0.13696794397E+04  0.00000000000E+00 0.  1.
        -11    1    5    5    0    0  0.13381229162E+02  0.63452716782E+02 -0.77128715079E+02  0.10076776891E+03  0.00000000000E+00 0. -1.
          3    1    6    6  503    0 -0.19144956827E+03  0.69571998465E+02 -0.69828389872E+02  0.21533509745E+03  0.00000000000E+00 0. -1.
         -3    1    6    6    0  503 -0.99378871519E+02  0.46258381378E+01 -0.10225209333E+03  0.14266411278E+03  0.00000000000E+00 0.  1.
<mgrwt>
<rscale>  0 0.37218946E+04</rscale>
<asrwt>0</asrwt>
<pdfrwt beam="1">  1        2 0.25418910E+00 0.37218946E+04</pdfrwt>
<pdfrwt beam="2">  1       -1 0.32246643E+00 0.37218946E+04</pdfrwt>
<totfact> 0.22583637E-01</totfact>
</mgrwt>
</event>
<event>
12    6  0.1556619E-007  0.1694432E+04  0.7818608E-02  0.8764547E-01
         -1   -1    0    0    0  501 -0.00000000000E+00  0.00000000000E+00  0.32396937089E+03  0.32396937089E+03  0.00000000000E+00 0.  1.
          2   -1    0    0  501    0  0.00000000000E+00 -0.00000000000E+00 -0.22155630167E+04  0.22155630167E+04  0.00000000000E+00 0. -1.
         24    2    1    2    0    0 -0.35124856166E+03 -0.91142360930E+02  0.44890026103E+02  0.37430800989E+03  0.80055541966E+02 0.  0.
        254    2    1    2    0    0  0.35124856166E+03  0.91142360930E+02 -0.19364836720E+04  0.21652243778E+04  0.89807856684E+03 0.  0.
         23    2    4    4    0    0  0.52109958426E+03 -0.23025144184E+03 -0.13452825330E+04  0.14639475853E+04  0.93791980689E+02 0.  0.
         23    2    4    4    0    0 -0.16985102260E+03  0.32139380277E+03 -0.59120113895E+03  0.70127679247E+03  0.10063302950E+03 0.  0.
          4    1    3    3  502    0 -0.70834293705E+02 -0.53033061030E+02  0.65295317040E+01  0.88727884632E+02  0.00000000000E+00 0. -1.
         -3    1    3    3    0  502 -0.28041426795E+03 -0.38109299900E+02  0.38360494399E+02  0.28558012525E+03  0.00000000000E+00 0.  1.
         11    1    5    5    0    0  0.16761186611E+03 -0.41309837425E+02 -0.33030385377E+03  0.37269407849E+03  0.00000000000E+00 0. -1.
        -11    1    5    5    0    0  0.35348771814E+03 -0.18894160442E+03 -0.10149786792E+04  0.10912535068E+04  0.00000000000E+00 0.  1.
          3    1    6    6  503    0 -0.10640854378E+03  0.15214460456E+03 -0.38254659671E+03  0.42522071627E+03  0.00000000000E+00 0. -1.
         -3    1    6    6    0  503 -0.63442478820E+02  0.16924919821E+03 -0.20865454224E+03  0.27605607621E+03  0.00000000000E+00 0.  1.
<mgrwt>
<rscale>  0 0.16944315E+04</rscale>
<asrwt>0</asrwt>
<pdfrwt beam="1">  1        2 0.34085583E+00 0.16944315E+04</pdfrwt>
<pdfrwt beam="2">  1       -1 0.49841444E-01 0.16944315E+04</pdfrwt>
<totfact> 0.22168040E+01</totfact>
</mgrwt>
</event>
<event>
12    6  0.1556619E-007  0.1517555E+04  0.7818608E-02  0.8872862E-01
          2   -1    0    0  501    0  0.00000000000E+00  0.00000000000E+00  0.14143457567E+04  0.14143457567E+04  0.00000000000E+00 0. -1.
         -1   -1    0    0    0  501 -0.00000000000E+00 -0.00000000000E+00 -0.40707391382E+03  0.40707391382E+03  0.00000000000E+00 0.  1.
         24    2    1    2    0    0  0.18237892101E+03  0.21958977980E+02  0.87650111084E+03  0.90096278502E+03  0.98668511482E+02 0.  0.
        254    2    1    2    0    0 -0.18237892101E+03 -0.21958977980E+02  0.13077073207E+03  0.92045688552E+03  0.89241001014E+03 0.  0.
         23    2    4    4    0    0  0.16714126605E+02 -0.21765917608E+03  0.43647801508E+03  0.49642455257E+03  0.90936240231E+02 0.  0.
         23    2    4    4    0    0 -0.19909304761E+03  0.19570019810E+03 -0.30570728301E+03  0.42403233295E+03  0.91705328928E+02 0.  0.
          2    1    3    3  502    0  0.16390738398E+03  0.43509955190E+02  0.82410493853E+03  0.84137250754E+03  0.00000000000E+00 0. -1.
         -1    1    3    3    0  502  0.18471537031E+02 -0.21550977210E+02  0.52396172302E+02  0.59590277486E+02  0.00000000000E+00 0.  1.
         11    1    5    5    0    0  0.22291295096E+02 -0.19535066604E+03  0.42954622037E+03  0.47240738774E+03  0.00000000000E+00 0.  1.
        -11    1    5    5    0    0 -0.55771684910E+01 -0.22308510039E+02  0.69317947115E+01  0.24017164830E+02  0.00000000000E+00 0. -1.
          4    1    6    6  503    0  0.89557969799E+01  0.18224701990E+02 -0.23692535191E+02  0.31203882546E+02  0.00000000000E+00 0. -1.
         -4    1    6    6    0  503 -0.20804884459E+03  0.17747549611E+03 -0.28201474782E+03  0.39282845040E+03  0.00000000000E+00 0.  1.
<mgrwt>
<rscale>  0 0.15175550E+04</rscale>
<asrwt>0</asrwt>
<pdfrwt beam="1">  1        2 0.21759165E+00 0.15175550E+04</pdfrwt>
<pdfrwt beam="2">  1       -1 0.62626757E-01 0.15175550E+04</pdfrwt>
<totfact> 0.40380961E+01</totfact>
</mgrwt>
</event>
<event>
12    6  0.1556619E-007  0.1584309E+04  0.7818608E-02  0.8830246E-01
          2   -1    0    0  501    0  0.00000000000E+00  0.00000000000E+00  0.72216342471E+03  0.72216342471E+03  0.00000000000E+00 0. -1.
         -1   -1    0    0    0  501 -0.00000000000E+00 -0.00000000000E+00 -0.86892938750E+03  0.86892938750E+03  0.00000000000E+00 0.  1.
         24    2    1    2    0    0 -0.35658080060E+03  0.88436921147E+02  0.32538119041E+03  0.49706953526E+03  0.78957250685E+02 0.  0.
        254    2    1    2    0    0  0.35658080060E+03 -0.88436921147E+02 -0.47214715319E+03  0.10940232770E+04  0.91596563247E+03 0.  0.
         23    2    4    4    0    0 -0.49801689554E+02 -0.40102083820E+03 -0.38604940815E+03  0.56625871824E+03  0.91196872180E+02 0.  0.
         23    2    4    4    0    0  0.40638249015E+03  0.31258391705E+03 -0.86097745042E+02  0.52776455871E+03  0.90924002502E+02 0.  0.
          4    1    3    3  502    0 -0.29089259648E+03  0.39122855909E+02  0.24893598472E+03  0.38486130622E+03  0.00000000000E+00 0. -1.
         -3    1    3    3    0  502 -0.65688204123E+02  0.49314065238E+02  0.76445205692E+02  0.11220822904E+03  0.00000000000E+00 0.  1.
         11    1    5    5    0    0  0.26423512972E+02 -0.10790719367E+03 -0.94092462316E+02  0.14558693605E+03  0.00000000000E+00 0.  1.
        -11    1    5    5    0    0 -0.76225202526E+02 -0.29311364453E+03 -0.29195694584E+03  0.42067178219E+03  0.00000000000E+00 0. -1.
          2    1    6    6  503    0  0.33010434836E+03  0.23460318884E+03 -0.32656164020E+02  0.40629295104E+03  0.00000000000E+00 0. -1.
         -2    1    6    6    0  503  0.76278141797E+02  0.77980728207E+02 -0.53441581022E+02  0.12147160767E+03  0.00000000000E+00 0.  1.
<mgrwt>
<rscale>  0 0.15843093E+04</rscale>
<asrwt>0</asrwt>
<pdfrwt beam="1">  1        2 0.11110207E+00 0.15843093E+04</pdfrwt>
<pdfrwt beam="2">  1       -1 0.13368144E+00 0.15843093E+04</pdfrwt>
<totfact> 0.20397336E+01</totfact>
</mgrwt>
</event>
<event>
12    6  0.1556619E-007  0.1679343E+04  0.7818608E-02  0.8773234E-01
          2   -1    0    0  501    0  0.00000000000E+00  0.00000000000E+00  0.28536478522E+04  0.28536478522E+04  0.00000000000E+00 0. -1.
         -1   -1    0    0    0  501 -0.00000000000E+00 -0.00000000000E+00 -0.24706905808E+03  0.24706905808E+03  0.00000000000E+00 0.  1.
         24    2    1    2    0    0  0.24757047386E+03 -0.45919043333E+03  0.40333667587E+03  0.66415852139E+03  0.79240607296E+02 0.  0.
        254    2    1    2    0    0 -0.24757047386E+03  0.45919043333E+03  0.22032421183E+04  0.24365583889E+04  0.90021883852E+03 0.  0.
         23    2    4    4    0    0 -0.51879646419E+03  0.41394016231E+02  0.99829597013E+03  0.11295745837E+04  0.92090500619E+02 0.  0.
         23    2    4    4    0    0  0.27122599032E+03  0.41779641710E+03  0.12049461482E+04  0.13069838052E+04  0.90521065015E+02 0.  0.
          2    1    3    3  502    0  0.57036500501E+02 -0.83879822354E+02  0.11823964631E+03  0.15578703716E+03  0.00000000000E+00 0. -1.
         -1    1    3    3    0  502  0.19053397336E+03 -0.37531061097E+03  0.28509702956E+03  0.50837148423E+03  0.00000000000E+00 0.  1.
         11    1    5    5    0    0 -0.36121264199E+03 -0.13890528616E+02  0.69003564080E+03  0.77898440619E+03  0.00000000000E+00 0. -1.
        -11    1    5    5    0    0 -0.15758382220E+03  0.55284544847E+02  0.30826032933E+03  0.35059017749E+03  0.00000000000E+00 0.  1.
          1    1    6    6  503    0  0.24408208396E+03  0.40108213137E+03  0.10727333923E+04  0.11709824383E+04  0.00000000000E+00 0. -1.
         -1    1    6    6    0  503  0.27143906369E+02  0.16714285723E+02  0.13221275584E+03  0.13600136694E+03  0.00000000000E+00 0.  1.
<mgrwt>
<rscale>  0 0.16793428E+04</rscale>
<asrwt>0</asrwt>
<pdfrwt beam="1">  1        2 0.43902272E+00 0.16793428E+04</pdfrwt>
<pdfrwt beam="2">  1       -1 0.38010626E-01 0.16793428E+04</pdfrwt>
<totfact> 0.15622966E+01</totfact>
</mgrwt>
</event>
<event>
12    6  0.1556619E-007  0.2881494E+04  0.7818608E-02  0.8278405E-01
          2   -1    0    0  501    0  0.00000000000E+00  0.00000000000E+00  0.29272026544E+04  0.29272026544E+04  0.00000000000E+00 0. -1.
         -1   -1    0    0    0  501 -0.00000000000E+00 -0.00000000000E+00 -0.70912487243E+03  0.70912487243E+03  0.00000000000E+00 0.  1.
         24    2    1    2    0    0 -0.12083221110E+04  0.11665829604E+03  0.15831833257E+04  0.19965997468E+04  0.79307150407E+02 0.  0.
        254    2    1    2    0    0  0.12083221110E+04 -0.11665829604E+03  0.63489445630E+03  0.16397277801E+04  0.90109086121E+03 0.  0.
         23    2    4    4    0    0 -0.12511500868E+03  0.48774321682E+02  0.99050868192E+02  0.19009341352E+03  0.91058945313E+02 0.  0.
         23    2    4    4    0    0  0.13334371197E+04 -0.16543261773E+03  0.53584358810E+03  0.14496343666E+04  0.94281189364E+02 0.  0.
          2    1    3    3  502    0 -0.94023840634E+03  0.59529514499E+02  0.12075075580E+04  0.15315568963E+04  0.00000000000E+00 0. -1.
         -1    1    3    3    0  502 -0.26808370466E+03  0.57128781545E+02  0.37567576766E+03  0.46504285049E+03  0.00000000000E+00 0.  1.
         11    1    5    5    0    0 -0.60480071798E+02  0.18864666942E+02  0.10056534816E+03  0.11885749448E+03  0.00000000000E+00 0.  1.
        -11    1    5    5    0    0 -0.64634936878E+02  0.29909654740E+02 -0.15144799651E+01  0.71235919040E+02  0.00000000000E+00 0. -1.
          1    1    6    6  503    0  0.41718342619E+03 -0.18454455079E+02  0.19713943182E+03  0.46178624230E+03  0.00000000000E+00 0. -1.
         -1    1    6    6    0  503  0.91625369348E+03 -0.14697816265E+03  0.33870415628E+03  0.98784812426E+03  0.00000000000E+00 0.  1.
<mgrwt>
<rscale>  0 0.28814942E+04</rscale>
<asrwt>0</asrwt>
<pdfrwt beam="1">  1        2 0.45033886E+00 0.28814942E+04</pdfrwt>
<pdfrwt beam="2">  1       -1 0.10909614E+00 0.28814942E+04</pdfrwt>
<totfact> 0.14768324E+00</totfact>
</mgrwt>
</event>
<event>
12    6  0.1556619E-007  0.1595484E+04  0.7818608E-02  0.8823327E-01
          2   -1    0    0  501    0  0.00000000000E+00  0.00000000000E+00  0.21730503963E+04  0.21730503963E+04  0.00000000000E+00 0. -1.
         -1   -1    0    0    0  501 -0.00000000000E+00 -0.00000000000E+00 -0.29285676853E+03  0.29285676853E+03  0.00000000000E+00 0.  1.
         24    2    1    2    0    0  0.22561470608E+03 -0.52023451493E+02  0.13841369855E+04  0.14057049535E+04  0.81011027241E+02 0.  0.
        254    2    1    2    0    0 -0.22561470608E+03  0.52023451493E+02  0.49605664230E+03  0.10602022114E+04  0.90793617701E+03 0.  0.
         23    2    4    4    0    0 -0.29243730038E+03 -0.11928456387E+03 -0.16509815555E+03  0.36803182575E+03  0.91878408599E+02 0.  0.
         23    2    4    4    0    0  0.66822594301E+02  0.17130801537E+03  0.66115479785E+03  0.69217038562E+03  0.90346448598E+02 0.  0.
          4    1    3    3  502    0  0.21468605261E+03 -0.65989353557E+02  0.13272057567E+04  0.13460757099E+04  0.00000000000E+00 0. -1.
         -3    1    3    3    0  502  0.10928653465E+02  0.13965902064E+02  0.56931228759E+02  0.59629243623E+02  0.00000000000E+00 0.  1.
         11    1    5    5    0    0 -0.50916452091E+01  0.72152378066E+01  0.58087787036E+01  0.10570071786E+02  0.00000000000E+00 0.  1.
        -11    1    5    5    0    0 -0.28734565517E+03 -0.12649980168E+03 -0.17090693425E+03  0.35746175396E+03  0.00000000000E+00 0. -1.
          4    1    6    6  503    0  0.69651288671E+02  0.13329894397E+03  0.61064565048E+03  0.62889428439E+03  0.00000000000E+00 0. -1.
         -4    1    6    6    0  503 -0.28286943708E+01  0.38009071393E+02  0.50509147365E+02  0.63276101236E+02  0.00000000000E+00 0.  1.
<mgrwt>
<rscale>  0 0.15954843E+04</rscale>
<asrwt>0</asrwt>
<pdfrwt beam="1">  1        2 0.33431544E+00 0.15954843E+04</pdfrwt>
<pdfrwt beam="2">  1       -1 0.45054889E-01 0.15954843E+04</pdfrwt>
<totfact> 0.28565470E+01</totfact>
</mgrwt>
</event>
<event>
12    6  0.1556619E-007  0.1643438E+04  0.7818608E-02  0.8794298E-01
          2   -1    0    0  501    0  0.00000000000E+00  0.00000000000E+00  0.79225455334E+03  0.79225455334E+03  0.00000000000E+00 0. -1.
         -1   -1    0    0    0  501 -0.00000000000E+00 -0.00000000000E+00 -0.85227876452E+03  0.85227876452E+03  0.00000000000E+00 0.  1.
         24    2    1    2    0    0  0.48187904714E+03 -0.96080256918E+02  0.27503107598E+03  0.56856757579E+03  0.78664881907E+02 0.  0.
        254    2    1    2    0    0 -0.48187904714E+03  0.96080256918E+02 -0.33505528717E+03  0.10759657421E+04  0.89666125199E+03 0.  0.
         23    2    4    4    0    0 -0.19179340835E+02 -0.35319532599E+03 -0.70060009796E+02  0.37277987031E+03  0.94560252316E+02 0.  0.
         23    2    4    4    0    0 -0.46269970630E+03  0.44927558291E+03 -0.26499527737E+03  0.70318587176E+03  0.91149907288E+02 0.  0.
          4    1    3    3  502    0  0.38582335778E+03 -0.53246828224E+02  0.19016994897E+03  0.43342761520E+03  0.00000000000E+00 0. -1.
         -3    1    3    3    0  502  0.96055689360E+02 -0.42833428694E+02  0.84861127010E+02  0.13513996059E+03  0.00000000000E+00 0.  1.
         11    1    5    5    0    0 -0.50206552658E+02 -0.28159730882E+03 -0.38541203556E+02  0.28862287961E+03  0.00000000000E+00 0. -1.
        -11    1    5    5    0    0  0.31027211822E+02 -0.71598017176E+02 -0.31518806240E+02  0.84156990701E+02  0.00000000000E+00 0.  1.
          3    1    6    6  503    0 -0.17606269389E+03  0.19430386047E+03 -0.15283323596E+03  0.30349639271E+03  0.00000000000E+00 0. -1.
         -3    1    6    6    0  503 -0.28663701241E+03  0.25497172244E+03 -0.11216204141E+03  0.39968947905E+03  0.00000000000E+00 0.  1.
<mgrwt>
<rscale>  0 0.16434375E+04</rscale>
<asrwt>0</asrwt>
<pdfrwt beam="1">  1        2 0.12188532E+00 0.16434375E+04</pdfrwt>
<pdfrwt beam="2">  1       -1 0.13111981E+00 0.16434375E+04</pdfrwt>
<totfact> 0.18897971E+01</totfact>
</mgrwt>
</event>
<event>
12    6  0.1556619E-007  0.1691502E+04  0.7818608E-02  0.8766226E-01
          2   -1    0    0  501    0  0.00000000000E+00  0.00000000000E+00  0.11353922996E+04  0.11353922996E+04  0.00000000000E+00 0. -1.
         -1   -1    0    0    0  501 -0.00000000000E+00 -0.00000000000E+00 -0.62999784605E+03  0.62999784605E+03  0.00000000000E+00 0.  1.
         24    2    1    2    0    0  0.46895022658E+03  0.70449493090E+02 -0.20528148555E+03  0.52285671786E+03  0.79757212949E+02 0.  0.
        254    2    1    2    0    0 -0.46895022658E+03 -0.70449493090E+02  0.71067593908E+03  0.12425334278E+04  0.90219265274E+03 0.  0.
         23    2    4    4    0    0  0.16918591907E+03  0.92104423066E+02  0.50265523358E+03  0.54577817472E+03  0.90024619965E+02 0.  0.
         23    2    4    4    0    0 -0.63813614565E+03 -0.16255391616E+03  0.20802070550E+03  0.69675525305E+03  0.92486500062E+02 0.  0.
          4    1    3    3  502    0  0.21821453946E+02 -0.99312631102E+01  0.83308812591E+00  0.23989578469E+02  0.00000000000E+00 0. -1.
         -3    1    3    3    0  502  0.44712877263E+03  0.80380756201E+02 -0.20611457367E+03  0.49886713939E+03  0.00000000000E+00 0.  1.
         11    1    5    5    0    0  0.43432589649E+02 -0.99168912231E+01  0.62277996212E+02  0.76572079685E+02  0.00000000000E+00 0. -1.
        -11    1    5    5    0    0  0.12575332942E+03  0.10202131429E+03  0.44037723737E+03  0.46920609504E+03  0.00000000000E+00 0.  1.
          3    1    6    6  503    0 -0.37839417451E+03 -0.75932851759E+02  0.16441440852E+03  0.41949975805E+03  0.00000000000E+00 0. -1.
         -3    1    6    6    0  503 -0.25974197114E+03 -0.86621064397E+02  0.43606296984E+02  0.27725549500E+03  0.00000000000E+00 0.  1.
<mgrwt>
<rscale>  0 0.16915019E+04</rscale>
<asrwt>0</asrwt>
<pdfrwt beam="1">  1        2 0.17467574E+00 0.16915019E+04</pdfrwt>
<pdfrwt beam="2">  1       -1 0.96922746E-01 0.16915019E+04</pdfrwt>
<totfact> 0.23033811E+01</totfact>
</mgrwt>
</event>
<event>
12    6  0.1556619E-007  0.1666306E+04  0.7818608E-02  0.8780818E-01
          2   -1    0    0  501    0  0.00000000000E+00  0.00000000000E+00  0.68819989283E+03  0.68819989283E+03  0.00000000000E+00 0. -1.
         -1   -1    0    0    0  501 -0.00000000000E+00 -0.00000000000E+00 -0.10086376476E+04  0.10086376476E+04  0.00000000000E+00 0.  1.
         24    2    1    2    0    0 -0.36679472166E+03 -0.39280210954E+03  0.81369946138E+02  0.54922737243E+03  0.78725938535E+02 0.  0.
        254    2    1    2    0    0  0.36679472166E+03  0.39280210954E+03 -0.40180770093E+03  0.11476101680E+04  0.93098217177E+03 0.  0.
         23    2    4    4    0    0  0.25855456055E+03  0.67214826388E+03 -0.41040321894E+03  0.83359186017E+03  0.88378944344E+02 0.  0.
         23    2    4    4    0    0  0.10824016110E+03 -0.27934615434E+03  0.85955180061E+01  0.31401830786E+03  0.93719839525E+02 0.  0.
          4    1    3    3  502    0 -0.36605907491E+03 -0.39426593768E+03  0.75669512340E+02  0.54329619089E+03  0.00000000000E+00 0. -1.
         -1    1    3    3    0  502 -0.73564675143E+00  0.14638281443E+01  0.57004337975E+01  0.59311815399E+01  0.00000000000E+00 0.  1.
         11    1    5    5    0    0  0.18879853308E+03  0.44438821645E+03 -0.23016909059E+03  0.53488651439E+03  0.00000000000E+00 0. -1.
        -11    1    5    5    0    0  0.69756027468E+02  0.22776004743E+03 -0.18023412835E+03  0.29870534578E+03  0.00000000000E+00 0.  1.
          1    1    6    6  503    0  0.10641358041E+03 -0.28391511065E+03  0.17647435175E+02  0.30371544597E+03  0.00000000000E+00 0. -1.
         -1    1    6    6    0  503  0.18265806962E+01  0.45689563077E+01 -0.90519171689E+01  0.10302861894E+02  0.00000000000E+00 0.  1.
<mgrwt>
<rscale>  0 0.16663065E+04</rscale>
<asrwt>0</asrwt>
<pdfrwt beam="1">  1        2 0.10587691E+00 0.16663065E+04</pdfrwt>
<pdfrwt beam="2">  1       -1 0.15517502E+00 0.16663065E+04</pdfrwt>
<totfact> 0.14512115E+01</totfact>
</mgrwt>
</event>
<event>
12    6  0.1556619E-007  0.1849730E+04  0.7818608E-02  0.8680292E-01
          2   -1    0    0  501    0  0.00000000000E+00  0.00000000000E+00  0.97542065910E+03  0.97542065910E+03  0.00000000000E+00 0. -1.
         -1   -1    0    0    0  501 -0.00000000000E+00 -0.00000000000E+00 -0.87692970296E+03  0.87692970296E+03  0.00000000000E+00 0.  1.
         24    2    1    2    0    0  0.37298802609E+03  0.31522288362E+03 -0.46565368642E+03  0.67970594168E+03  0.81739081932E+02 0.  0.
        254    2    1    2    0    0 -0.37298802609E+03 -0.31522288362E+03  0.56414464256E+03  0.11726444204E+04  0.90462711929E+03 0.  0.
         23    2    4    4    0    0 -0.48470608262E+03 -0.19808243870E+03 -0.46879685640E+02  0.53362884957E+03  0.91571857703E+02 0.  0.
         23    2    4    4    0    0  0.11171805653E+03 -0.11714044492E+03  0.61102432820E+03  0.63901557081E+03  0.93740930699E+02 0.  0.
          4    1    3    3  502    0  0.31873458939E+02  0.47314357788E+02 -0.86426108035E+02  0.10355693114E+03  0.00000000000E+00 0. -1.
         -3    1    3    3    0  502  0.34111456715E+03  0.26790852583E+03 -0.37922757839E+03  0.57614901054E+03  0.00000000000E+00 0.  1.
         11    1    5    5    0    0 -0.73665123000E+02  0.28675623638E+01 -0.19458126349E+00  0.73721171466E+02  0.00000000000E+00 0. -1.
        -11    1    5    5    0    0 -0.41104095962E+03 -0.20095000106E+03 -0.46685104376E+02  0.45990767811E+03  0.00000000000E+00 0.  1.
          3    1    6    6  503    0  0.11294756655E+03 -0.87044674377E+02  0.37710805073E+03  0.40316796754E+03  0.00000000000E+00 0. -1.
         -3    1    6    6    0  503 -0.12295100200E+01 -0.30095770543E+02  0.23391627747E+03  0.23584760326E+03  0.00000000000E+00 0.  1.
<mgrwt>
<rscale>  0 0.18497301E+04</rscale>
<asrwt>0</asrwt>
<pdfrwt beam="1">  1        2 0.15006472E+00 0.18497301E+04</pdfrwt>
<pdfrwt beam="2">  1       -1 0.13491226E+00 0.18497301E+04</pdfrwt>
<totfact> 0.12935136E+01</totfact>
</mgrwt>
</event>
<event>
12    6  0.1556619E-007  0.1816598E+04  0.7818608E-02  0.8697522E-01
          2   -1    0    0  501    0  0.00000000000E+00  0.00000000000E+00  0.75581281441E+03  0.75581281441E+03  0.00000000000E+00 0. -1.
         -1   -1    0    0    0  501 -0.00000000000E+00 -0.00000000000E+00 -0.10915493397E+04  0.10915493397E+04  0.00000000000E+00 0.  1.
         24    2    1    2    0    0  0.15395701292E+03  0.33807072464E+03 -0.71727900892E+03  0.81178275039E+03  0.80668956186E+02 0.  0.
        254    2    1    2    0    0 -0.15395701292E+03 -0.33807072464E+03  0.38154248365E+03  0.10355794037E+04  0.88817535312E+03 0.  0.
         23    2    4    4    0    0 -0.24911383621E+03 -0.37719661976E+03  0.61205958954E+03  0.76644958018E+03  0.92157606644E+02 0.  0.
         23    2    4    4    0    0  0.95156823281E+02  0.39125895115E+02 -0.23051710589E+03  0.26912982354E+03  0.93311677335E+02 0.  0.
          2    1    3    3  502    0 -0.27611992006E+01  0.36970067639E+02 -0.42226466494E+02  0.56191499311E+02  0.00000000000E+00 0. -1.
         -1    1    3    3    0  502  0.15671821213E+03  0.30110065700E+03 -0.67505254243E+03  0.75559125107E+03  0.00000000000E+00 0.  1.
         11    1    5    5    0    0 -0.23897388966E+03 -0.37419936944E+03  0.56693888232E+03  0.72010650900E+03  0.00000000000E+00 0. -1.
        -11    1    5    5    0    0 -0.10139946550E+02 -0.29972503139E+01  0.45120707221E+02  0.46343071172E+02  0.00000000000E+00 0.  1.
          3    1    6    6  503    0  0.47195380617E+02  0.33264498714E+02 -0.34536550662E+02  0.67280785949E+02  0.00000000000E+00 0. -1.
         -3    1    6    6    0  503  0.47961442665E+02  0.58613964007E+01 -0.19598055523E+03  0.20184903759E+03  0.00000000000E+00 0.  1.
<mgrwt>
<rscale>  0 0.18165979E+04</rscale>
<asrwt>0</asrwt>
<pdfrwt beam="1">  1        2 0.11627889E+00 0.18165979E+04</pdfrwt>
<pdfrwt beam="2">  1       -1 0.16793067E+00 0.18165979E+04</pdfrwt>
<totfact> 0.10184230E+01</totfact>
</mgrwt>
</event>
<event>
12    6  0.1556619E-007  0.2744021E+04  0.7818608E-02  0.8320861E-01
         -1   -1    0    0    0  501 -0.00000000000E+00  0.00000000000E+00  0.12002212867E+04  0.12002212867E+04  0.00000000000E+00 0.  1.
          2   -1    0    0  501    0  0.00000000000E+00 -0.00000000000E+00 -0.15683879284E+04  0.15683879284E+04  0.00000000000E+00 0. -1.
         24    2    1    2    0    0  0.75708830933E+03  0.88415617797E+03 -0.55393335479E+03  0.12915916358E+04  0.80323950065E+02 0.  0.
        254    2    1    2    0    0 -0.75708830933E+03 -0.88415617797E+03  0.18576671306E+03  0.14770175793E+04  0.89003191100E+03 0.  0.
         23    2    4    4    0    0 -0.43198588796E+03 -0.27774931337E+03  0.49285325712E+03  0.71816265398E+03  0.95377020463E+02 0.  0.
         23    2    4    4    0    0 -0.32510242136E+03 -0.60640686460E+03 -0.30708654406E+03  0.75885492528E+03  0.90209657298E+02 0.  0.
          4    1    3    3  502    0  0.45353886775E+03  0.57840503023E+03 -0.32441516166E+03  0.80342708485E+03  0.00000000000E+00 0. -1.
         -3    1    3    3    0  502  0.30354944158E+03  0.30575114774E+03 -0.22951819312E+03  0.48816455095E+03  0.00000000000E+00 0.  1.
         11    1    5    5    0    0 -0.18580460632E+03 -0.10493319466E+03  0.26825841519E+03  0.34277821458E+03  0.00000000000E+00 0.  1.
        -11    1    5    5    0    0 -0.24618128165E+03 -0.17281611871E+03  0.22459484194E+03  0.37538443940E+03  0.00000000000E+00 0. -1.
          2    1    6    6  503    0 -0.29125090962E+02 -0.15438231517E+02 -0.12938706142E+02  0.35412145268E+02  0.00000000000E+00 0. -1.
         -2    1    6    6    0  503 -0.29597733040E+03 -0.59096863309E+03 -0.29414783792E+03  0.72344278002E+03  0.00000000000E+00 0.  1.
<mgrwt>
<rscale>  0 0.27440208E+04</rscale>
<asrwt>0</asrwt>
<pdfrwt beam="1">  1        2 0.24129045E+00 0.27440208E+04</pdfrwt>
<pdfrwt beam="2">  1       -1 0.18464943E+00 0.27440208E+04</pdfrwt>
<totfact> 0.22290405E+00</totfact>
</mgrwt>
</event>
<event>
12    6  0.1556619E-007  0.1717867E+04  0.7818608E-02  0.8751240E-01
         -1   -1    0    0    0  501 -0.00000000000E+00  0.00000000000E+00  0.31342190722E+03  0.31342190722E+03  0.00000000000E+00 0.  1.
          2   -1    0    0  501    0  0.00000000000E+00 -0.00000000000E+00 -0.23539080627E+04  0.23539080627E+04  0.00000000000E+00 0. -1.
         24    2    1    2    0    0  0.49747281842E+03  0.32079313479E+03 -0.51369828557E+03  0.78769547001E+03  0.78681538376E+02 0.  0.
        254    2    1    2    0    0 -0.49747281842E+03 -0.32079313479E+03 -0.15267878699E+04  0.18796344999E+04  0.92279857667E+03 0.  0.
         23    2    4    4    0    0 -0.30011347111E+03 -0.52774153472E+03 -0.14393926028E+04  0.15648566624E+04  0.91356914044E+02 0.  0.
         23    2    4    4    0    0 -0.19735934731E+03  0.20694839993E+03 -0.87395267035E+02  0.31477783747E+03  0.98330066905E+02 0.  0.
          4    1    3    3  502    0  0.31634033000E+02  0.18033516233E+01 -0.37540684309E+02  0.49125015006E+02  0.00000000000E+00 0. -1.
         -3    1    3    3    0  502  0.46583878542E+03  0.31898978317E+03 -0.47615760126E+03  0.73857045501E+03  0.00000000000E+00 0.  1.
         11    1    5    5    0    0 -0.13876836051E+02 -0.15285792431E+02 -0.10588188581E+03  0.10787583497E+03  0.00000000000E+00 0. -1.
        -11    1    5    5    0    0 -0.28623663506E+03 -0.51245574229E+03 -0.13335107170E+04  0.14569808274E+04  0.00000000000E+00 0.  1.
          3    1    6    6  503    0 -0.87786976817E+01 -0.10567282433E+02  0.59104657386E+00  0.13750720965E+02  0.00000000000E+00 0. -1.
         -3    1    6    6    0  503 -0.18858064963E+03  0.21751568236E+03 -0.87986313608E+02  0.30102711650E+03  0.00000000000E+00 0.  1.
<mgrwt>
<rscale>  0 0.17178665E+04</rscale>
<asrwt>0</asrwt>
<pdfrwt beam="1">  1        2 0.36213971E+00 0.17178665E+04</pdfrwt>
<pdfrwt beam="2">  1       -1 0.48218753E-01 0.17178665E+04</pdfrwt>
<totfact> 0.19675491E+01</totfact>
</mgrwt>
</event>
<event>
12    6  0.1556619E-007  0.2399501E+04  0.7818608E-02  0.8439690E-01
          2   -1    0    0  501    0  0.00000000000E+00  0.00000000000E+00  0.30027220371E+04  0.30027220371E+04  0.00000000000E+00 0. -1.
         -1   -1    0    0    0  501 -0.00000000000E+00 -0.00000000000E+00 -0.47936566091E+03  0.47936566091E+03  0.00000000000E+00 0.  1.
         24    2    1    2    0    0 -0.24220089702E+02  0.10495040586E+03 -0.39729007729E+03  0.41950775712E+03  0.80908295854E+02 0.  0.
        254    2    1    2    0    0  0.24220089702E+02 -0.10495040586E+03  0.29206464535E+04  0.30625799409E+04  0.91521526848E+03 0.  0.
         23    2    4    4    0    0  0.13699753844E+03 -0.41075668934E+03  0.24082151529E+04  0.24485117470E+04  0.90665148698E+02 0.  0.
         23    2    4    4    0    0 -0.11277744874E+03  0.30580628348E+03  0.51243130063E+03  0.61406819393E+03  0.90871739098E+02 0.  0.
          2    1    3    3  502    0  0.74856423167E+01  0.29958670842E+02 -0.29126764092E+02  0.42449089342E+02  0.00000000000E+00 0. -1.
         -3    1    3    3    0  502 -0.31705732019E+02  0.74991735019E+02 -0.36816331320E+03  0.37705866778E+03  0.00000000000E+00 0.  1.
         11    1    5    5    0    0  0.59883092108E+02 -0.96806105656E+02  0.80688712093E+03  0.81487682059E+03  0.00000000000E+00 0. -1.
        -11    1    5    5    0    0  0.77114446333E+02 -0.31395058369E+03  0.16013280319E+04  0.16336349264E+04  0.00000000000E+00 0.  1.
          3    1    6    6  503    0 -0.39710167795E+02  0.24088121124E+02  0.56156383831E+02  0.72874374443E+02  0.00000000000E+00 0. -1.
         -3    1    6    6    0  503 -0.73067280944E+02  0.28171816236E+03  0.45627491680E+03  0.54119381949E+03  0.00000000000E+00 0.  1.
<mgrwt>
<rscale>  0 0.23995015E+04</rscale>
<asrwt>0</asrwt>
<pdfrwt beam="1">  1        2 0.46195723E+00 0.23995015E+04</pdfrwt>
<pdfrwt beam="2">  1       -1 0.73748565E-01 0.23995015E+04</pdfrwt>
<totfact> 0.32868352E+00</totfact>
</mgrwt>
</event>
<event>
12    6  0.1556619E-007  0.3415440E+04  0.7818608E-02  0.8134127E-01
          2   -1    0    0  501    0  0.00000000000E+00  0.00000000000E+00  0.16370718801E+04  0.16370718801E+04  0.00000000000E+00 0. -1.
         -1   -1    0    0    0  501 -0.00000000000E+00 -0.00000000000E+00 -0.17814166805E+04  0.17814166805E+04  0.00000000000E+00 0.  1.
         24    2    1    2    0    0 -0.24076603987E+03  0.67107350236E+03 -0.14869734417E+04  0.16509464586E+04  0.78906661845E+02 0.  0.
        254    2    1    2    0    0  0.24076603987E+03 -0.67107350236E+03  0.13426286413E+04  0.17675421020E+04  0.90180124334E+03 0.  0.
         23    2    4    4    0    0 -0.97165068084E+02  0.38657405952E+02  0.79045560314E+03  0.80257080421E+03  0.91457037633E+02 0.  0.
         23    2    4    4    0    0  0.33793110795E+03 -0.70973090831E+03  0.55217303811E+03  0.96497129779E+03  0.91428363235E+02 0.  0.
          4    1    3    3  502    0 -0.10338472144E+03  0.33143251925E+03 -0.63938873557E+03  0.72756709012E+03  0.00000000000E+00 0. -1.
         -3    1    3    3    0  502 -0.13738131843E+03  0.33964098311E+03 -0.84758470610E+03  0.92337936845E+03  0.00000000000E+00 0.  1.
         11    1    5    5    0    0 -0.95856474773E+02  0.53201460731E+02  0.76799584198E+03  0.77578120142E+03  0.00000000000E+00 0. -1.
        -11    1    5    5    0    0 -0.13085933104E+01 -0.14544054778E+02  0.22459761162E+02  0.26789602784E+02  0.00000000000E+00 0.  1.
          3    1    6    6  503    0  0.26303457336E+03 -0.47977266548E+03  0.41678095007E+03  0.68780473804E+03  0.00000000000E+00 0. -1.
         -3    1    6    6    0  503  0.74896534587E+02 -0.22995824283E+03  0.13539208804E+03  0.27716655974E+03  0.00000000000E+00 0.  1.
<mgrwt>
<rscale>  0 0.34154397E+04</rscale>
<asrwt>0</asrwt>
<pdfrwt beam="1">  1        2 0.25185721E+00 0.34154397E+04</pdfrwt>
<pdfrwt beam="2">  1       -1 0.27406410E+00 0.34154397E+04</pdfrwt>
<totfact> 0.48688262E-01</totfact>
</mgrwt>
</event>
<event>
12    6  0.1556619E-007  0.2778690E+04  0.7818608E-02  0.8309915E-01
          2   -1    0    0  501    0  0.00000000000E+00  0.00000000000E+00  0.28086807409E+04  0.28086807409E+04  0.00000000000E+00 0. -1.
         -1   -1    0    0    0  501 -0.00000000000E+00 -0.00000000000E+00 -0.68725492510E+03  0.68725492510E+03  0.00000000000E+00 0.  1.
         24    2    1    2    0    0  0.27823034703E+03 -0.76328869522E+03 -0.25155021835E+03  0.85416081534E+03  0.79318521500E+02 0.  0.
        254    2    1    2    0    0 -0.27823034703E+03  0.76328869522E+03  0.23729760342E+04  0.26417748507E+04  0.82941988442E+03 0.  0.
         23    2    4    4    0    0 -0.36116136734E+03  0.48658489118E+03  0.65358909832E+03  0.89586078502E+03  0.90473460841E+02 0.  0.
         23    2    4    4    0    0  0.82931020310E+02  0.27670380405E+03  0.17193869358E+04  0.17459140656E+04  0.92097449409E+02 0.  0.
          2    1    3    3  502    0  0.47268240209E+02 -0.18343356008E+03 -0.88356653007E+02  0.20901927095E+03  0.00000000000E+00 0. -1.
         -1    1    3    3    0  502  0.23096210682E+03 -0.57985513514E+03 -0.16319356534E+03  0.64514154439E+03  0.00000000000E+00 0.  1.
         11    1    5    5    0    0 -0.14312940619E+02  0.65545956079E+02  0.76499926770E+02  0.10175151804E+03  0.00000000000E+00 0.  1.
        -11    1    5    5    0    0 -0.34684842672E+03  0.42103893510E+03  0.57708917155E+03  0.79410926698E+03  0.00000000000E+00 0. -1.
          1    1    6    6  503    0  0.99563077350E+02  0.20935326469E+03  0.12328807590E+04  0.12544865729E+04  0.00000000000E+00 0. -1.
         -1    1    6    6    0  503 -0.16632057040E+02  0.67350539360E+02  0.48650617684E+03  0.49142749270E+03  0.00000000000E+00 0.  1.
<mgrwt>
<rscale>  0 0.27786901E+04</rscale>
<asrwt>0</asrwt>
<pdfrwt beam="1">  1        2 0.43210472E+00 0.27786901E+04</pdfrwt>
<pdfrwt beam="2">  1       -1 0.10573153E+00 0.27786901E+04</pdfrwt>
<totfact> 0.18954112E+00</totfact>
</mgrwt>
</event>
<event>
12    6  0.1556619E-007  0.3236718E+04  0.7818608E-02  0.8179187E-01
          2   -1    0    0  501    0  0.00000000000E+00  0.00000000000E+00  0.16346264530E+04  0.16346264530E+04  0.00000000000E+00 0. -1.
         -1   -1    0    0    0  501 -0.00000000000E+00 -0.00000000000E+00 -0.16022529909E+04  0.16022529909E+04  0.00000000000E+00 0.  1.
         24    2    1    2    0    0  0.94856909907E+03 -0.79955611389E+03  0.84473175893E+03  0.15030437709E+04  0.80594775520E+02 0.  0.
        254    2    1    2    0    0 -0.94856909907E+03  0.79955611389E+03 -0.81235829678E+03  0.17338356730E+04  0.89843576488E+03 0.  0.
         23    2    4    4    0    0 -0.60397194992E+03 -0.44819697875E+02 -0.27573107722E+03  0.67161838640E+03  0.90844418627E+02 0.  0.
         23    2    4    4    0    0 -0.34459714915E+03  0.84437581177E+03 -0.53662721956E+03  0.10622172866E+04  0.92839024441E+02 0.  0.
          4    1    3    3  502    0  0.82177689488E+03 -0.66860052581E+03  0.69364311933E+03  0.12662877655E+04  0.00000000000E+00 0. -1.
         -3    1    3    3    0  502  0.12679220419E+03 -0.13095558808E+03  0.15108863960E+03  0.23675600544E+03  0.00000000000E+00 0.  1.
         11    1    5    5    0    0 -0.53749041085E+03 -0.17169596035E+02 -0.26249423911E+03  0.59840952729E+03  0.00000000000E+00 0. -1.
        -11    1    5    5    0    0 -0.66481539078E+02 -0.27650101840E+02 -0.13236838106E+02  0.73208859115E+02  0.00000000000E+00 0.  1.
          3    1    6    6  503    0 -0.34865032277E+03  0.84158302039E+03 -0.52981715718E+03  0.10538146174E+04  0.00000000000E+00 0. -1.
         -3    1    6    6    0  503  0.40531736231E+01  0.27927913754E+01 -0.68100623791E+01  0.84026692004E+01  0.00000000000E+00 0.  1.
<mgrwt>
<rscale>  0 0.32367175E+04</rscale>
<asrwt>0</asrwt>
<pdfrwt beam="1">  1        2 0.25148099E+00 0.32367175E+04</pdfrwt>
<pdfrwt beam="2">  1       -1 0.24650046E+00 0.32367175E+04</pdfrwt>
<totfact> 0.74903733E-01</totfact>
</mgrwt>
</event>
<event>
12    6  0.1556619E-007  0.1637502E+04  0.7818608E-02  0.8797835E-01
          2   -1    0    0  501    0  0.00000000000E+00  0.00000000000E+00  0.15940623950E+04  0.15940623950E+04  0.00000000000E+00 0. -1.
         -1   -1    0    0    0  501 -0.00000000000E+00 -0.00000000000E+00 -0.42053113125E+03  0.42053113125E+03  0.00000000000E+00 0.  1.
         24    2    1    2    0    0 -0.48032976194E+03 -0.98187019131E+02  0.64200506529E+02  0.50130165790E+03  0.82609177721E+02 0.  0.
        254    2    1    2    0    0  0.48032976194E+03  0.98187019131E+02  0.11093307572E+04  0.15132918684E+04  0.90503048510E+03 0.  0.
         23    2    4    4    0    0  0.53987931266E+03  0.38612240459E+03  0.96103300438E+03  0.11717004896E+04  0.93474157781E+02 0.  0.
         23    2    4    4    0    0 -0.59549550711E+02 -0.28793538546E+03  0.14829775285E+03  0.34159137880E+03  0.90771754295E+02 0.  0.
          4    1    3    3  502    0 -0.76406924737E+02 -0.40848407677E+02  0.30847273191E+02  0.91968281602E+02  0.00000000000E+00 0. -1.
         -3    1    3    3    0  502 -0.40392283721E+03 -0.57338611455E+02  0.33353233338E+02  0.40933337630E+03  0.00000000000E+00 0.  1.
         11    1    5    5    0    0  0.40949683642E+03  0.32300111490E+03  0.69689094569E+03  0.87044492614E+03  0.00000000000E+00 0. -1.
        -11    1    5    5    0    0  0.13038247624E+03  0.63121289688E+02  0.26414205869E+03  0.30125556342E+03  0.00000000000E+00 0.  1.
          2    1    6    6  503    0  0.10970425093E+02 -0.22869880589E+02  0.38587986233E+02  0.46178072138E+02  0.00000000000E+00 0. -1.
         -2    1    6    6    0  503 -0.70519975804E+02 -0.26506550487E+03  0.10970976662E+03  0.29541330666E+03  0.00000000000E+00 0.  1.
<mgrwt>
<rscale>  0 0.16375016E+04</rscale>
<asrwt>0</asrwt>
<pdfrwt beam="1">  1        2 0.24524036E+00 0.16375016E+04</pdfrwt>
<pdfrwt beam="2">  1       -1 0.64697098E-01 0.16375016E+04</pdfrwt>
<totfact> 0.29655189E+01</totfact>
</mgrwt>
</event>
<event>
12    6  0.1556619E-007  0.1778489E+04  0.7818608E-02  0.8717823E-01
          2   -1    0    0  501    0  0.00000000000E+00  0.00000000000E+00  0.40010971056E+03  0.40010971056E+03  0.00000000000E+00 0. -1.
         -1   -1    0    0    0  501 -0.00000000000E+00 -0.00000000000E+00 -0.19763477420E+04  0.19763477420E+04  0.00000000000E+00 0.  1.
         24    2    1    2    0    0  0.50079067942E+02 -0.65613564652E+03 -0.61274364270E+03  0.90248084108E+03  0.77427367034E+02 0.  0.
        254    2    1    2    0    0 -0.50079067942E+02  0.65613564652E+03 -0.96349438873E+03  0.14739766115E+04  0.90070178991E+03 0.  0.
         23    2    4    4    0    0 -0.41196016562E+03  0.56832407586E+03 -0.76296526134E+03  0.10413969974E+04  0.98429075958E+02 0.  0.
         23    2    4    4    0    0  0.36188109768E+03  0.87811570664E+02 -0.20052912739E+03  0.43257961403E+03  0.90798627429E+02 0.  0.
          4    1    3    3  502    0  0.35904015926E+01 -0.32925929849E+02 -0.58250415725E+02  0.67008348526E+02  0.00000000000E+00 0. -1.
         -1    1    3    3    0  502  0.46488666350E+02 -0.62320971667E+03 -0.55449322697E+03  0.83547249255E+03  0.00000000000E+00 0.  1.
         11    1    5    5    0    0 -0.42171518878E+02  0.22223339122E+02 -0.70599715056E+02  0.85185876600E+02  0.00000000000E+00 0. -1.
        -11    1    5    5    0    0 -0.36978864675E+03  0.54610073674E+03 -0.69236554628E+03  0.95621112083E+03  0.00000000000E+00 0.  1.
          3    1    6    6  503    0  0.46328451230E+02  0.30334051027E+01  0.48028914788E+01  0.46675418654E+02  0.00000000000E+00 0. -1.
         -3    1    6    6    0  503  0.31555264645E+03  0.84778165561E+02 -0.20533201887E+03  0.38590419538E+03  0.00000000000E+00 0.  1.
<mgrwt>
<rscale>  0 0.17784892E+04</rscale>
<asrwt>0</asrwt>
<pdfrwt beam="1">  1        2 0.61555340E-01 0.17784892E+04</pdfrwt>
<pdfrwt beam="2">  1       -1 0.30405350E+00 0.17784892E+04</pdfrwt>
<totfact> 0.26755533E+00</totfact>
</mgrwt>
</event>
<event>
12    6  0.1556619E-007  0.1576455E+04  0.7818608E-02  0.8835144E-01
          2   -1    0    0  501    0  0.00000000000E+00  0.00000000000E+00  0.10300490795E+04  0.10300490795E+04  0.00000000000E+00 0. -1.
         -1   -1    0    0    0  501 -0.00000000000E+00 -0.00000000000E+00 -0.60317797941E+03  0.60317797941E+03  0.00000000000E+00 0.  1.
         24    2    1    2    0    0  0.42861609071E+03  0.30176817785E+03  0.71813477719E+02  0.53526567850E+03  0.81094911184E+02 0.  0.
        254    2    1    2    0    0 -0.42861609071E+03 -0.30176817785E+03  0.35505762238E+03  0.10979613804E+04  0.89703817716E+03 0.  0.
         23    2    4    4    0    0  0.23661989525E+02 -0.36106179579E+03 -0.15709513839E+03  0.40469212626E+03  0.90395378334E+02 0.  0.
         23    2    4    4    0    0 -0.45227808024E+03  0.59293617944E+02  0.51215276078E+03  0.69326925415E+03  0.10124531292E+03 0.  0.
          4    1    3    3  502    0  0.53037645479E+02  0.73979587710E+02  0.76692140203E+01  0.91349811600E+02  0.00000000000E+00 0. -1.
         -3    1    3    3    0  502  0.37557844524E+03  0.22778859014E+03  0.64144263699E+02  0.44391586690E+03  0.00000000000E+00 0.  1.
         11    1    5    5    0    0  0.23551181692E+01  0.49737799294E+01 -0.59522835781E+01  0.81064633578E+01  0.00000000000E+00 0. -1.
        -11    1    5    5    0    0  0.21306871356E+02 -0.36603557572E+03 -0.15114285481E+03  0.39658566291E+03  0.00000000000E+00 0.  1.
          4    1    6    6  503    0 -0.24721273209E+03  0.91286368508E+01  0.34217071365E+03  0.42223010811E+03  0.00000000000E+00 0. -1.
         -4    1    6    6    0  503 -0.20506534815E+03  0.50164981093E+02  0.16998204713E+03  0.27103914604E+03  0.00000000000E+00 0.  1.
<mgrwt>
<rscale>  0 0.15764554E+04</rscale>
<asrwt>0</asrwt>
<pdfrwt beam="1">  1        2 0.15846909E+00 0.15764554E+04</pdfrwt>
<pdfrwt beam="2">  1       -1 0.92796612E-01 0.15764554E+04</pdfrwt>
<totfact> 0.29812318E+01</totfact>
</mgrwt>
</event>
<event>
12    6  0.1556619E-007  0.2071733E+04  0.7818608E-02  0.8573798E-01
         -1   -1    0    0    0  501 -0.00000000000E+00  0.00000000000E+00  0.76700587434E+03  0.76700587434E+03  0.00000000000E+00 0.  1.
          2   -1    0    0  501    0  0.00000000000E+00 -0.00000000000E+00 -0.13989713922E+04  0.13989713922E+04  0.00000000000E+00 0. -1.
         24    2    1    2    0    0 -0.57957759118E+03 -0.36231459804E+03  0.25780490923E+03  0.73478519360E+03  0.79144534582E+02 0.  0.
        254    2    1    2    0    0  0.57957759118E+03  0.36231459804E+03 -0.88977042714E+03  0.14311920730E+04  0.88850283320E+03 0.  0.
         23    2    4    4    0    0  0.46779527192E+01  0.22701216518E+03  0.10812488231E+03  0.26788230063E+03  0.92268794482E+02 0.  0.
         23    2    4    4    0    0  0.57489963847E+03  0.13530243286E+03 -0.99789530945E+03  0.11633097724E+04  0.93157045791E+02 0.  0.
          2    1    3    3  502    0 -0.40174351843E+03 -0.23522051908E+03  0.13819375050E+03  0.48561719478E+03  0.00000000000E+00 0. -1.
         -1    1    3    3    0  502 -0.17783407276E+03 -0.12709407896E+03  0.11961115873E+03  0.24916799882E+03  0.00000000000E+00 0.  1.
         11    1    5    5    0    0  0.24844591650E+02  0.17204418133E+03  0.11574471321E+03  0.20883795800E+03  0.00000000000E+00 0.  1.
        -11    1    5    5    0    0 -0.20166638931E+02  0.54967983846E+02 -0.76198308993E+01  0.59044342632E+02  0.00000000000E+00 0. -1.
          3    1    6    6  503    0  0.90698457734E+02  0.32888298614E+01 -0.10292254510E+03  0.13722272744E+03  0.00000000000E+00 0. -1.
         -3    1    6    6    0  503  0.48420118073E+03  0.13201360300E+03 -0.89497276436E+03  0.10260870449E+04  0.00000000000E+00 0.  1.
<mgrwt>
<rscale>  0 0.20717329E+04</rscale>
<asrwt>0</asrwt>
<pdfrwt beam="1">  1        2 0.21522637E+00 0.20717329E+04</pdfrwt>
<pdfrwt beam="2">  1       -1 0.11800090E+00 0.20717329E+04</pdfrwt>
<totfact> 0.98387469E+00</totfact>
</mgrwt>
</event>
<event>
12    6  0.1733778E-007  0.1705201E+04  0.7818608E-02  0.8758403E-01
         -1   -1    0    0    0  501 -0.00000000000E+00  0.00000000000E+00  0.64123368096E+03  0.64123368096E+03  0.00000000000E+00 0.  1.
          2   -1    0    0  501    0  0.00000000000E+00 -0.00000000000E+00 -0.11336395522E+04  0.11336395522E+04  0.00000000000E+00 0. -1.
         24    2    1    2    0    0 -0.15694309353E+03  0.65598574082E+00 -0.78316570190E+03  0.80271764680E+03  0.79846971893E+02 0.  0.
        254    2    1    2    0    0  0.15694309353E+03 -0.65598574082E+00  0.29075983068E+03  0.97215558635E+03  0.91428312902E+03 0.  0.
         23    2    4    4    0    0  0.52630207219E+03  0.73059102796E+02  0.19347991180E+03  0.57276310496E+03  0.91058192593E+02 0.  0.
         23    2    4    4    0    0 -0.36935897866E+03 -0.73715088537E+02  0.97279918883E+02  0.39939248139E+03  0.90504155608E+02 0.  0.
          2    1    3    3  502    0 -0.13939816417E+03  0.29070597797E+02 -0.65185324572E+03  0.66722530061E+03  0.00000000000E+00 0. -1.
         -1    1    3    3    0  502 -0.17544929364E+02 -0.28414612056E+02 -0.13131245618E+03  0.13549234618E+03  0.00000000000E+00 0.  1.
         11    1    5    5    0    0  0.56062239199E+02  0.35779623023E+02  0.13400284238E+02  0.67843376283E+02  0.00000000000E+00 0. -1.
        -11    1    5    5    0    0  0.47023983299E+03  0.37279479773E+02  0.18007962756E+03  0.50491972868E+03  0.00000000000E+00 0.  1.
          2    1    6    6  503    0 -0.26470558549E+01  0.66085714615E+01  0.12726616385E+02  0.14582417018E+02  0.00000000000E+00 0. -1.
         -2    1    6    6    0  503 -0.36671192280E+03 -0.80323659999E+02  0.84553302497E+02  0.38481006438E+03  0.00000000000E+00 0.  1.
<mgrwt>
<rscale>  0 0.17052013E+04</rscale>
<asrwt>0</asrwt>
<pdfrwt beam="1">  1        2 0.17440608E+00 0.17052013E+04</pdfrwt>
<pdfrwt beam="2">  1       -1 0.98651336E-01 0.17052013E+04</pdfrwt>
<totfact> 0.22158259E+01</totfact>
</mgrwt>
</event>
<event>
12    6  0.1642700E-007  0.1719020E+04  0.7818608E-02  0.8750591E-01
         -1   -1    0    0    0  501 -0.00000000000E+00  0.00000000000E+00  0.75949056648E+03  0.75949056648E+03  0.00000000000E+00 0.  1.
          2   -1    0    0  501    0  0.00000000000E+00 -0.00000000000E+00 -0.97270079851E+03  0.97270079851E+03  0.00000000000E+00 0. -1.
         24    2    1    2    0    0 -0.31172772669E+02 -0.18527620941E+03 -0.67746737588E+03  0.70694076136E+03  0.74190155421E+02 0.  0.
        254    2    1    2    0    0  0.31172772669E+02  0.18527620941E+03  0.46425714385E+03  0.10252506036E+04  0.89459772473E+03 0.  0.
         23    2    4    4    0    0  0.18559192537E+02 -0.34463062112E+03  0.81761502759E+02  0.36617177717E+03  0.91006144946E+02 0.  0.
         23    2    4    4    0    0  0.12613580132E+02  0.52990683054E+03  0.38249564109E+03  0.65907882646E+03  0.84389765836E+02 0.  0.
          2    1    3    3  502    0 -0.45084491604E+02 -0.17049340011E+03 -0.54221153921E+03  0.57017011857E+03  0.00000000000E+00 0. -1.
         -1    1    3    3    0  502  0.13911718935E+02 -0.14782809306E+02 -0.13525583667E+03  0.13677064279E+03  0.00000000000E+00 0.  1.
         11    1    5    5    0    0  0.32757403900E+02 -0.33992870121E+03  0.74453094167E+02  0.34952515310E+03  0.00000000000E+00 0. -1.
        -11    1    5    5    0    0 -0.14198211363E+02 -0.47019199108E+01  0.73084085914E+01  0.16646624069E+02  0.00000000000E+00 0.  1.
          1    1    6    6  503    0 -0.11980455034E+02  0.48188657140E+03  0.35404211755E+03  0.59808362292E+03  0.00000000000E+00 0. -1.
         -1    1    6    6    0  503  0.24594035167E+02  0.48020259138E+02  0.28453523534E+02  0.60995203541E+02  0.00000000000E+00 0.  1.
<mgrwt>
<rscale>  0 0.17190196E+04</rscale>
<asrwt>0</asrwt>
<pdfrwt beam="1">  1        2 0.14964628E+00 0.17190196E+04</pdfrwt>
<pdfrwt beam="2">  1       -1 0.11684470E+00 0.17190196E+04</pdfrwt>
<totfact> 0.18791168E+01</totfact>
</mgrwt>
</event>
<event>
12    6  0.1556619E-007  0.1627453E+04  0.7818608E-02  0.8803858E-01
          2   -1    0    0  501    0  0.00000000000E+00  0.00000000000E+00  0.99848685471E+03  0.99848685471E+03  0.00000000000E+00 0. -1.
         -1   -1    0    0    0  501 -0.00000000000E+00 -0.00000000000E+00 -0.66315392931E+03  0.66315392931E+03  0.00000000000E+00 0.  1.
         24    2    1    2    0    0 -0.48918238005E+03 -0.27360768542E+03  0.78147296367E+02  0.57109726094E+03  0.76710592776E+02 0.  0.
        254    2    1    2    0    0  0.48918238005E+03  0.27360768542E+03  0.25718562903E+03  0.10905435231E+04  0.89943324459E+03 0.  0.
         23    2    4    4    0    0  0.41542723687E+01 -0.13617867917E+03 -0.23157323408E+03  0.28404826608E+03  0.92170299341E+02 0.  0.
         23    2    4    4    0    0  0.48502810768E+03  0.40978636459E+03  0.48875886312E+03  0.80649525700E+03  0.91499964127E+02 0.  0.
          2    1    3    3  502    0 -0.45526102008E+03 -0.25115887730E+03  0.92208716662E+02  0.52805854361E+03  0.00000000000E+00 0. -1.
         -1    1    3    3    0  502 -0.33921359978E+02 -0.22448808119E+02 -0.14061420295E+02  0.43038717330E+02  0.00000000000E+00 0.  1.
         11    1    5    5    0    0  0.31370967527E+02 -0.56738052710E+02 -0.16371121904E+03  0.17608153642E+03  0.00000000000E+00 0. -1.
        -11    1    5    5    0    0 -0.27216695159E+02 -0.79440626462E+02 -0.67862015043E+02  0.10796672966E+03  0.00000000000E+00 0.  1.
          3    1    6    6  503    0  0.35593594584E+03  0.25915171955E+03  0.37131331632E+03  0.57595450356E+03  0.00000000000E+00 0. -1.
         -3    1    6    6    0  503  0.12909216184E+03  0.15063464504E+03  0.11744554680E+03  0.23054075344E+03  0.00000000000E+00 0.  1.
<mgrwt>
<rscale>  0 0.16274526E+04</rscale>
<asrwt>0</asrwt>
<pdfrwt beam="1">  1        2 0.15361336E+00 0.16274526E+04</pdfrwt>
<pdfrwt beam="2">  1       -1 0.10202368E+00 0.16274526E+04</pdfrwt>
<totfact> 0.25090717E+01</totfact>
</mgrwt>
</event>
<event>
12    6  0.1556619E-007  0.1636834E+04  0.7818608E-02  0.8798234E-01
         -1   -1    0    0    0  501 -0.00000000000E+00  0.00000000000E+00  0.84497821238E+03  0.84497821238E+03  0.00000000000E+00 0.  1.
          2   -1    0    0  501    0  0.00000000000E+00 -0.00000000000E+00 -0.79269054327E+03  0.79269054327E+03  0.00000000000E+00 0. -1.
         24    2    1    2    0    0  0.23941182436E+03  0.34496138522E+03  0.39811276175E+03  0.58419508776E+03  0.80459620681E+02 0.  0.
        254    2    1    2    0    0 -0.23941182436E+03 -0.34496138522E+03 -0.34582509263E+03  0.10534736679E+04  0.90216151287E+03 0.  0.
         23    2    4    4    0    0  0.65026990927E+02  0.10823290537E+03 -0.46211236030E+03  0.48749249726E+03  0.90322920591E+02 0.  0.
         23    2    4    4    0    0 -0.30443881529E+03 -0.45319429059E+03  0.11628726767E+03  0.56598117063E+03  0.93508821012E+02 0.  0.
          2    1    3    3  502    0  0.17360904503E+02  0.33600874981E+02  0.95578674166E+01  0.39009904309E+02  0.00000000000E+00 0. -1.
         -1    1    3    3    0  502  0.22205091986E+03  0.31136051024E+03  0.38855489433E+03  0.54518518345E+03  0.00000000000E+00 0.  1.
         11    1    5    5    0    0  0.43156267192E+01  0.61187976039E+02 -0.99918425628E+02  0.11724455137E+03  0.00000000000E+00 0.  1.
        -11    1    5    5    0    0  0.60711364208E+02  0.47044929331E+02 -0.36219393467E+03  0.37024794589E+03  0.00000000000E+00 0. -1.
          1    1    6    6  503    0 -0.28922460074E+03 -0.40680632933E+03  0.80828958404E+02  0.50564372811E+03  0.00000000000E+00 0. -1.
         -1    1    6    6    0  503 -0.15214214549E+02 -0.46387961260E+02  0.35458309268E+02  0.60337442524E+02  0.00000000000E+00 0.  1.
<mgrwt>
<rscale>  0 0.16368338E+04</rscale>
<asrwt>0</asrwt>
<pdfrwt beam="1">  1        2 0.12195239E+00 0.16368338E+04</pdfrwt>
<pdfrwt beam="2">  1       -1 0.12999665E+00 0.16368338E+04</pdfrwt>
<totfact> 0.19310355E+01</totfact>
</mgrwt>
</event>
<event>
12    6  0.1556619E-007  0.2203015E+04  0.7818608E-02  0.8517174E-01
         -1   -1    0    0    0  501 -0.00000000000E+00  0.00000000000E+00  0.10645495238E+04  0.10645495238E+04  0.00000000000E+00 0.  1.
          2   -1    0    0  501    0  0.00000000000E+00 -0.00000000000E+00 -0.11397488579E+04  0.11397488579E+04  0.00000000000E+00 0. -1.
         24    2    1    2    0    0 -0.69099114644E+03 -0.55148552142E+03 -0.27167004004E+03  0.92836836710E+03  0.80362737454E+02 0.  0.
        254    2    1    2    0    0  0.69099114644E+03  0.55148552142E+03  0.19647070602E+03  0.12759300146E+04  0.89877228431E+03 0.  0.
         23    2    4    4    0    0  0.73228098206E+03  0.68942889648E+03 -0.85199722654E+01  0.10098954520E+04  0.90931810121E+02 0.  0.
         23    2    4    4    0    0 -0.41289835626E+02 -0.13794337505E+03  0.20499067829E+03  0.26603456258E+03  0.89554369279E+02 0.  0.
          4    1    3    3  502    0 -0.30754001362E+03 -0.20416715464E+03 -0.89152233517E+02  0.37975414119E+03  0.00000000000E+00 0. -1.
         -3    1    3    3    0  502 -0.38345113282E+03 -0.34731836679E+03 -0.18251780653E+03  0.54861422591E+03  0.00000000000E+00 0.  1.
         11    1    5    5    0    0  0.59899184552E+03  0.59873024036E+03  0.14485178360E+02  0.84704129304E+03  0.00000000000E+00 0.  1.
        -11    1    5    5    0    0  0.13328913654E+03  0.90698656118E+02 -0.23005150625E+02  0.16285415898E+03  0.00000000000E+00 0. -1.
          3    1    6    6  503    0  0.96790352716E+01 -0.21880250021E+02  0.95758352239E+02  0.98702031835E+02  0.00000000000E+00 0. -1.
         -3    1    6    6    0  503 -0.50968870897E+02 -0.11606312503E+03  0.10923232605E+03  0.16733253075E+03  0.00000000000E+00 0.  1.
<mgrwt>
<rscale>  0 0.22030153E+04</rscale>
<asrwt>0</asrwt>
<pdfrwt beam="1">  1        2 0.17534598E+00 0.22030153E+04</pdfrwt>
<pdfrwt beam="2">  1       -1 0.16377685E+00 0.22030153E+04</pdfrwt>
<totfact> 0.58732815E+00</totfact>
</mgrwt>
</event>
<event>
12    6  0.1556619E-007  0.2301498E+04  0.7818608E-02  0.8477331E-01
          2   -1    0    0  501    0  0.00000000000E+00  0.00000000000E+00  0.29976512969E+04  0.29976512969E+04  0.00000000000E+00 0. -1.
         -1   -1    0    0    0  501 -0.00000000000E+00 -0.00000000000E+00 -0.44175373669E+03  0.44175373669E+03  0.00000000000E+00 0.  1.
         24    2    1    2    0    0 -0.95865763158E+03 -0.12872487488E+03  0.12148275490E+04  0.15542194094E+04  0.64787736479E+02 0.  0.
        254    2    1    2    0    0  0.95865763158E+03  0.12872487488E+03  0.13410700112E+04  0.18851856242E+04  0.90546204484E+03 0.  0.
         23    2    4    4    0    0  0.65993108047E+03 -0.16394213156E+03  0.12802990898E+04  0.14524996870E+04  0.90573330013E+02 0.  0.
         23    2    4    4    0    0  0.29872655112E+03  0.29266700644E+03  0.60770921490E+02  0.43268593718E+03  0.92911174449E+02 0.  0.
          2    1    3    3  502    0 -0.95660885482E+03 -0.12549369734E+03  0.12048863197E+04  0.15435673658E+04  0.00000000000E+00 0. -1.
         -1    1    3    3    0  502 -0.20487767626E+01 -0.32311775453E+01  0.99412292628E+01  0.10652043645E+02  0.00000000000E+00 0.  1.
         11    1    5    5    0    0  0.17120750195E+03 -0.83106395327E+02  0.33576337928E+03  0.38594783136E+03  0.00000000000E+00 0.  1.
        -11    1    5    5    0    0  0.48872357851E+03 -0.80835736232E+02  0.94453571048E+03  0.10665518557E+04  0.00000000000E+00 0. -1.
          4    1    6    6  503    0  0.25156797270E+03  0.28036575873E+03  0.37106683217E+02  0.37850800453E+03  0.00000000000E+00 0. -1.
         -4    1    6    6    0  503  0.47158578412E+02  0.12301247713E+02  0.23664238274E+02  0.54177932650E+02  0.00000000000E+00 0.  1.
<mgrwt>
<rscale>  0 0.23014983E+04</rscale>
<asrwt>0</asrwt>
<pdfrwt beam="1">  1        2 0.46117711E+00 0.23014983E+04</pdfrwt>
<pdfrwt beam="2">  1       -1 0.67962115E-01 0.23014983E+04</pdfrwt>
<totfact> 0.39526642E+00</totfact>
</mgrwt>
</event>
<event>
12    6  0.1556619E-007  0.1856578E+04  0.7818608E-02  0.8676778E-01
         -1   -1    0    0    0  501 -0.00000000000E+00  0.00000000000E+00  0.11051626824E+04  0.11051626824E+04  0.00000000000E+00 0.  1.
          2   -1    0    0  501    0  0.00000000000E+00 -0.00000000000E+00 -0.77972238531E+03  0.77972238531E+03  0.00000000000E+00 0. -1.
         24    2    1    2    0    0  0.65378207749E+03  0.77254131239E+02 -0.11911554274E+03  0.67381582987E+03  0.80249949647E+02 0.  0.
        254    2    1    2    0    0 -0.65378207749E+03 -0.77254131239E+02  0.44455583981E+03  0.12110692378E+04  0.91414418909E+03 0.  0.
         23    2    4    4    0    0  0.20274809240E+03  0.84068827585E+01 -0.35063152615E+02  0.22125832231E+03  0.80921912180E+02 0.  0.
         23    2    4    4    0    0 -0.85653016988E+03 -0.85661013997E+02  0.47961899243E+03  0.98981091551E+03  0.93324859088E+02 0.  0.
          4    1    3    3  502    0  0.51212177833E+03  0.84618047775E+02 -0.70324196096E+02  0.52380761965E+03  0.00000000000E+00 0. -1.
         -3    1    3    3    0  502  0.14166029916E+03 -0.73639165357E+01 -0.48791346645E+02  0.15000821021E+03  0.00000000000E+00 0.  1.
         11    1    5    5    0    0  0.19824888983E+03 -0.39516502900E+01 -0.17140440736E+02  0.19902771809E+03  0.00000000000E+00 0.  1.
        -11    1    5    5    0    0  0.44992025663E+01  0.12358533049E+02 -0.17922711879E+02  0.22230604219E+02  0.00000000000E+00 0. -1.
          2    1    6    6  503    0 -0.40763698489E+03 -0.65946475816E+02  0.18482676958E+03  0.45241328879E+03  0.00000000000E+00 0.  1.
         -2    1    6    6    0  503 -0.44889318500E+03 -0.19714538181E+02  0.29479222285E+03  0.53739762672E+03  0.00000000000E+00 0. -1.
<mgrwt>
<rscale>  0 0.18565776E+04</rscale>
<asrwt>0</asrwt>
<pdfrwt beam="1">  1        2 0.11995729E+00 0.18565776E+04</pdfrwt>
<pdfrwt beam="2">  1       -1 0.17002503E+00 0.18565776E+04</pdfrwt>
<totfact> 0.94036176E+00</totfact>
</mgrwt>
</event>
<event>
12    6  0.1556619E-007  0.1388222E+04  0.7818608E-02  0.8962389E-01
         -3   -1    0    0    0  501 -0.00000000000E+00  0.00000000000E+00  0.34709741041E+03  0.34709741041E+03  0.00000000000E+00 0.  1.
          4   -1    0    0  501    0  0.00000000000E+00 -0.00000000000E+00 -0.13880536913E+04  0.13880536913E+04  0.00000000000E+00 0. -1.
         24    2    1    2    0    0 -0.32473025672E+03 -0.15700698963E+03 -0.48455877805E+03  0.60918174269E+03  0.78767073192E+02 0.  0.
        254    2    1    2    0    0  0.32473025672E+03  0.15700698963E+03 -0.55639750284E+03  0.11259693590E+04  0.91001531959E+03 0.  0.
         23    2    4    4    0    0  0.23451102981E+03  0.19773440190E+03 -0.79226160978E+03  0.85442699822E+03  0.90954495017E+02 0.  0.
         23    2    4    4    0    0  0.90219226907E+02 -0.40727412268E+02  0.23586410694E+03  0.27154236081E+03  0.91132572428E+02 0.  0.
          4    1    3    3  502    0 -0.24016310506E+03 -0.15014767927E+03 -0.39202179539E+03  0.48363594850E+03  0.00000000000E+00 0. -1.
         -3    1    3    3    0  502 -0.84567151659E+02 -0.68593103603E+01 -0.92536982657E+02  0.12554579418E+03  0.00000000000E+00 0.  1.
         11    1    5    5    0    0  0.18659032565E+03  0.10186946236E+03 -0.54032755763E+03  0.58064378626E+03  0.00000000000E+00 0. -1.
        -11    1    5    5    0    0  0.47920704158E+02  0.95864939538E+02 -0.25193405215E+03  0.27378321197E+03  0.00000000000E+00 0.  1.
          1    1    6    6  503    0  0.71452717560E+02 -0.28452643896E+02  0.23692255579E+03  0.24909303731E+03  0.00000000000E+00 0. -1.
         -1    1    6    6    0  503  0.18766509347E+02 -0.12274768372E+02 -0.10584488543E+01  0.22449323501E+02  0.00000000000E+00 0.  1.
<mgrwt>
<rscale>  0 0.13882217E+04</rscale>
<asrwt>0</asrwt>
<pdfrwt beam="1">  1        4 0.21354672E+00 0.13882217E+04</pdfrwt>
<pdfrwt beam="2">  1       -3 0.53399602E-01 0.13882217E+04</pdfrwt>
<totfact> 0.82873957E-01</totfact>
</mgrwt>
</event>
<event>
12    6  0.1556619E-007  0.1178347E+04  0.7818608E-02  0.9132023E-01
          2   -1    0    0  501    0  0.00000000000E+00  0.00000000000E+00  0.27644169394E+04  0.27644169394E+04  0.00000000000E+00 0. -1.
         -1   -1    0    0    0  501 -0.00000000000E+00 -0.00000000000E+00 -0.12556918795E+03  0.12556918795E+03  0.00000000000E+00 0.  1.
         24    2    1    2    0    0 -0.22292489852E+03 -0.63208152523E+02  0.50058161568E+03  0.55728293012E+03  0.79319161156E+02 0.  0.
        254    2    1    2    0    0  0.22292489852E+03  0.63208152523E+02  0.21382661358E+04  0.23327031972E+04  0.90312311343E+03 0.  0.
         23    2    4    4    0    0 -0.32527284653E+03 -0.10083129081E+03  0.79487478153E+03  0.86956061922E+03  0.91325671521E+02 0.  0.
         23    2    4    4    0    0  0.54819774505E+03  0.16403944333E+03  0.13433913542E+04  0.14631425780E+04  0.93038520405E+02 0.  0.
          4    1    3    3  502    0 -0.60009748010E+02  0.33779337298E+01  0.20136343032E+03  0.21014235975E+03  0.00000000000E+00 0. -1.
         -3    1    3    3    0  502 -0.16291515051E+03 -0.66586086253E+02  0.29921818536E+03  0.34714057037E+03  0.00000000000E+00 0.  1.
         11    1    5    5    0    0  0.38499999518E+01 -0.84919269592E+01  0.37101789502E+02  0.38255432390E+02  0.00000000000E+00 0.  1.
        -11    1    5    5    0    0 -0.32912284648E+03 -0.92339363851E+02  0.75777299203E+03  0.83130518683E+03  0.00000000000E+00 0. -1.
          3    1    6    6  503    0  0.45667709326E+03  0.16022165300E+03  0.10586356022E+04  0.11640164449E+04  0.00000000000E+00 0. -1.
         -3    1    6    6    0  503  0.91520651782E+02  0.38177903290E+01  0.28475575198E+03  0.29912613311E+03  0.00000000000E+00 0.  1.
<mgrwt>
<rscale>  0 0.11783473E+04</rscale>
<asrwt>0</asrwt>
<pdfrwt beam="1">  1        2 0.42529487E+00 0.11783473E+04</pdfrwt>
<pdfrwt beam="2">  1       -1 0.19318339E-01 0.11783473E+04</pdfrwt>
<totfact> 0.59930352E+01</totfact>
</mgrwt>
</event>
<event>
12    6  0.1556619E-007  0.2511072E+04  0.7818608E-02  0.8399052E-01
         -1   -1    0    0    0  501 -0.00000000000E+00  0.00000000000E+00  0.97369630020E+03  0.97369630020E+03  0.00000000000E+00 0.  1.
          2   -1    0    0  501    0  0.00000000000E+00 -0.00000000000E+00 -0.16189555146E+04  0.16189555146E+04  0.00000000000E+00 0. -1.
         24    2    1    2    0    0  0.46967609742E+03 -0.49440659388E+03 -0.11616356287E+04  0.13493981206E+04  0.80277252388E+02 0.  0.
        254    2    1    2    0    0 -0.46967609742E+03  0.49440659388E+03  0.51637641431E+03  0.12432536943E+04  0.90222038909E+03 0.  0.
         23    2    4    4    0    0 -0.32251106013E+03 -0.17729417952E+03  0.95853952925E+00  0.37921156783E+03  0.91399586312E+02 0.  0.
         23    2    4    4    0    0 -0.14716503729E+03  0.67170077340E+03  0.51541787478E+03  0.86404212643E+03  0.89853956082E+02 0.  0.
          2    1    3    3  502    0  0.32275032015E+03 -0.36081037579E+03 -0.88674786894E+03  0.10102839598E+04  0.00000000000E+00 0. -1.
         -1    1    3    3    0  502  0.14692577727E+03 -0.13359621809E+03 -0.27488775979E+03  0.33911416072E+03  0.00000000000E+00 0.  1.
         11    1    5    5    0    0 -0.93055760073E+02 -0.29409174967E+02 -0.35407428908E+02  0.10381695467E+03  0.00000000000E+00 0. -1.
        -11    1    5    5    0    0 -0.22945530006E+03 -0.14788500455E+03  0.36365968437E+02  0.27539461316E+03  0.00000000000E+00 0.  1.
          4    1    6    6  503    0 -0.13616966774E+03  0.66704386583E+03  0.50074468834E+03  0.84512421588E+03  0.00000000000E+00 0.  1.
         -4    1    6    6    0  503 -0.10995369544E+02  0.46569075628E+01  0.14673186439E+02  0.18917910555E+02  0.00000000000E+00 0. -1.
<mgrwt>
<rscale>  0 0.25110723E+04</rscale>
<asrwt>0</asrwt>
<pdfrwt beam="1">  1        2 0.24907008E+00 0.25110723E+04</pdfrwt>
<pdfrwt beam="2">  1       -1 0.14979943E+00 0.25110723E+04</pdfrwt>
<totfact> 0.38667518E+00</totfact>
</mgrwt>
</event>
<event>
12    6  0.1556619E-007  0.1591821E+04  0.7818608E-02  0.8825588E-01
         -1   -1    0    0    0  501 -0.00000000000E+00  0.00000000000E+00  0.70693128061E+03  0.70693128061E+03  0.00000000000E+00 0.  1.
          2   -1    0    0  501    0  0.00000000000E+00 -0.00000000000E+00 -0.89608942907E+03  0.89608942907E+03  0.00000000000E+00 0. -1.
         24    2    1    2    0    0 -0.19900665841E+03  0.15712538969E+03 -0.53680095920E+03  0.59889931331E+03  0.78949854392E+02 0.  0.
        254    2    1    2    0    0  0.19900665841E+03 -0.15712538969E+03  0.34764281074E+03  0.10041213964E+04  0.90725532051E+03 0.  0.
         23    2    4    4    0    0 -0.21121022080E+03 -0.32285163793E+03  0.38318083845E+03  0.55136307039E+03  0.91272903669E+02 0.  0.
         23    2    4    4    0    0  0.41021687921E+03  0.16572624824E+03 -0.35538027705E+02  0.45275832597E+03  0.89353640009E+02 0.  0.
          4    1    3    3  502    0 -0.19668085441E+03  0.13537997754E+03 -0.45042471039E+03  0.50979752505E+03  0.00000000000E+00 0. -1.
         -3    1    3    3    0  502 -0.23258039985E+01  0.21745412153E+02 -0.86376248810E+02  0.89101788267E+02  0.00000000000E+00 0.  1.
         11    1    5    5    0    0  0.57602833406E+01  0.60669743949E+00  0.12037553961E+02  0.13358579689E+02  0.00000000000E+00 0. -1.
        -11    1    5    5    0    0 -0.21697050414E+03 -0.32345833537E+03  0.37114328449E+03  0.53800449070E+03  0.00000000000E+00 0.  1.
          3    1    6    6  503    0 -0.30781672086E+01  0.54325968207E+01 -0.57162070837E+01  0.84654146386E+01  0.00000000000E+00 0. -1.
         -3    1    6    6    0  503  0.41329504641E+03  0.16029365142E+03 -0.29821820622E+02  0.44429291134E+03  0.00000000000E+00 0.  1.
<mgrwt>
<rscale>  0 0.15918212E+04</rscale>
<asrwt>0</asrwt>
<pdfrwt beam="1">  1        2 0.13785991E+00 0.15918212E+04</pdfrwt>
<pdfrwt beam="2">  1       -1 0.10875866E+00 0.15918212E+04</pdfrwt>
<totfact> 0.25333265E+01</totfact>
</mgrwt>
</event>
<event>
12    6  0.1556619E-007  0.1641614E+04  0.7818608E-02  0.8795383E-01
          2   -1    0    0  501    0  0.00000000000E+00  0.00000000000E+00  0.77366516987E+03  0.77366516987E+03  0.00000000000E+00 0. -1.
         -1   -1    0    0    0  501 -0.00000000000E+00 -0.00000000000E+00 -0.87082130033E+03  0.87082130033E+03  0.00000000000E+00 0.  1.
         24    2    1    2    0    0  0.43661237330E+03  0.20527734677E+02 -0.37446686364E+03  0.58105124391E+03  0.79645236388E+02 0.  0.
        254    2    1    2    0    0 -0.43661237330E+03 -0.20527734677E+02  0.27731073318E+03  0.10634352263E+04  0.92894643837E+03 0.  0.
         23    2    4    4    0    0 -0.93841041849E+02  0.41983400246E+03  0.22895679286E+03  0.49603483326E+03  0.92534383058E+02 0.  0.
         23    2    4    4    0    0 -0.34277133145E+03 -0.44036173714E+03  0.48353940323E+02  0.56740039303E+03  0.90523241541E+02 0.  0.
          4    1    3    3  502    0  0.20294967871E+03  0.34243186788E+01 -0.22558036566E+03  0.30345806863E+03  0.00000000000E+00 0. -1.
         -3    1    3    3    0  502  0.23366269459E+03  0.17103415998E+02 -0.14888649798E+03  0.27759317528E+03  0.00000000000E+00 0.  1.
         11    1    5    5    0    0 -0.37349155528E+02  0.19897195508E+03  0.56508695010E+02  0.21018570584E+03  0.00000000000E+00 0.  1.
        -11    1    5    5    0    0 -0.56491886321E+02  0.22086204739E+03  0.17244809785E+03  0.28584912742E+03  0.00000000000E+00 0. -1.
          4    1    6    6  503    0 -0.28384434641E+03 -0.39933167542E+03  0.20430867031E+02  0.49035784924E+03  0.00000000000E+00 0. -1.
         -4    1    6    6    0  503 -0.58926985044E+02 -0.41030061716E+02  0.27923073292E+02  0.77042543786E+02  0.00000000000E+00 0.  1.
<mgrwt>
<rscale>  0 0.16416140E+04</rscale>
<asrwt>0</asrwt>
<pdfrwt beam="1">  1        2 0.11902541E+00 0.16416140E+04</pdfrwt>
<pdfrwt beam="2">  1       -1 0.13397251E+00 0.16416140E+04</pdfrwt>
<totfact> 0.18463046E+01</totfact>
</mgrwt>
</event>
<event>
12    6  0.1556619E-007  0.3589049E+04  0.7818608E-02  0.8093005E-01
         -1   -1    0    0    0  501 -0.00000000000E+00  0.00000000000E+00  0.31163515787E+04  0.31163515787E+04  0.00000000000E+00 0.  1.
          2   -1    0    0  501    0  0.00000000000E+00 -0.00000000000E+00 -0.10333614804E+04  0.10333614804E+04  0.00000000000E+00 0. -1.
         24    2    1    2    0    0  0.94637753989E+03  0.12661755745E+04  0.16640819836E+04  0.22965848463E+04  0.79385607768E+02 0.  0.
        254    2    1    2    0    0 -0.94637753989E+03 -0.12661755745E+04  0.41890811473E+03  0.18531282128E+04  0.87164736625E+03 0.  0.
         23    2    4    4    0    0  0.11875171206E+03 -0.13985402630E+03  0.19720694921E+03  0.28442989461E+03  0.91371036667E+02 0.  0.
         23    2    4    4    0    0 -0.10651292519E+04 -0.11263215482E+04  0.22170116552E+03  0.15686983182E+04  0.92533526251E+02 0.  0.
          2    1    3    3  502    0  0.23940492500E+03  0.26582248210E+03  0.36728776198E+03  0.51271494049E+03  0.00000000000E+00 0. -1.
         -1    1    3    3    0  502  0.70697261488E+03  0.10003530924E+04  0.12967942216E+04  0.17838699058E+04  0.00000000000E+00 0.  1.
         11    1    5    5    0    0  0.34162356467E+02 -0.46555742399E+02  0.96965128439E+01  0.58553617404E+02  0.00000000000E+00 0.  1.
        -11    1    5    5    0    0  0.84589355589E+02 -0.93298283901E+02  0.18751043636E+03  0.22587627720E+03  0.00000000000E+00 0. -1.
          3    1    6    6  503    0 -0.83091440027E+03 -0.93116350186E+03  0.18505812678E+03  0.12616381090E+04  0.00000000000E+00 0. -1.
         -3    1    6    6    0  503 -0.23421485167E+03 -0.19515804629E+03  0.36643038749E+02  0.30706020919E+03  0.00000000000E+00 0.  1.
<mgrwt>
<rscale>  0 0.35890487E+04</rscale>
<asrwt>0</asrwt>
<pdfrwt beam="1">  1        2 0.15897869E+00 0.35890487E+04</pdfrwt>
<pdfrwt beam="2">  1       -1 0.47943870E+00 0.35890487E+04</pdfrwt>
<totfact> 0.45387260E-02</totfact>
</mgrwt>
</event>
<event>
12    6  0.1556619E-007  0.3867012E+04  0.7818608E-02  0.8031925E-01
          2   -1    0    0  501    0  0.00000000000E+00  0.00000000000E+00  0.18744833578E+04  0.18744833578E+04  0.00000000000E+00 0. -1.
         -3   -1    0    0    0  501 -0.00000000000E+00 -0.00000000000E+00 -0.19943869030E+04  0.19943869030E+04  0.00000000000E+00 0.  1.
         24    2    1    2    0    0 -0.64163935344E+03  0.18543482305E+02 -0.17722289073E+04  0.18865699266E+04  0.79409492944E+02 0.  0.
        254    2    1    2    0    0  0.64163935344E+03 -0.18543482305E+02  0.16523253621E+04  0.19823003341E+04  0.88729397141E+03 0.  0.
         23    2    4    4    0    0  0.12489271372E+02  0.21553293349E+03  0.45693336910E+02  0.23866957343E+03  0.90911258533E+02 0.  0.
         23    2    4    4    0    0  0.62915008206E+03 -0.23407641579E+03  0.16066320252E+04  0.17436307607E+04  0.91433970570E+02 0.  0.
          2    1    3    3  502    0 -0.94954280083E+02 -0.17282544827E+02 -0.21160255144E+03  0.23257394832E+03  0.00000000000E+00 0. -1.
         -1    1    3    3    0  502 -0.54668507335E+03  0.35826027132E+02 -0.15606263559E+04  0.16539959783E+04  0.00000000000E+00 0.  1.
         11    1    5    5    0    0  0.11996565560E+02  0.18390888137E+03  0.71666708231E+02  0.19774354933E+03  0.00000000000E+00 0. -1.
        -11    1    5    5    0    0  0.49270581202E+00  0.31624052114E+02 -0.25973371321E+02  0.40926024103E+02  0.00000000000E+00 0.  1.
          2    1    6    6  503    0  0.27981539588E+03 -0.11724238831E+03  0.83968272736E+03  0.89280989915E+03  0.00000000000E+00 0. -1.
         -2    1    6    6    0  503  0.34933468619E+03 -0.11683402748E+03  0.76694929782E+03  0.85082086151E+03  0.00000000000E+00 0.  1.
<mgrwt>
<rscale>  0 0.38670118E+04</rscale>
<asrwt>0</asrwt>
<pdfrwt beam="1">  1        2 0.28838206E+00 0.38670118E+04</pdfrwt>
<pdfrwt beam="2">  1       -3 0.30682875E+00 0.38670118E+04</pdfrwt>
<totfact> 0.13676440E-01</totfact>
</mgrwt>
</event>
<event>
12    6  0.1556619E-007  0.1393222E+04  0.7818608E-02  0.8958739E-01
         -1   -1    0    0    0  501 -0.00000000000E+00  0.00000000000E+00  0.21248370001E+03  0.21248370001E+03  0.00000000000E+00 0.  1.
          2   -1    0    0  501    0  0.00000000000E+00 -0.00000000000E+00 -0.22837853029E+04  0.22837853029E+04  0.00000000000E+00 0. -1.
         24    2    1    2    0    0 -0.15771068955E+02 -0.29867232034E+03 -0.14498760558E+03  0.34155402752E+03  0.78637563488E+02 0.  0.
        254    2    1    2    0    0  0.15771068955E+02  0.29867232034E+03 -0.19263139973E+04  0.21547149754E+04  0.91796357626E+03 0.  0.
         23    2    4    4    0    0 -0.35724039713E+03 -0.12034367364E+03 -0.92136882913E+03  0.99964018786E+03  0.90866301565E+02 0.  0.
         23    2    4    4    0    0  0.37301146609E+03  0.41901599397E+03 -0.10049451682E+04  0.11550747875E+04  0.97831573001E+02 0.  0.
          4    1    3    3  502    0  0.78357354169E+01 -0.77951001899E+02 -0.75876452913E+02  0.10906417172E+03  0.00000000000E+00 0. -1.
         -3    1    3    3    0  502 -0.23606804372E+02 -0.22072131844E+03 -0.69111152662E+02  0.23248985580E+03  0.00000000000E+00 0.  1.
         11    1    5    5    0    0 -0.98371041939E+02 -0.47781151507E+02 -0.37638681501E+03  0.39195272017E+03  0.00000000000E+00 0.  1.
        -11    1    5    5    0    0 -0.25886935519E+03 -0.72562522131E+02 -0.54498201412E+03  0.60768746769E+03  0.00000000000E+00 0. -1.
          3    1    6    6  503    0  0.80879136938E+02  0.49468991641E+02 -0.22109867857E+03  0.24056857981E+03  0.00000000000E+00 0. -1.
         -3    1    6    6    0  503  0.29213232915E+03  0.36954700233E+03 -0.78384648961E+03  0.91450620771E+03  0.00000000000E+00 0.  1.
<mgrwt>
<rscale>  0 0.13932224E+04</rscale>
<asrwt>0</asrwt>
<pdfrwt beam="1">  1        2 0.35135160E+00 0.13932224E+04</pdfrwt>
<pdfrwt beam="2">  1       -1 0.32689799E-01 0.13932224E+04</pdfrwt>
<totfact> 0.45119689E+01</totfact>
</mgrwt>
</event>
<event>
12    6  0.1556619E-007  0.1234216E+04  0.7818608E-02  0.9083423E-01
         -3   -1    0    0    0  501 -0.00000000000E+00  0.00000000000E+00  0.97134944156E+02  0.97134944156E+02  0.00000000000E+00 0.  1.
          2   -1    0    0  501    0  0.00000000000E+00 -0.00000000000E+00 -0.39205497645E+04  0.39205497645E+04  0.00000000000E+00 0. -1.
         24    2    1    2    0    0  0.24743363096E+02 -0.15234925808E+03 -0.14190824653E+03  0.22460206311E+03  0.80533259383E+02 0.  0.
        254    2    1    2    0    0 -0.24743363096E+02  0.15234925808E+03 -0.36815065738E+04  0.37930826455E+04  0.90009042457E+03 0.  0.
         23    2    4    4    0    0  0.40029594395E+03 -0.50352546869E+02 -0.13248925859E+04  0.13879502812E+04  0.91068091310E+02 0.  0.
         23    2    4    4    0    0 -0.42503930705E+03  0.20270180495E+03 -0.23566139879E+04  0.24051323643E+04  0.96362687746E+02 0.  0.
          2    1    3    3  502    0  0.52130440860E+01 -0.53564268323E+02 -0.10382484518E+03  0.11694402570E+03  0.00000000000E+00 0. -1.
         -1    1    3    3    0  502  0.19530319010E+02 -0.98784989757E+02 -0.38083401348E+02  0.10765803742E+03  0.00000000000E+00 0.  1.
         11    1    5    5    0    0  0.55775838401E+02 -0.40039222039E+02 -0.23922431627E+03  0.24888221500E+03  0.00000000000E+00 0.  1.
        -11    1    5    5    0    0  0.34452010555E+03 -0.10313324830E+02 -0.10856682697E+04  0.11390680662E+04  0.00000000000E+00 0. -1.
          1    1    6    6  503    0 -0.36610799673E+03  0.14426879140E+03 -0.20534475629E+04  0.20908121492E+04  0.00000000000E+00 0. -1.
         -1    1    6    6    0  503 -0.58931310321E+02  0.58433013549E+02 -0.30316642496E+03  0.31432021512E+03  0.00000000000E+00 0.  1.
<mgrwt>
<rscale>  0 0.12342162E+04</rscale>
<asrwt>0</asrwt>
<pdfrwt beam="1">  1        2 0.60316155E+00 0.12342162E+04</pdfrwt>
<pdfrwt beam="2">  1       -3 0.14943836E-01 0.12342162E+04</pdfrwt>
<totfact> 0.10222487E+01</totfact>
</mgrwt>
</event>
<event>
12    6  0.1556619E-007  0.1449108E+04  0.7818608E-02  0.8919019E-01
          2   -1    0    0  501    0  0.00000000000E+00  0.00000000000E+00  0.14879578617E+04  0.14879578617E+04  0.00000000000E+00 0. -1.
         -1   -1    0    0    0  501 -0.00000000000E+00 -0.00000000000E+00 -0.35281799370E+03  0.35281799370E+03  0.00000000000E+00 0.  1.
         24    2    1    2    0    0 -0.14105199613E+03  0.41322992459E+03  0.40418215088E+03  0.60463984035E+03  0.10757085690E+03 0.  0.
        254    2    1    2    0    0  0.14105199613E+03 -0.41322992459E+03  0.73095771708E+03  0.12361360150E+04  0.89614643182E+03 0.  0.
         23    2    4    4    0    0 -0.30248518865E+03 -0.18024587882E+03  0.61475442528E+03  0.71417774594E+03  0.90227397257E+02 0.  0.
         23    2    4    4    0    0  0.44353718478E+03 -0.23298404577E+03  0.11620329180E+03  0.52195826907E+03  0.89052960424E+02 0.  0.
          4    1    3    3  502    0 -0.28451750643E+02  0.32272017923E+02  0.84164045106E+02  0.94522863605E+02  0.00000000000E+00 0. -1.
         -3    1    3    3    0  502 -0.11260024549E+03  0.38095790667E+03  0.32001810577E+03  0.51011697674E+03  0.00000000000E+00 0.  1.
         11    1    5    5    0    0 -0.12635064168E+03 -0.25334127652E+02  0.21172491423E+03  0.24785831029E+03  0.00000000000E+00 0.  1.
        -11    1    5    5    0    0 -0.17613454697E+03 -0.15491175117E+03  0.40302951105E+03  0.46631943565E+03  0.00000000000E+00 0. -1.
          3    1    6    6  503    0  0.44303901267E+03 -0.22046528137E+03  0.10670356773E+03  0.50623527969E+03  0.00000000000E+00 0. -1.
         -3    1    6    6    0  503  0.49817210658E+00 -0.12518764399E+02  0.94997240710E+01  0.15722989377E+02  0.00000000000E+00 0.  1.
<mgrwt>
<rscale>  0 0.14491077E+04</rscale>
<asrwt>0</asrwt>
<pdfrwt beam="1">  1        2 0.22891659E+00 0.14491077E+04</pdfrwt>
<pdfrwt beam="2">  1       -1 0.54279692E-01 0.14491077E+04</pdfrwt>
<totfact> 0.48841285E+01</totfact>
</mgrwt>
</event>
<event>
12    6  0.1556619E-007  0.1196133E+04  0.7818608E-02  0.9116248E-01
         -1   -1    0    0    0  501 -0.00000000000E+00  0.00000000000E+00  0.19503508821E+03  0.19503508821E+03  0.00000000000E+00 0.  1.
          2   -1    0    0  501    0  0.00000000000E+00 -0.00000000000E+00 -0.18339444247E+04  0.18339444247E+04  0.00000000000E+00 0. -1.
         24    2    1    2    0    0  0.29588273176E+02 -0.13667818605E+03 -0.84980102886E+01  0.16160810061E+03  0.80551657651E+02 0.  0.
        254    2    1    2    0    0 -0.29588273176E+02  0.13667818605E+03 -0.16304113262E+04  0.18673714123E+04  0.89959908092E+03 0.  0.
         23    2    4    4    0    0  0.62274148729E+02  0.16860466977E+02  0.86042928713E+02  0.14180650930E+03  0.92430274003E+02 0.  0.
         23    2    4    4    0    0 -0.91862421904E+02  0.11981771908E+03 -0.17164542549E+04  0.17255649030E+04  0.92542070753E+02 0.  0.
          2    1    3    3  502    0 -0.24227374648E+02 -0.19067659839E+02 -0.95157384759E+01  0.32265935796E+02  0.00000000000E+00 0. -1.
         -1    1    3    3    0  502  0.53815647823E+02 -0.11761052622E+03  0.10177281873E+01  0.12934216481E+03  0.00000000000E+00 0.  1.
         11    1    5    5    0    0  0.60589357986E+02  0.19207813303E+01  0.10276961015E+03  0.11931618696E+03  0.00000000000E+00 0.  1.
        -11    1    5    5    0    0  0.16847907426E+01  0.14939685647E+02 -0.16726681433E+02  0.22490322338E+02  0.00000000000E+00 0. -1.
          4    1    6    6  503    0 -0.52492177342E+02  0.22924011923E+01 -0.44851058624E+03  0.45157771176E+03  0.00000000000E+00 0. -1.
         -4    1    6    6    0  503 -0.39370244562E+02  0.11752531788E+03 -0.12679436687E+04  0.12739871912E+04  0.00000000000E+00 0.  1.
<mgrwt>
<rscale>  0 0.11961330E+04</rscale>
<asrwt>0</asrwt>
<pdfrwt beam="1">  1        2 0.28214530E+00 0.11961330E+04</pdfrwt>
<pdfrwt beam="2">  1       -1 0.30005397E-01 0.11961330E+04</pdfrwt>
<totfact> 0.94804778E+01</totfact>
</mgrwt>
</event>
<event>
12    6  0.1556619E-007  0.1165539E+04  0.7818608E-02  0.9143567E-01
         -1   -1    0    0    0  501 -0.00000000000E+00  0.00000000000E+00  0.40713133006E+03  0.40713133006E+03  0.00000000000E+00 0.  1.
          2   -1    0    0  501    0  0.00000000000E+00 -0.00000000000E+00 -0.83417856725E+03  0.83417856725E+03  0.00000000000E+00 0. -1.
         24    2    1    2    0    0  0.70162088435E+02 -0.26268471891E+02 -0.33710081847E+03  0.35407506548E+03  0.78226842638E+02 0.  0.
        254    2    1    2    0    0 -0.70162088435E+02  0.26268471891E+02 -0.89946418720E+02  0.88723483183E+03  0.87947855989E+03 0.  0.
         23    2    4    4    0    0  0.35537555532E+03 -0.27964080397E+02 -0.22143725656E+03  0.42983027930E+03  0.92982983933E+02 0.  0.
         23    2    4    4    0    0 -0.42553764375E+03  0.54232552287E+02  0.13149083784E+03  0.45740455254E+03  0.88913600034E+02 0.  0.
          2    1    3    3  502    0  0.61765885480E+02  0.13608460157E+02 -0.25056391353E+03  0.25842308249E+03  0.00000000000E+00 0. -1.
         -3    1    3    3    0  502  0.83962029550E+01 -0.39876932047E+02 -0.86536904941E+02  0.95651982992E+02  0.00000000000E+00 0.  1.
         11    1    5    5    0    0  0.79757669290E+02 -0.38599460959E+02 -0.82164555881E+02  0.12083963936E+03  0.00000000000E+00 0.  1.
        -11    1    5    5    0    0  0.27561788603E+03  0.10635380562E+02 -0.13927270068E+03  0.30899063994E+03  0.00000000000E+00 0. -1.
          2    1    6    6  503    0 -0.38856236736E+03  0.72998736021E+02  0.12896661389E+03  0.41586285755E+03  0.00000000000E+00 0. -1.
         -2    1    6    6    0  503 -0.36975276391E+02 -0.18766183733E+02  0.25242239416E+01  0.41541694989E+02  0.00000000000E+00 0.  1.
<mgrwt>
<rscale>  0 0.11655389E+04</rscale>
<asrwt>0</asrwt>
<pdfrwt beam="1">  1        2 0.12833516E+00 0.11655389E+04</pdfrwt>
<pdfrwt beam="2">  1       -1 0.62635590E-01 0.11655389E+04</pdfrwt>
<totfact> 0.95034548E+01</totfact>
</mgrwt>
</event>
<event>
12    6  0.1556619E-007  0.1115584E+04  0.7818608E-02  0.9190134E-01
         -1   -1    0    0    0  501 -0.00000000000E+00  0.00000000000E+00  0.11557850867E+03  0.11557850867E+03  0.00000000000E+00 0.  1.
          2   -1    0    0  501    0  0.00000000000E+00 -0.00000000000E+00 -0.26919547641E+04  0.26919547641E+04  0.00000000000E+00 0. -1.
         24    2    1    2    0    0  0.87701620070E+01 -0.15289020854E+03 -0.70010178549E+03  0.72035819747E+03  0.72945808664E+02 0.  0.
        254    2    1    2    0    0 -0.87701620070E+01  0.15289020854E+03 -0.18762744700E+04  0.20871750753E+04  0.90135541094E+03 0.  0.
         23    2    4    4    0    0 -0.18272281838E+03 -0.16807877390E+03 -0.11856099942E+03  0.28993736068E+03  0.91481473212E+02 0.  0.
         23    2    4    4    0    0  0.17395265638E+03  0.32096898243E+03 -0.17577134705E+04  0.17972377146E+04  0.85006729674E+02 0.  0.
          2    1    3    3  502    0  0.32528064977E+02 -0.11633206975E+03 -0.58349001651E+03  0.59586225324E+03  0.00000000000E+00 0. -1.
         -1    1    3    3    0  502 -0.23757902970E+02 -0.36558138791E+02 -0.11661176898E+03  0.12449594423E+03  0.00000000000E+00 0.  1.
         11    1    5    5    0    0 -0.13312926201E+03 -0.16534821559E+03 -0.11145899864E+03  0.23976351094E+03  0.00000000000E+00 0. -1.
        -11    1    5    5    0    0 -0.49593556370E+02 -0.27305583080E+01 -0.71020007817E+01  0.50173849734E+02  0.00000000000E+00 0.  1.
          2    1    6    6  503    0  0.17819294173E+03  0.31015145387E+03 -0.16192411869E+04  0.16582788276E+04  0.00000000000E+00 0. -1.
         -2    1    6    6    0  503 -0.42402853501E+01  0.10817528562E+02 -0.13847228366E+03  0.13895888704E+03  0.00000000000E+00 0.  1.
<mgrwt>
<rscale>  0 0.11155844E+04</rscale>
<asrwt>0</asrwt>
<pdfrwt beam="1">  1        2 0.41414686E+00 0.11155844E+04</pdfrwt>
<pdfrwt beam="2">  1       -1 0.17781310E-01 0.11155844E+04</pdfrwt>
<totfact> 0.76371667E+01</totfact>
</mgrwt>
</event>
<event>
12    6  0.1556619E-007  0.1313441E+04  0.7818608E-02  0.9018973E-01
         -1   -1    0    0    0  501 -0.00000000000E+00  0.00000000000E+00  0.55627573780E+03  0.55627573780E+03  0.00000000000E+00 0.  1.
          2   -1    0    0  501    0  0.00000000000E+00 -0.00000000000E+00 -0.77530262453E+03  0.77530262453E+03  0.00000000000E+00 0. -1.
         24    2    1    2    0    0 -0.25402190250E+03  0.15351152967E+03  0.47577117003E+02  0.31019809992E+03  0.76592182629E+02 0.  0.
        254    2    1    2    0    0  0.25402190250E+03 -0.15351152967E+03 -0.26660400373E+03  0.10213802624E+04  0.94023775128E+03 0.  0.
         23    2    4    4    0    0  0.57530970686E+03 -0.11641217928E+03 -0.39313283996E+01  0.59444252910E+03  0.93879767606E+02 0.  0.
         23    2    4    4    0    0 -0.32128780436E+03 -0.37099350393E+02 -0.26267267533E+03  0.42693773331E+03  0.93148691470E+02 0.  0.
          4    1    3    3  502    0 -0.24042326189E+02  0.42231932840E+00  0.22259331647E+02  0.32767203841E+02  0.00000000000E+00 0. -1.
         -3    1    3    3    0  502 -0.22997957631E+03  0.15308921034E+03  0.25317785356E+02  0.27743089608E+03  0.00000000000E+00 0.  1.
         11    1    5    5    0    0  0.37414414614E+03 -0.51326080568E+02 -0.40705294787E+02  0.37983566139E+03  0.00000000000E+00 0.  1.
        -11    1    5    5    0    0  0.20116556072E+03 -0.65086098708E+02  0.36773966388E+02  0.21460686771E+03  0.00000000000E+00 0. -1.
          1    1    6    6  503    0 -0.42357793530E+02  0.65583710723E+01 -0.79730827346E+02  0.90521819100E+02  0.00000000000E+00 0. -1.
         -1    1    6    6    0  503 -0.27893001083E+03 -0.43657721465E+02 -0.18294184798E+03  0.33641591420E+03  0.00000000000E+00 0.  1.
<mgrwt>
<rscale>  0 0.13134413E+04</rscale>
<asrwt>0</asrwt>
<pdfrwt beam="1">  1        2 0.11927733E+00 0.13134413E+04</pdfrwt>
<pdfrwt beam="2">  1       -1 0.85580883E-01 0.13134413E+04</pdfrwt>
<totfact> 0.54185207E+01</totfact>
</mgrwt>
</event>
<event>
12    6  0.1556619E-007  0.1471111E+04  0.7818608E-02  0.8903894E-01
          2   -1    0    0  501    0  0.00000000000E+00  0.00000000000E+00  0.14500898875E+04  0.14500898875E+04  0.00000000000E+00 0. -1.
         -1   -1    0    0    0  501 -0.00000000000E+00 -0.00000000000E+00 -0.37310930859E+03  0.37310930859E+03  0.00000000000E+00 0.  1.
         24    2    1    2    0    0 -0.71831917785E+02 -0.52302222879E+02 -0.21581747366E+03  0.24531084736E+03  0.75530675676E+02 0.  0.
        254    2    1    2    0    0  0.71831917785E+02  0.52302222879E+02  0.12927980525E+04  0.15778883487E+04  0.90028300518E+03 0.  0.
         23    2    4    4    0    0 -0.38564240601E+03  0.10172411869E+03  0.78489894733E+03  0.88634226646E+03  0.10231517076E+03 0.  0.
         23    2    4    4    0    0  0.45747432380E+03 -0.49421895807E+02  0.50789910522E+03  0.69154608225E+03  0.92461895262E+02 0.  0.
          4    1    3    3  502    0 -0.80000947155E+01 -0.21400291317E+01  0.52518601984E+01  0.98062875588E+01  0.00000000000E+00 0. -1.
         -3    1    3    3    0  502 -0.63831823070E+02 -0.50162193748E+02 -0.22106933385E+03  0.23550455980E+03  0.00000000000E+00 0.  1.
         11    1    5    5    0    0 -0.48233723335E+01  0.84194346040E+01  0.87174001281E+00  0.97422651560E+01  0.00000000000E+00 0.  1.
        -11    1    5    5    0    0 -0.38081903368E+03  0.93304684082E+02  0.78402720732E+03  0.87660000131E+03  0.00000000000E+00 0. -1.
          3    1    6    6  503    0  0.31597869507E+03 -0.69936146828E+02  0.31673522795E+03  0.45282977486E+03  0.00000000000E+00 0. -1.
         -3    1    6    6    0  503  0.14149562872E+03  0.20514251021E+02  0.19116387727E+03  0.23871630739E+03  0.00000000000E+00 0.  1.
<mgrwt>
<rscale>  0 0.14711112E+04</rscale>
<asrwt>0</asrwt>
<pdfrwt beam="1">  1        2 0.22309075E+00 0.14711112E+04</pdfrwt>
<pdfrwt beam="2">  1       -1 0.57401433E-01 0.14711112E+04</pdfrwt>
<totfact> 0.45947124E+01</totfact>
</mgrwt>
</event>
<event>
12    6  0.1556619E-007  0.2194984E+04  0.7818608E-02  0.8520519E-01
         -1   -1    0    0    0  501 -0.00000000000E+00  0.00000000000E+00  0.96328123435E+03  0.96328123435E+03  0.00000000000E+00 0.  1.
          2   -1    0    0  501    0  0.00000000000E+00 -0.00000000000E+00 -0.12504017032E+04  0.12504017032E+04  0.00000000000E+00 0. -1.
         24    2    1    2    0    0 -0.45040778733E+03  0.21924228839E+03 -0.89437958688E+03  0.10282490693E+04  0.80292883630E+02 0.  0.
        254    2    1    2    0    0  0.45040778733E+03 -0.21924228839E+03  0.60725911800E+03  0.11854338683E+04  0.88631566825E+03 0.  0.
         23    2    4    4    0    0  0.94634049820E+02  0.24818655607E+03  0.51300018061E+03  0.58362788293E+03  0.83067144071E+02 0.  0.
         23    2    4    4    0    0  0.35577373751E+03 -0.46742884446E+03  0.94258937393E+02  0.60180598537E+03  0.90669839588E+02 0.  0.
          4    1    3    3  502    0 -0.43024693308E+03  0.22534332395E+03 -0.86611301612E+03  0.99299737853E+03  0.00000000000E+00 0. -1.
         -3    1    3    3    0  502 -0.20160854250E+02 -0.61010355582E+01 -0.28266570759E+02  0.35251690760E+02  0.00000000000E+00 0.  1.
         11    1    5    5    0    0  0.10834166115E+02 -0.32752819667E+01  0.10177854716E+02  0.15221542432E+02  0.00000000000E+00 0. -1.
        -11    1    5    5    0    0  0.83799883705E+02  0.25146183804E+03  0.50282232589E+03  0.56840634050E+03  0.00000000000E+00 0.  1.
          2    1    6    6  503    0  0.38212971876E+01  0.38309862481E+01 -0.20625075753E+01  0.57907430721E+01  0.00000000000E+00 0. -1.
         -2    1    6    6    0  503  0.35195244032E+03 -0.47125983071E+03  0.96321444968E+02  0.59601524229E+03  0.00000000000E+00 0.  1.
<mgrwt>
<rscale>  0 0.21949838E+04</rscale>
<asrwt>0</asrwt>
<pdfrwt beam="1">  1        2 0.19236949E+00 0.21949838E+04</pdfrwt>
<pdfrwt beam="2">  1       -1 0.14819711E+00 0.21949838E+04</pdfrwt>
<totfact> 0.66420246E+00</totfact>
</mgrwt>
</event>
<event>
12    6  0.1556619E-007  0.1645596E+04  0.7818608E-02  0.8793016E-01
          2   -1    0    0  501    0  0.00000000000E+00  0.00000000000E+00  0.18604380247E+04  0.18604380247E+04  0.00000000000E+00 0. -1.
         -1   -1    0    0    0  501 -0.00000000000E+00 -0.00000000000E+00 -0.36389073327E+03  0.36389073327E+03  0.00000000000E+00 0.  1.
         24    2    1    2    0    0  0.61825050285E+02  0.93715444719E+02 -0.23458213455E+03  0.27175851884E+03  0.78860594005E+02 0.  0.
        254    2    1    2    0    0 -0.61825050285E+02 -0.93715444719E+02  0.17311294260E+04  0.19525702392E+04  0.89616768956E+03 0.  0.
         23    2    4    4    0    0 -0.19642188184E+03  0.33675860143E+03  0.51695810802E+03  0.65417120117E+03  0.93307897205E+02 0.  0.
         23    2    4    4    0    0  0.13459683156E+03 -0.43047404615E+03  0.12141713180E+04  0.12983990380E+04  0.90575167332E+02 0.  0.
          4    1    3    3  502    0 -0.75941619450E+01  0.46490480275E+02 -0.12589258829E+03  0.13441718580E+03  0.00000000000E+00 0. -1.
         -3    1    3    3    0  502  0.69419212230E+02  0.47224964443E+02 -0.10868954626E+03  0.13734133303E+03  0.00000000000E+00 0.  1.
         11    1    5    5    0    0 -0.17962761607E+03  0.27898121898E+03  0.48012499017E+03  0.58362368628E+03  0.00000000000E+00 0.  1.
        -11    1    5    5    0    0 -0.16794265775E+02  0.57777382457E+02  0.36833117846E+02  0.70547514887E+02  0.00000000000E+00 0. -1.
          3    1    6    6  503    0 -0.66581834557E+01 -0.86908298906E+02  0.27277854935E+03  0.28636606086E+03  0.00000000000E+00 0. -1.
         -3    1    6    6    0  503  0.14125501501E+03 -0.34356574725E+03  0.94139276865E+03  0.10120329771E+04  0.00000000000E+00 0.  1.
<mgrwt>
<rscale>  0 0.16455955E+04</rscale>
<asrwt>0</asrwt>
<pdfrwt beam="1">  1        2 0.28622123E+00 0.16455955E+04</pdfrwt>
<pdfrwt beam="2">  1       -1 0.55983191E-01 0.16455955E+04</pdfrwt>
<totfact> 0.28062737E+01</totfact>
</mgrwt>
</event>
<event>
12    6  0.1556619E-007  0.1098378E+04  0.7818608E-02  0.9206775E-01
         -1   -1    0    0    0  501 -0.00000000000E+00  0.00000000000E+00  0.22964331669E+03  0.22964331669E+03  0.00000000000E+00 0.  1.
          2   -1    0    0  501    0  0.00000000000E+00 -0.00000000000E+00 -0.13133774595E+04  0.13133774595E+04  0.00000000000E+00 0. -1.
         24    2    1    2    0    0  0.12311756867E+03  0.92125543689E+02 -0.25678631750E+03  0.31341509849E+03  0.92977199306E+02 0.  0.
        254    2    1    2    0    0 -0.12311756867E+03 -0.92125543689E+02 -0.82694782528E+03  0.12296056777E+04  0.89690711074E+03 0.  0.
         23    2    4    4    0    0 -0.16097052755E+03  0.31892574795E+03 -0.69527616686E+03  0.78687329389E+03  0.90196945570E+02 0.  0.
         23    2    4    4    0    0  0.37852958883E+02 -0.41105129164E+03 -0.13167165842E+03  0.44273238378E+03  0.90986411968E+02 0.  0.
          2    1    3    3  502    0 -0.53104723253E+01 -0.62864877491E+01 -0.50897456277E+02  0.51558433840E+02  0.00000000000E+00 0. -1.
         -1    1    3    3    0  502  0.12842804100E+03  0.98412031438E+02 -0.20588886122E+03  0.26185666465E+03  0.00000000000E+00 0.  1.
         11    1    5    5    0    0 -0.10140830985E+03  0.27274633226E+03 -0.58394249116E+03  0.65242857084E+03  0.00000000000E+00 0.  1.
        -11    1    5    5    0    0 -0.59562217705E+02  0.46179415690E+02 -0.11133367571E+03  0.13444472306E+03  0.00000000000E+00 0. -1.
          1    1    6    6  503    0  0.23482494932E+02 -0.34134187868E+02 -0.32677147098E+02  0.52767094786E+02  0.00000000000E+00 0. -1.
         -1    1    6    6    0  503  0.14370463951E+02 -0.37691710377E+03 -0.98994511323E+02  0.38996528899E+03  0.00000000000E+00 0.  1.
<mgrwt>
<rscale>  0 0.10983776E+04</rscale>
<asrwt>0</asrwt>
<pdfrwt beam="1">  1        2 0.20205807E+00 0.10983776E+04</pdfrwt>
<pdfrwt beam="2">  1       -1 0.35329741E-01 0.10983776E+04</pdfrwt>
<totfact> 0.14006789E+02</totfact>
</mgrwt>
</event>
<event>
12    6  0.1556619E-007  0.1153757E+04  0.7818608E-02  0.9154324E-01
         -1   -1    0    0    0  501 -0.00000000000E+00  0.00000000000E+00  0.39179968013E+03  0.39179968013E+03  0.00000000000E+00 0.  1.
          2   -1    0    0  501    0  0.00000000000E+00 -0.00000000000E+00 -0.84938562335E+03  0.84938562335E+03  0.00000000000E+00 0. -1.
         24    2    1    2    0    0  0.62714799977E+02 -0.13105740232E+03  0.46578196436E+02  0.17660719923E+03  0.88945970098E+02 0.  0.
        254    2    1    2    0    0 -0.62714799977E+02  0.13105740232E+03 -0.50416413966E+03  0.10645781042E+04  0.92630225709E+03 0.  0.
         23    2    4    4    0    0 -0.62033721708E+02 -0.38352244326E+03 -0.31123150813E+03  0.50572587952E+03  0.89196224419E+02 0.  0.
         23    2    4    4    0    0 -0.68107826870E+00  0.51457984558E+03 -0.19293263153E+03  0.55885222473E+03  0.10148855808E+03 0.  0.
          2    1    3    3  502    0  0.44802262451E+02 -0.73587383351E+02 -0.18330476965E+02  0.88081508247E+02  0.00000000000E+00 0. -1.
         -1    1    3    3    0  502  0.17912537525E+02 -0.57470018972E+02  0.64908673402E+02  0.88525690983E+02  0.00000000000E+00 0.  1.
         11    1    5    5    0    0 -0.57753221056E+02 -0.37975436586E+03 -0.28349145490E+03  0.47740571628E+03  0.00000000000E+00 0. -1.
        -11    1    5    5    0    0 -0.42805006517E+01 -0.37680774036E+01 -0.27740053229E+02  0.28320163246E+02  0.00000000000E+00 0.  1.
          1    1    6    6  503    0  0.27889093558E+02  0.35540904014E+03 -0.17188080655E+03  0.39577316611E+03  0.00000000000E+00 0. -1.
         -1    1    6    6    0  503 -0.28570171827E+02  0.15917080544E+03 -0.21051824982E+02  0.16307905861E+03  0.00000000000E+00 0.  1.
<mgrwt>
<rscale>  0 0.11537574E+04</rscale>
<asrwt>0</asrwt>
<pdfrwt beam="1">  1        2 0.13067471E+00 0.11537574E+04</pdfrwt>
<pdfrwt beam="2">  1       -1 0.60276875E-01 0.11537574E+04</pdfrwt>
<totfact> 0.10015623E+02</totfact>
</mgrwt>
</event>
<event>
12    6  0.1556619E-007  0.1235351E+04  0.7818608E-02  0.9082465E-01
          2   -1    0    0  501    0  0.00000000000E+00  0.00000000000E+00  0.82424030886E+03  0.82424030886E+03  0.00000000000E+00 0. -1.
         -1   -1    0    0    0  501 -0.00000000000E+00 -0.00000000000E+00 -0.46287832597E+03  0.46287832597E+03  0.00000000000E+00 0.  1.
         24    2    1    2    0    0 -0.73424285123E+02 -0.22686854231E+03 -0.96813990247E+02  0.26963593260E+03  0.80437095327E+02 0.  0.
        254    2    1    2    0    0  0.73424285123E+02  0.22686854231E+03  0.45817597314E+03  0.10174827022E+04  0.87663297099E+03 0.  0.
         23    2    4    4    0    0 -0.34717432217E+03 -0.93684561345E+02  0.19942845949E+03  0.42176826145E+03  0.93861328072E+02 0.  0.
         23    2    4    4    0    0  0.42059860729E+03  0.32055310366E+03  0.25874751365E+03  0.59571444078E+03  0.90928204710E+02 0.  0.
          4    1    3    3  502    0 -0.57115290108E+02 -0.21432963995E+03 -0.10746382205E+03  0.24647073655E+03  0.00000000000E+00 0. -1.
         -3    1    3    3    0  502 -0.16308995015E+02 -0.12538902362E+02  0.10649831798E+02  0.23165196053E+02  0.00000000000E+00 0.  1.
         11    1    5    5    0    0 -0.32795568788E+03 -0.10761735356E+03  0.19815307915E+03  0.39799632005E+03  0.00000000000E+00 0. -1.
        -11    1    5    5    0    0 -0.19218634290E+02  0.13932792217E+02  0.12753803421E+01  0.23771941401E+02  0.00000000000E+00 0.  1.
          4    1    6    6  503    0  0.32995071043E+03  0.27240061411E+03  0.17134405978E+03  0.46089950391E+03  0.00000000000E+00 0. -1.
         -4    1    6    6    0  503  0.90647896862E+02  0.48152489546E+02  0.87403453868E+02  0.13481493687E+03  0.00000000000E+00 0.  1.
<mgrwt>
<rscale>  0 0.12353509E+04</rscale>
<asrwt>0</asrwt>
<pdfrwt beam="1">  1        2 0.12680620E+00 0.12353509E+04</pdfrwt>
<pdfrwt beam="2">  1       -1 0.71212050E-01 0.12353509E+04</pdfrwt>
<totfact> 0.74087984E+01</totfact>
</mgrwt>
</event>
<event>
12    6  0.1556619E-007  0.1945704E+04  0.7818608E-02  0.8632435E-01
          2   -1    0    0  501    0  0.00000000000E+00  0.00000000000E+00  0.25043954115E+04  0.25043954115E+04  0.00000000000E+00 0. -1.
         -1   -1    0    0    0  501 -0.00000000000E+00 -0.00000000000E+00 -0.37791208046E+03  0.37791208046E+03  0.00000000000E+00 0.  1.
         24    2    1    2    0    0 -0.86130853972E+02  0.75739297901E+03  0.85053727527E+03  0.11450704016E+04  0.81914096700E+02 0.  0.
        254    2    1    2    0    0  0.86130853972E+02 -0.75739297901E+03  0.12759460558E+04  0.17372370905E+04  0.89938407950E+03 0.  0.
         23    2    4    4    0    0 -0.20368150053E+03 -0.24577305123E+03  0.35545074196E+01  0.33248449797E+03  0.92966448245E+02 0.  0.
         23    2    4    4    0    0  0.28981235450E+03 -0.51161992778E+03  0.12723915484E+04  0.14047525925E+04  0.92754742984E+02 0.  0.
          4    1    3    3  502    0 -0.83329786380E+02  0.65950125698E+03  0.77730900315E+03  0.10227878801E+04  0.00000000000E+00 0. -1.
         -3    1    3    3    0  502 -0.28010675919E+01  0.97891722026E+02  0.73228272119E+02  0.12228252148E+03  0.00000000000E+00 0.  1.
         11    1    5    5    0    0 -0.14807145841E+03 -0.17442258602E+03 -0.39694708954E+02  0.23221555768E+03  0.00000000000E+00 0.  1.
        -11    1    5    5    0    0 -0.55610042121E+02 -0.71350465207E+02  0.43249216374E+02  0.10026894029E+03  0.00000000000E+00 0. -1.
          2    1    6    6  503    0  0.17635134573E+03 -0.30974261438E+03  0.66100624998E+03  0.75097905884E+03  0.00000000000E+00 0. -1.
         -2    1    6    6    0  503  0.11346100877E+03 -0.20187731339E+03  0.61138529841E+03  0.65377353364E+03  0.00000000000E+00 0.  1.
<mgrwt>
<rscale>  0 0.19457043E+04</rscale>
<asrwt>0</asrwt>
<pdfrwt beam="1">  1        2 0.38529159E+00 0.19457043E+04</pdfrwt>
<pdfrwt beam="2">  1       -1 0.58140322E-01 0.19457043E+04</pdfrwt>
<totfact> 0.11026764E+01</totfact>
</mgrwt>
</event>
<event>
12    6  0.1556619E-007  0.1764926E+04  0.7818608E-02  0.8725177E-01
          2   -1    0    0  501    0  0.00000000000E+00  0.00000000000E+00  0.27842819984E+04  0.27842819984E+04  0.00000000000E+00 0. -1.
         -1   -1    0    0    0  501 -0.00000000000E+00 -0.00000000000E+00 -0.27969184781E+03  0.27969184781E+03  0.00000000000E+00 0.  1.
         24    2    1    2    0    0 -0.29277833895E+03  0.55774428118E+03  0.12079308565E+04  0.13641987409E+04  0.71717581997E+02 0.  0.
        254    2    1    2    0    0  0.29277833895E+03 -0.55774428118E+03  0.12966592941E+04  0.16997751053E+04  0.90061770182E+03 0.  0.
         23    2    4    4    0    0  0.60390693237E+03 -0.38873630837E+03  0.75771522736E+03  0.10481208679E+04  0.92765766591E+02 0.  0.
         23    2    4    4    0    0 -0.31112859341E+03 -0.16900797281E+03  0.53894406674E+03  0.65165423749E+03  0.93956594538E+02 0.  0.
          4    1    3    3  502    0 -0.13925130402E+03  0.29204826235E+03  0.69210648505E+03  0.76399901824E+03  0.00000000000E+00 0. -1.
         -3    1    3    3    0  502 -0.15352703493E+03  0.26569601882E+03  0.51582437148E+03  0.60019972266E+03  0.00000000000E+00 0.  1.
         11    1    5    5    0    0  0.14271326932E+02 -0.25714845461E+02  0.50027394096E+02  0.58031579416E+02  0.00000000000E+00 0. -1.
        -11    1    5    5    0    0  0.58963560544E+03 -0.36302146291E+03  0.70768783326E+03  0.99008928844E+03  0.00000000000E+00 0.  1.
          4    1    6    6  503    0 -0.17986213832E+03 -0.14695369115E+03  0.36485018529E+03  0.43250599285E+03  0.00000000000E+00 0.  1.
         -4    1    6    6    0  503 -0.13126645510E+03 -0.22054281658E+02  0.17409388145E+03  0.21914824464E+03  0.00000000000E+00 0. -1.
<mgrwt>
<rscale>  0 0.17649260E+04</rscale>
<asrwt>0</asrwt>
<pdfrwt beam="1">  1        2 0.42835106E+00 0.17649260E+04</pdfrwt>
<pdfrwt beam="2">  1       -1 0.43029517E-01 0.17649260E+04</pdfrwt>
<totfact> 0.13600012E+01</totfact>
</mgrwt>
</event>
<event>
12    6  0.1556619E-007  0.1938070E+04  0.7818608E-02  0.8636135E-01
          2   -1    0    0  501    0  0.00000000000E+00  0.00000000000E+00  0.46336711801E+04  0.46336711801E+04  0.00000000000E+00 0. -1.
         -3   -1    0    0    0  501 -0.00000000000E+00 -0.00000000000E+00 -0.20265331509E+03  0.20265331509E+03  0.00000000000E+00 0.  1.
         24    2    1    2    0    0 -0.24985058480E+03  0.19404237874E+03  0.27115903668E+02  0.32734840242E+03  0.79648884887E+02 0.  0.
        254    2    1    2    0    0  0.24985058480E+03 -0.19404237874E+03  0.44039019613E+04  0.45089760927E+04  0.91456829192E+03 0.  0.
         23    2    4    4    0    0  0.12490924236E+03 -0.40236893682E+03  0.40352570008E+04  0.40581216626E+04  0.86886630035E+02 0.  0.
         23    2    4    4    0    0  0.12494134243E+03  0.20832655809E+03  0.36864496054E+03  0.45085443009E+03  0.91434765511E+02 0.  0.
          2    1    3    3  502    0 -0.16988636547E+03  0.14123108080E+03  0.54762606509E+02  0.22761049718E+03  0.00000000000E+00 0. -1.
         -1    1    3    3    0  502 -0.79964219332E+02  0.52811297938E+02 -0.27646702840E+02  0.99737905238E+02  0.00000000000E+00 0.  1.
         11    1    5    5    0    0  0.11398592255E+03 -0.38642654691E+03  0.36073622112E+04  0.36297906813E+04  0.00000000000E+00 0.  1.
        -11    1    5    5    0    0  0.10923319816E+02 -0.15942389913E+02  0.42789478952E+03  0.42833098138E+03  0.00000000000E+00 0. -1.
          4    1    6    6  503    0  0.74097535419E+02  0.45699618211E+02  0.15280595218E+03  0.17586517245E+03  0.00000000000E+00 0. -1.
         -4    1    6    6    0  503  0.50843807016E+02  0.16262693988E+03  0.21583900836E+03  0.27498925764E+03  0.00000000000E+00 0.  1.
<mgrwt>
<rscale>  0 0.19380700E+04</rscale>
<asrwt>0</asrwt>
<pdfrwt beam="1">  1        2 0.71287240E+00 0.19380700E+04</pdfrwt>
<pdfrwt beam="2">  1       -3 0.31177437E-01 0.19380700E+04</pdfrwt>
<totfact> 0.56552624E-01</totfact>
</mgrwt>
</event>
<event>
12    6  0.1556619E-007  0.1258372E+04  0.7818608E-02  0.9063244E-01
         -1   -1    0    0    0  501 -0.00000000000E+00  0.00000000000E+00  0.17948114671E+03  0.17948114671E+03  0.00000000000E+00 0.  1.
          2   -1    0    0  501    0  0.00000000000E+00 -0.00000000000E+00 -0.22056624745E+04  0.22056624745E+04  0.00000000000E+00 0. -1.
         24    2    1    2    0    0 -0.62410955744E+01  0.17097286648E+03 -0.33704386368E+02  0.19140662540E+03  0.78929324328E+02 0.  0.
        254    2    1    2    0    0  0.62410955744E+01 -0.17097286648E+03 -0.19924769415E+04  0.21937369958E+04  0.90180206939E+03 0.  0.
         23    2    4    4    0    0 -0.35637806384E+03 -0.33933123216E+03 -0.95382007293E+03  0.10770907292E+04  0.90557704968E+02 0.  0.
         23    2    4    4    0    0  0.36261915942E+03  0.16835836568E+03 -0.10386568685E+04  0.11166462666E+04  0.90849326770E+02 0.  0.
          4    1    3    3  502    0 -0.30509022042E+02  0.43394878231E+02 -0.31149460897E+02  0.61515890604E+02  0.00000000000E+00 0. -1.
         -3    1    3    3    0  502  0.24267926468E+02  0.12757798825E+03 -0.25549254710E+01  0.12989073480E+03  0.00000000000E+00 0.  1.
         11    1    5    5    0    0 -0.35017280267E+03 -0.33692006078E+03 -0.89953358819E+03  0.10223975721E+04  0.00000000000E+00 0. -1.
        -11    1    5    5    0    0 -0.62052611752E+01 -0.24111713829E+01 -0.54286484734E+02  0.54693157145E+02  0.00000000000E+00 0.  1.
          1    1    6    6  503    0  0.27892584660E+03  0.14990938775E+03 -0.71786328911E+03  0.78460190816E+03  0.00000000000E+00 0. -1.
         -1    1    6    6    0  503  0.83693312814E+02  0.18448977922E+02 -0.32079357942E+03  0.33204435847E+03  0.00000000000E+00 0.  1.
<mgrwt>
<rscale>  0 0.12583717E+04</rscale>
<asrwt>0</asrwt>
<pdfrwt beam="1">  1        2 0.33933271E+00 0.12583717E+04</pdfrwt>
<pdfrwt beam="2">  1       -1 0.27612483E-01 0.12583717E+04</pdfrwt>
<totfact> 0.67868692E+01</totfact>
</mgrwt>
</event>
<event>
12    6  0.1556619E-007  0.1395262E+04  0.7818608E-02  0.8957255E-01
         -1   -1    0    0    0  501 -0.00000000000E+00  0.00000000000E+00  0.56444778102E+03  0.56444778102E+03  0.00000000000E+00 0.  1.
          2   -1    0    0  501    0  0.00000000000E+00 -0.00000000000E+00 -0.86223930726E+03  0.86223930726E+03  0.00000000000E+00 0. -1.
         24    2    1    2    0    0  0.67060403014E+02  0.15273809407E+03  0.28465646722E+03  0.33833428564E+03  0.74931712096E+02 0.  0.
        254    2    1    2    0    0 -0.67060403014E+02 -0.15273809407E+03 -0.58244799345E+03  0.10883528026E+04  0.90412395993E+03 0.  0.
         23    2    4    4    0    0  0.27402351680E+02  0.22442691140E+02  0.22845218861E+03  0.24836015026E+03  0.90762318675E+02 0.  0.
         23    2    4    4    0    0 -0.94462754694E+02 -0.17518078521E+03 -0.81090018206E+03  0.83999265239E+03  0.91744380054E+02 0.  0.
          2    1    3    3  502    0  0.17309297401E+02  0.27907089231E+02  0.13115260412E+02  0.35361383761E+02  0.00000000000E+00 0. -1.
         -1    1    3    3    0  502  0.49751105614E+02  0.12483100484E+03  0.27154120680E+03  0.30297290188E+03  0.00000000000E+00 0.  1.
         11    1    5    5    0    0  0.25120401840E+02 -0.28455115171E+02  0.49987127095E+02  0.62764966687E+02  0.00000000000E+00 0.  1.
        -11    1    5    5    0    0  0.22819498398E+01  0.50897806312E+02  0.17846506151E+03  0.18559518357E+03  0.00000000000E+00 0. -1.
          3    1    6    6  503    0 -0.47496486581E+02 -0.10945052327E+03 -0.63916100814E+03  0.65020160535E+03  0.00000000000E+00 0. -1.
         -3    1    6    6    0  503 -0.46966268113E+02 -0.65730261940E+02 -0.17173917393E+03  0.18979104704E+03  0.00000000000E+00 0.  1.
<mgrwt>
<rscale>  0 0.13952621E+04</rscale>
<asrwt>0</asrwt>
<pdfrwt beam="1">  1        2 0.13265220E+00 0.13952621E+04</pdfrwt>
<pdfrwt beam="2">  1       -1 0.86838120E-01 0.13952621E+04</pdfrwt>
<totfact> 0.45213570E+01</totfact>
</mgrwt>
</event>
<event>
12    6  0.1556619E-007  0.1522954E+04  0.7818608E-02  0.8869331E-01
          2   -1    0    0  501    0  0.00000000000E+00  0.00000000000E+00  0.99674681681E+03  0.99674681681E+03  0.00000000000E+00 0. -1.
         -1   -1    0    0    0  501 -0.00000000000E+00 -0.00000000000E+00 -0.58173958387E+03  0.58173958387E+03  0.00000000000E+00 0.  1.
         24    2    1    2    0    0  0.36389902284E+03  0.27297338567E+03 -0.58914761140E+02  0.46576518487E+03  0.80804023716E+02 0.  0.
        254    2    1    2    0    0 -0.36389902284E+03 -0.27297338567E+03  0.47392199408E+03  0.11127212158E+04  0.89811440227E+03 0.  0.
         23    2    4    4    0    0 -0.27034209201E+03  0.25117778948E+03 -0.20663080989E+02  0.38026191524E+03  0.89426129437E+02 0.  0.
         23    2    4    4    0    0 -0.93556930826E+02 -0.52415117515E+03  0.49458507506E+03  0.73245930058E+03  0.91623560393E+02 0.  0.
          2    1    3    3  502    0  0.56117986236E+02  0.56037895033E+02 -0.39792844015E+02  0.88729614525E+02  0.00000000000E+00 0. -1.
         -1    1    3    3    0  502  0.30778103660E+03  0.21693549064E+03 -0.19121917124E+02  0.37703557034E+03  0.00000000000E+00 0.  1.
         11    1    5    5    0    0 -0.14641730015E+03  0.15609800291E+03  0.29868845588E+02  0.21609433179E+03  0.00000000000E+00 0. -1.
        -11    1    5    5    0    0 -0.12392479186E+03  0.95079786567E+02 -0.50531926577E+02  0.16416758345E+03  0.00000000000E+00 0.  1.
          4    1    6    6  503    0 -0.86644328813E+02 -0.50090450618E+03  0.49302436460E+03  0.70815647150E+03  0.00000000000E+00 0. -1.
         -4    1    6    6    0  503 -0.69126020123E+01 -0.23246668962E+02  0.15607104631E+01  0.24302829085E+02  0.00000000000E+00 0.  1.
<mgrwt>
<rscale>  0 0.15229538E+04</rscale>
<asrwt>0</asrwt>
<pdfrwt beam="1">  1        2 0.15334566E+00 0.15229538E+04</pdfrwt>
<pdfrwt beam="2">  1       -1 0.89498398E-01 0.15229538E+04</pdfrwt>
<totfact> 0.34071150E+01</totfact>
</mgrwt>
</event>
<event>
12    6  0.1556619E-007  0.2626174E+04  0.7818608E-02  0.8359364E-01
          2   -1    0    0  501    0  0.00000000000E+00  0.00000000000E+00  0.25738294020E+04  0.25738294020E+04  0.00000000000E+00 0. -1.
         -1   -1    0    0    0  501 -0.00000000000E+00 -0.00000000000E+00 -0.66989582577E+03  0.66989582577E+03  0.00000000000E+00 0.  1.
         24    2    1    2    0    0 -0.19887021743E+03  0.87575742854E+03  0.17108316976E+04  0.19338226438E+04  0.78895393767E+02 0.  0.
        254    2    1    2    0    0  0.19887021743E+03 -0.87575742854E+03  0.19310187860E+03  0.13099025839E+04  0.93383939031E+03 0.  0.
         23    2    4    4    0    0  0.56461487140E+03 -0.59607072978E+03  0.10721411436E+03  0.83293887581E+03  0.90565095964E+02 0.  0.
         23    2    4    4    0    0 -0.36574465397E+03 -0.27968669876E+03  0.85887764239E+02  0.47696370814E+03  0.90132510581E+02 0.  0.
          2    1    3    3  502    0 -0.13777049884E+03  0.64503154061E+03  0.11807791217E+04  0.13525108994E+04  0.00000000000E+00 0. -1.
         -1    1    3    3    0  502 -0.61099718584E+02  0.23072588793E+03  0.53005257595E+03  0.58131174446E+03  0.00000000000E+00 0.  1.
         11    1    5    5    0    0  0.28783758274E+03 -0.28288449433E+03  0.94053813230E+01  0.40368623009E+03  0.00000000000E+00 0. -1.
        -11    1    5    5    0    0  0.27677728866E+03 -0.31318623546E+03  0.97808733036E+02  0.42925264572E+03  0.00000000000E+00 0.  1.
          3    1    6    6  503    0 -0.64283330896E+01 -0.16048936199E+02  0.20037121216E+02  0.26464656545E+02  0.00000000000E+00 0. -1.
         -3    1    6    6    0  503 -0.35931632088E+03 -0.26363776256E+03  0.65850643023E+02  0.45049905159E+03  0.00000000000E+00 0.  1.
<mgrwt>
<rscale>  0 0.26261741E+04</rscale>
<asrwt>0</asrwt>
<pdfrwt beam="1">  1        2 0.39597375E+00 0.26261741E+04</pdfrwt>
<pdfrwt beam="2">  1       -1 0.10306090E+00 0.26261741E+04</pdfrwt>
<totfact> 0.28125746E+00</totfact>
</mgrwt>
</event>
<event>
12    6  0.1556619E-007  0.1837753E+04  0.7818608E-02  0.8686477E-01
          2   -1    0    0  501    0  0.00000000000E+00  0.00000000000E+00  0.10963348134E+04  0.10963348134E+04  0.00000000000E+00 0. -1.
         -1   -1    0    0    0  501 -0.00000000000E+00 -0.00000000000E+00 -0.77014223350E+03  0.77014223350E+03  0.00000000000E+00 0.  1.
         24    2    1    2    0    0 -0.34695999354E+02  0.66392986025E+03 -0.10127881670E+03  0.67718517642E+03  0.79471332852E+02 0.  0.
        254    2    1    2    0    0  0.34695999354E+02 -0.66392986025E+03  0.42747139657E+03  0.11892918704E+04  0.88863754507E+03 0.  0.
         23    2    4    4    0    0 -0.87291224852E+02 -0.49452092175E+02 -0.23573711382E+03  0.27208421876E+03  0.91610959567E+02 0.  0.
         23    2    4    4    0    0  0.12198722421E+03 -0.61447776808E+03  0.66320851039E+03  0.91720765168E+03  0.94660116831E+02 0.  0.
          4    1    3    3  502    0 -0.37336996478E+02  0.39314771679E+03 -0.24310665596E+02  0.39566423516E+03  0.00000000000E+00 0. -1.
         -3    1    3    3    0  502  0.26409971234E+01  0.27078214347E+03 -0.76968151101E+02  0.28152094127E+03  0.00000000000E+00 0.  1.
         11    1    5    5    0    0 -0.62548153997E+02 -0.63705137239E+01 -0.20318089554E+03  0.21268599231E+03  0.00000000000E+00 0.  1.
        -11    1    5    5    0    0 -0.24743070856E+02 -0.43081578451E+02 -0.32556218280E+02  0.59398226455E+02  0.00000000000E+00 0. -1.
          3    1    6    6  503    0  0.74762183026E+02 -0.20904627516E+03  0.28001340560E+03  0.35734750102E+03  0.00000000000E+00 0. -1.
         -3    1    6    6    0  503  0.47225041181E+02 -0.40543149292E+03  0.38319510479E+03  0.55986015067E+03  0.00000000000E+00 0.  1.
<mgrwt>
<rscale>  0 0.18377527E+04</rscale>
<asrwt>0</asrwt>
<pdfrwt beam="1">  1        2 0.16866690E+00 0.18377527E+04</pdfrwt>
<pdfrwt beam="2">  1       -1 0.11848342E+00 0.18377527E+04</pdfrwt>
<totfact> 0.15016802E+01</totfact>
</mgrwt>
</event>
<event>
12    6  0.1556619E-007  0.2069071E+04  0.7818608E-02  0.8574991E-01
         -1   -1    0    0    0  501 -0.00000000000E+00  0.00000000000E+00  0.83380923838E+03  0.83380923838E+03  0.00000000000E+00 0.  1.
          2   -1    0    0  501    0  0.00000000000E+00 -0.00000000000E+00 -0.12835837320E+04  0.12835837320E+04  0.00000000000E+00 0. -1.
         24    2    1    2    0    0  0.16694443204E+03  0.76303296003E+03 -0.48301278483E+03  0.92159246623E+03  0.77081658151E+02 0.  0.
        254    2    1    2    0    0 -0.16694443204E+03 -0.76303296003E+03  0.33238291208E+02  0.11958005041E+04  0.90484491502E+03 0.  0.
         23    2    4    4    0    0 -0.40088163215E+03 -0.33680493391E+03  0.32398533192E+03  0.62202695053E+03  0.88359410281E+02 0.  0.
         23    2    4    4    0    0  0.23393720010E+03 -0.42622802612E+03 -0.29074704071E+03  0.57377355362E+03  0.91023652481E+02 0.  0.
          2    1    3    3  502    0  0.94075960849E+02  0.31147372209E+03 -0.16774530473E+03  0.36606646012E+03  0.00000000000E+00 0. -1.
         -1    1    3    3    0  502  0.72868471195E+02  0.45155923794E+03 -0.31526748010E+03  0.55552600611E+03  0.00000000000E+00 0.  1.
         11    1    5    5    0    0 -0.30101465164E+03 -0.29488996212E+03  0.23974976945E+03  0.48481941196E+03  0.00000000000E+00 0. -1.
        -11    1    5    5    0    0 -0.99866980506E+02 -0.41914971792E+02  0.84235562471E+02  0.13720753857E+03  0.00000000000E+00 0.  1.
          3    1    6    6  503    0  0.14048149805E+03 -0.18964098950E+03 -0.17761515381E+03  0.29537416788E+03  0.00000000000E+00 0. -1.
         -3    1    6    6    0  503  0.93455702052E+02 -0.23658703662E+03 -0.11313188690E+03  0.27839938573E+03  0.00000000000E+00 0.  1.
<mgrwt>
<rscale>  0 0.20690713E+04</rscale>
<asrwt>0</asrwt>
<pdfrwt beam="1">  1        2 0.19747442E+00 0.20690713E+04</pdfrwt>
<pdfrwt beam="2">  1       -1 0.12827834E+00 0.20690713E+04</pdfrwt>
<totfact> 0.93359302E+00</totfact>
</mgrwt>
</event>
<event>
12    6  0.1556619E-007  0.1480174E+04  0.7818608E-02  0.8897745E-01
         -1   -1    0    0    0  501 -0.00000000000E+00  0.00000000000E+00  0.80256295433E+03  0.80256295433E+03  0.00000000000E+00 0.  1.
          2   -1    0    0  501    0  0.00000000000E+00 -0.00000000000E+00 -0.68247473269E+03  0.68247473269E+03  0.00000000000E+00 0. -1.
         24    2    1    2    0    0  0.17736839554E+03  0.10412306487E+03  0.45473489492E+03  0.50540442170E+03  0.79678381273E+02 0.  0.
        254    2    1    2    0    0 -0.17736839554E+03 -0.10412306487E+03 -0.33464667328E+03  0.97963326533E+03  0.89743622515E+03 0.  0.
         23    2    4    4    0    0 -0.11313440305E+03 -0.38987713173E+03 -0.48403556940E+03  0.63845722666E+03  0.92377631628E+02 0.  0.
         23    2    4    4    0    0 -0.64233992490E+02  0.28575406687E+03  0.14938889612E+03  0.34117603867E+03  0.91118903389E+02 0.  0.
          2    1    3    3  502    0  0.23705415489E+02  0.41044088662E+02  0.55452013085E+02  0.72948541403E+02  0.00000000000E+00 0. -1.
         -1    1    3    3    0  502  0.15366298005E+03  0.63078976205E+02  0.39928288184E+03  0.43245588030E+03  0.00000000000E+00 0.  1.
         11    1    5    5    0    0 -0.80119301479E+02 -0.22354388068E+03 -0.34677068606E+03  0.42028666142E+03  0.00000000000E+00 0.  1.
        -11    1    5    5    0    0 -0.33015101575E+02 -0.16633325105E+03 -0.13726488334E+03  0.21817056524E+03  0.00000000000E+00 0. -1.
          3    1    6    6  503    0  0.87129503600E+01  0.48849765639E+02 -0.38229784195E+01  0.49767763371E+02  0.00000000000E+00 0. -1.
         -3    1    6    6    0  503 -0.72946942850E+02  0.23690430123E+03  0.15321187454E+03  0.29140827530E+03  0.00000000000E+00 0.  1.
<mgrwt>
<rscale>  0 0.14801742E+04</rscale>
<asrwt>0</asrwt>
<pdfrwt beam="1">  1        2 0.10499611E+00 0.14801742E+04</pdfrwt>
<pdfrwt beam="2">  1       -1 0.12347122E+00 0.14801742E+04</pdfrwt>
<totfact> 0.26989701E+01</totfact>
</mgrwt>
</event>
<event>
12    6  0.1556619E-007  0.2181628E+04  0.7818608E-02  0.8526114E-01
          2   -1    0    0  501    0  0.00000000000E+00  0.00000000000E+00  0.11776914816E+04  0.11776914816E+04  0.00000000000E+00 0. -1.
         -1   -1    0    0    0  501 -0.00000000000E+00 -0.00000000000E+00 -0.10103455950E+04  0.10103455950E+04  0.00000000000E+00 0.  1.
         24    2    1    2    0    0  0.80130676729E+03  0.12556474975E+03 -0.15631400410E+03  0.82949717247E+03  0.75976638378E+02 0.  0.
        254    2    1    2    0    0 -0.80130676729E+03 -0.12556474975E+03  0.32365989070E+03  0.13585399041E+04  0.10406805007E+04 0.  0.
         23    2    4    4    0    0 -0.50164800644E+03 -0.24056464969E+03 -0.30912762821E+03  0.64291020865E+03  0.90838168300E+02 0.  0.
         23    2    4    4    0    0 -0.29965876085E+03  0.11499989993E+03  0.63278751892E+03  0.71562969544E+03  0.93195852728E+02 0.  0.
          4    1    3    3  502    0  0.15443453559E+03  0.13979147833E+02 -0.15495760786E+01  0.15507367134E+03  0.00000000000E+00 0. -1.
         -3    1    3    3    0  502  0.64687223170E+03  0.11158560192E+03 -0.15476442802E+03  0.67442350114E+03  0.00000000000E+00 0.  1.
         11    1    5    5    0    0 -0.26451285474E+03 -0.15473691687E+03 -0.21215059160E+03  0.37271763747E+03  0.00000000000E+00 0.  1.
        -11    1    5    5    0    0 -0.23713515170E+03 -0.85827732821E+02 -0.96977036614E+02  0.27019257118E+03  0.00000000000E+00 0. -1.
          1    1    6    6  503    0 -0.13098069334E+03  0.99795886868E+02  0.32418678679E+03  0.36361000233E+03  0.00000000000E+00 0. -1.
         -1    1    6    6    0  503 -0.16867806751E+03  0.15204013064E+02  0.30860073212E+03  0.35201969311E+03  0.00000000000E+00 0.  1.
<mgrwt>
<rscale>  0 0.21816282E+04</rscale>
<asrwt>0</asrwt>
<pdfrwt beam="1">  1        2 0.18118330E+00 0.21816282E+04</pdfrwt>
<pdfrwt beam="2">  1       -1 0.15543778E+00 0.21816282E+04</pdfrwt>
<totfact> 0.64559571E+00</totfact>
</mgrwt>
</event>
<event>
12    6  0.1556619E-007  0.1580610E+04  0.7818608E-02  0.8832549E-01
         -1   -1    0    0    0  501 -0.00000000000E+00  0.00000000000E+00  0.11332979591E+04  0.11332979591E+04  0.00000000000E+00 0.  1.
          2   -1    0    0  501    0  0.00000000000E+00 -0.00000000000E+00 -0.55111894787E+03  0.55111894787E+03  0.00000000000E+00 0. -1.
         24    2    1    2    0    0 -0.43128379534E+03 -0.23118294766E+03  0.37666203540E+03  0.62272570117E+03  0.80384964889E+02 0.  0.
        254    2    1    2    0    0  0.43128379534E+03  0.23118294766E+03  0.20551697584E+03  0.10616912058E+04  0.91951058816E+03 0.  0.
         23    2    4    4    0    0  0.29178818961E+03  0.47854701325E+03  0.40947717860E+03  0.70037417721E+03  0.93299715042E+02 0.  0.
         23    2    4    4    0    0  0.13949560572E+03 -0.24736406559E+03 -0.20396020275E+03  0.36131702860E+03  0.91116551137E+02 0.  0.
          4    1    3    3  502    0 -0.21204008775E+03 -0.76669637120E+02  0.14298048553E+03  0.26698811080E+03  0.00000000000E+00 0. -1.
         -3    1    3    3    0  502 -0.21924370759E+03 -0.15451331054E+03  0.23368154987E+03  0.35573759037E+03  0.00000000000E+00 0.  1.
         11    1    5    5    0    0  0.27635699295E+03  0.39844423249E+03  0.36881923372E+03  0.60922788931E+03  0.00000000000E+00 0.  1.
        -11    1    5    5    0    0  0.15431196664E+02  0.80102780763E+02  0.40657944876E+02  0.91146287900E+02  0.00000000000E+00 0. -1.
          3    1    6    6  503    0  0.59971837415E+02 -0.46711244345E+02 -0.22336378911E+02  0.79230520975E+02  0.00000000000E+00 0. -1.
         -3    1    6    6    0  503  0.79523768310E+02 -0.20065282124E+03 -0.18162382384E+03  0.28208650763E+03  0.00000000000E+00 0.  1.
<mgrwt>
<rscale>  0 0.15806100E+04</rscale>
<asrwt>0</asrwt>
<pdfrwt beam="1">  1        2 0.84787531E-01 0.15806100E+04</pdfrwt>
<pdfrwt beam="2">  1       -1 0.17435353E+00 0.15806100E+04</pdfrwt>
<totfact> 0.13780708E+01</totfact>
</mgrwt>
</event>
<event>
12    6  0.1556619E-007  0.1311650E+04  0.7818608E-02  0.9020377E-01
          2   -1    0    0  501    0  0.00000000000E+00  0.00000000000E+00  0.16085555529E+04  0.16085555529E+04  0.00000000000E+00 0. -1.
         -1   -1    0    0    0  501 -0.00000000000E+00 -0.00000000000E+00 -0.26738693606E+03  0.26738693606E+03  0.00000000000E+00 0.  1.
         24    2    1    2    0    0  0.27940408039E+03 -0.94696153286E+01  0.77578747233E+02  0.30066554770E+03  0.78898642572E+02 0.  0.
        254    2    1    2    0    0 -0.27940408039E+03  0.94696153286E+01  0.12635898696E+04  0.15752769413E+04  0.89815464668E+03 0.  0.
         23    2    4    4    0    0 -0.35849317688E+03 -0.35189698353E+01  0.71543241745E+02  0.37703850803E+03  0.92248902884E+02 0.  0.
         23    2    4    4    0    0  0.79089096483E+02  0.12988585164E+02  0.11920466279E+04  0.11982384332E+04  0.91522627533E+02 0.  0.
          4    1    3    3  502    0  0.13805463111E+02  0.87120299777E+01 -0.11465321019E+02  0.19948530375E+02  0.00000000000E+00 0. -1.
         -3    1    3    3    0  502  0.26559861728E+03 -0.18181645306E+02  0.89044068251E+02  0.28071701733E+03  0.00000000000E+00 0.  1.
         11    1    5    5    0    0 -0.15494550254E+03 -0.71685755973E+00 -0.15342167392E+02  0.15570486422E+03  0.00000000000E+00 0.  1.
        -11    1    5    5    0    0 -0.20354767434E+03 -0.28021122756E+01  0.86885409137E+02  0.22133364381E+03  0.00000000000E+00 0. -1.
          1    1    6    6  503    0  0.35088250186E+02  0.16778956037E+02  0.14104442690E+03  0.14630874556E+03  0.00000000000E+00 0. -1.
         -1    1    6    6    0  503  0.44000846297E+02 -0.37903708731E+01  0.10510022010E+04  0.10519296877E+04  0.00000000000E+00 0.  1.
<mgrwt>
<rscale>  0 0.13116505E+04</rscale>
<asrwt>0</asrwt>
<pdfrwt beam="1">  1        2 0.24747008E+00 0.13116505E+04</pdfrwt>
<pdfrwt beam="2">  1       -1 0.41136453E-01 0.13116505E+04</pdfrwt>
<totfact> 0.71187711E+01</totfact>
</mgrwt>
</event>
<event>
12    6  0.1556619E-007  0.2440075E+04  0.7818608E-02  0.8424651E-01
          2   -1    0    0  501    0  0.00000000000E+00  0.00000000000E+00  0.16141643170E+04  0.16141643170E+04  0.00000000000E+00 0. -1.
         -1   -1    0    0    0  501 -0.00000000000E+00 -0.00000000000E+00 -0.92214366722E+03  0.92214366722E+03  0.00000000000E+00 0.  1.
         24    2    1    2    0    0 -0.85045902260E+03 -0.61903118526E+03  0.34644549351E+03  0.11103873048E+04  0.80345063296E+02 0.  0.
        254    2    1    2    0    0  0.85045902260E+03  0.61903118526E+03  0.34557515626E+03  0.14259206794E+04  0.89852514598E+03 0.  0.
         23    2    4    4    0    0  0.30224131069E+03  0.58915452176E+03  0.51513699945E+03  0.84393544376E+03  0.91695390502E+02 0.  0.
         23    2    4    4    0    0  0.54821771191E+03  0.29876663502E+02 -0.16956184318E+03  0.58198523567E+03  0.92305585980E+02 0.  0.
          4    1    3    3  502    0 -0.70024785006E+03 -0.48688772431E+03  0.25328122177E+03  0.88969550122E+03  0.00000000000E+00 0. -1.
         -1    1    3    3    0  502 -0.15021117254E+03 -0.13214346095E+03  0.93164271740E+02  0.22069180356E+03  0.00000000000E+00 0.  1.
         11    1    5    5    0    0  0.26566876266E+03  0.56328462923E+03  0.46905756536E+03  0.77966945855E+03  0.00000000000E+00 0.  1.
        -11    1    5    5    0    0  0.36572548028E+02  0.25869892530E+02  0.46079434092E+02  0.64265985210E+02  0.00000000000E+00 0. -1.
          3    1    6    6  503    0  0.36449035833E+02  0.10243724307E+02  0.10195124923E+02  0.39209777773E+02  0.00000000000E+00 0. -1.
         -3    1    6    6    0  503  0.51176867607E+03  0.19632939195E+02 -0.17975696811E+03  0.54277545790E+03  0.00000000000E+00 0.  1.
<mgrwt>
<rscale>  0 0.24400749E+04</rscale>
<asrwt>0</asrwt>
<pdfrwt beam="1">  1        2 0.24833297E+00 0.24400749E+04</pdfrwt>
<pdfrwt beam="2">  1       -1 0.14186826E+00 0.24400749E+04</pdfrwt>
<totfact> 0.45244816E+00</totfact>
</mgrwt>
</event>
<event>
12    6  0.1556619E-007  0.1749907E+04  0.7818608E-02  0.8733402E-01
         -1   -1    0    0    0  501 -0.00000000000E+00  0.00000000000E+00  0.18817559360E+03  0.18817559360E+03  0.00000000000E+00 0.  1.
          2   -1    0    0  501    0  0.00000000000E+00 -0.00000000000E+00 -0.40682388787E+04  0.40682388787E+04  0.00000000000E+00 0. -1.
         24    2    1    2    0    0  0.31813109929E+03  0.85137698229E+02 -0.96801875059E+02  0.35160695056E+03  0.76164431830E+02 0.  0.
        254    2    1    2    0    0 -0.31813109929E+03 -0.85137698229E+02 -0.37832614101E+04  0.39048075218E+04  0.90884490486E+03 0.  0.
         23    2    4    4    0    0 -0.10682343914E+03  0.12454795932E+03 -0.34269894998E+04  0.34319485712E+04  0.84205239473E+02 0.  0.
         23    2    4    4    0    0 -0.21130766015E+03 -0.20968565754E+03 -0.35627191024E+03  0.47285895052E+03  0.89704575396E+02 0.  0.
          2    1    3    3  502    0  0.10374201253E+03 -0.29147612685E+01 -0.49839949257E+02  0.11513002014E+03  0.00000000000E+00 0. -1.
         -1    1    3    3    0  502  0.21438908676E+03  0.88052459498E+02 -0.46961925801E+02  0.23647693042E+03  0.00000000000E+00 0.  1.
         11    1    5    5    0    0 -0.78674971572E+02  0.11561303699E+03 -0.31988837045E+04  0.32019389564E+04  0.00000000000E+00 0. -1.
        -11    1    5    5    0    0 -0.28148467565E+02  0.89349223237E+01 -0.22810579530E+03  0.23000961483E+03  0.00000000000E+00 0.  1.
          4    1    6    6  503    0 -0.12152993527E+03 -0.11081454277E+03 -0.26216472125E+03  0.30948300297E+03  0.00000000000E+00 0. -1.
         -4    1    6    6    0  503 -0.89777724879E+02 -0.98871114775E+02 -0.94107188989E+02  0.16337594756E+03  0.00000000000E+00 0.  1.
<mgrwt>
<rscale>  0 0.17499066E+04</rscale>
<asrwt>0</asrwt>
<pdfrwt beam="1">  1        2 0.62588279E+00 0.17499066E+04</pdfrwt>
<pdfrwt beam="2">  1       -1 0.28950097E-01 0.17499066E+04</pdfrwt>
<totfact> 0.35858550E+00</totfact>
</mgrwt>
</event>
<event>
12    6  0.1556619E-007  0.1459059E+04  0.7818608E-02  0.8912144E-01
         -1   -1    0    0    0  501 -0.00000000000E+00  0.00000000000E+00  0.75256360366E+03  0.75256360366E+03  0.00000000000E+00 0.  1.
          2   -1    0    0  501    0  0.00000000000E+00 -0.00000000000E+00 -0.70720052551E+03  0.70720052551E+03  0.00000000000E+00 0. -1.
         24    2    1    2    0    0  0.35810566333E+03  0.15208794566E+02  0.27933472921E+03  0.46225241159E+03  0.84725601405E+02 0.  0.
        254    2    1    2    0    0 -0.35810566333E+03 -0.15208794566E+02 -0.23397165106E+03  0.99751171757E+03  0.90100827946E+03 0.  0.
         23    2    4    4    0    0 -0.57878502616E+02 -0.71018860425E+02  0.32749601295E+03  0.35232308658E+03  0.92110364464E+02 0.  0.
         23    2    4    4    0    0 -0.30022716072E+03  0.55810065859E+02 -0.56146766401E+03  0.64518863099E+03  0.88155092539E+02 0.  0.
          4    1    3    3  502    0  0.16681767788E+03 -0.22245492237E+02  0.91512331142E+02  0.19156593207E+03  0.00000000000E+00 0. -1.
         -3    1    3    3    0  502  0.19128798545E+03  0.37454286803E+02  0.18782239807E+03  0.27068647952E+03  0.00000000000E+00 0.  1.
         11    1    5    5    0    0 -0.77370175646E+02 -0.54737736716E+02  0.18804674312E+03  0.21058001210E+03  0.00000000000E+00 0. -1.
        -11    1    5    5    0    0  0.19491673030E+02 -0.16281123709E+02  0.13944926983E+03  0.14174307448E+03  0.00000000000E+00 0.  1.
          3    1    6    6  503    0 -0.25091989663E+03  0.49236442889E+02 -0.38762049728E+03  0.46436480460E+03  0.00000000000E+00 0.  1.
         -3    1    6    6    0  503 -0.49307264084E+02  0.65736229704E+01 -0.17384716673E+03  0.18082382639E+03  0.00000000000E+00 0. -1.
<mgrwt>
<rscale>  0 0.14590591E+04</rscale>
<asrwt>0</asrwt>
<pdfrwt beam="1">  1        2 0.10880008E+00 0.14590591E+04</pdfrwt>
<pdfrwt beam="2">  1       -1 0.11577902E+00 0.14590591E+04</pdfrwt>
<totfact> 0.30243718E+01</totfact>
</mgrwt>
</event>
<event>
12    6  0.1556619E-007  0.2074062E+04  0.7818608E-02  0.8572756E-01
          2   -1    0    0  501    0  0.00000000000E+00  0.00000000000E+00  0.28707798483E+04  0.28707798483E+04  0.00000000000E+00 0. -1.
         -1   -1    0    0    0  501 -0.00000000000E+00 -0.00000000000E+00 -0.37461380282E+03  0.37461380282E+03  0.00000000000E+00 0.  1.
         24    2    1    2    0    0  0.47631757854E+03  0.34101400748E+02 -0.71148131170E+02  0.48940798703E+03  0.80104806571E+02 0.  0.
        254    2    1    2    0    0 -0.47631757854E+03 -0.34101400748E+02  0.25673141767E+04  0.27559856641E+04  0.88108657798E+03 0.  0.
         23    2    4    4    0    0 -0.59570595436E+03  0.88126825220E+02  0.95570088025E+03  0.11327435707E+04  0.84332099299E+02 0.  0.
         23    2    4    4    0    0  0.11938837581E+03 -0.12222822597E+03  0.16116132965E+04  0.16232420935E+04  0.91783186142E+02 0.  0.
          4    1    3    3  502    0  0.30023853031E+02  0.19834691068E+02 -0.16391364957E+02  0.39541415828E+02  0.00000000000E+00 0. -1.
         -3    1    3    3    0  502  0.44629372551E+03  0.14266709680E+02 -0.54756766214E+02  0.44986657120E+03  0.00000000000E+00 0.  1.
         11    1    5    5    0    0 -0.54072464984E+03  0.79707005480E+02  0.81359095910E+03  0.98013601219E+03  0.00000000000E+00 0. -1.
        -11    1    5    5    0    0 -0.54981304515E+02  0.84198197395E+01  0.14210992115E+03  0.15260755846E+03  0.00000000000E+00 0.  1.
          4    1    6    6  503    0  0.13377980372E+03 -0.99444032455E+02  0.14173579849E+04  0.14271264166E+04  0.00000000000E+00 0. -1.
         -4    1    6    6    0  503 -0.14391427901E+02 -0.22784193514E+02  0.19425531152E+03  0.19611567690E+03  0.00000000000E+00 0.  1.
<mgrwt>
<rscale>  0 0.20740624E+04</rscale>
<asrwt>0</asrwt>
<pdfrwt beam="1">  1        2 0.44165842E+00 0.20740624E+04</pdfrwt>
<pdfrwt beam="2">  1       -1 0.57632894E-01 0.20740624E+04</pdfrwt>
<totfact> 0.67204881E+00</totfact>
</mgrwt>
</event>
<event>
12    6  0.1556619E-007  0.2003914E+04  0.7818608E-02  0.8604793E-01
          2   -1    0    0  501    0  0.00000000000E+00  0.00000000000E+00  0.10779145524E+04  0.10779145524E+04  0.00000000000E+00 0. -1.
         -1   -1    0    0    0  501 -0.00000000000E+00 -0.00000000000E+00 -0.93135171336E+03  0.93135171336E+03  0.00000000000E+00 0.  1.
         24    2    1    2    0    0 -0.44860531532E+03 -0.64525513470E+03  0.22049803575E+03  0.82009579895E+03  0.79604132458E+02 0.  0.
        254    2    1    2    0    0  0.44860531532E+03  0.64525513470E+03 -0.73935196678E+02  0.11891704668E+04  0.88941501455E+03 0.  0.
         23    2    4    4    0    0 -0.14981385607E+03  0.57717561177E+02  0.22869194066E+03  0.29305591842E+03  0.88353037641E+02 0.  0.
         23    2    4    4    0    0  0.59841917139E+03  0.58753757352E+03 -0.30262713734E+03  0.89611454842E+03  0.90178681759E+02 0.  0.
          4    1    3    3  502    0 -0.17079624385E+03 -0.21217843615E+03  0.11053430090E+03  0.29395386943E+03  0.00000000000E+00 0. -1.
         -3    1    3    3    0  502 -0.27780907147E+03 -0.43307669855E+03  0.10996373485E+03  0.52614192952E+03  0.00000000000E+00 0.  1.
         11    1    5    5    0    0 -0.14112924060E+03  0.17710796851E+02  0.18110135605E+03  0.23027990803E+03  0.00000000000E+00 0. -1.
        -11    1    5    5    0    0 -0.86846154724E+01  0.40006764327E+02  0.47590584607E+02  0.62776010395E+02  0.00000000000E+00 0.  1.
          1    1    6    6  503    0  0.45917728731E+03  0.42055811246E+03 -0.25888694541E+03  0.67434068366E+03  0.00000000000E+00 0. -1.
         -1    1    6    6    0  503  0.13924188408E+03  0.16697946106E+03 -0.43740191930E+02  0.22177386476E+03  0.00000000000E+00 0.  1.
<mgrwt>
<rscale>  0 0.20039137E+04</rscale>
<asrwt>0</asrwt>
<pdfrwt beam="1">  1        2 0.16583301E+00 0.20039137E+04</pdfrwt>
<pdfrwt beam="2">  1       -1 0.14328488E+00 0.20039137E+04</pdfrwt>
<totfact> 0.93924216E+00</totfact>
</mgrwt>
</event>
<event>
12    6  0.1556619E-007  0.1747547E+04  0.7818608E-02  0.8734702E-01
         -1   -1    0    0    0  501 -0.00000000000E+00  0.00000000000E+00  0.34060686219E+04  0.34060686219E+04  0.00000000000E+00 0.  1.
          2   -1    0    0  501    0  0.00000000000E+00 -0.00000000000E+00 -0.22415297295E+03  0.22415297295E+03  0.00000000000E+00 0. -1.
         24    2    1    2    0    0 -0.15310200237E+03  0.28860033796E+02 -0.11510474771E+03  0.20970484583E+03  0.80336135949E+02 0.  0.
        254    2    1    2    0    0  0.15310200237E+03 -0.28860033796E+02  0.32970203967E+04  0.34205167491E+04  0.89739523603E+03 0.  0.
         23    2    4    4    0    0  0.49374447652E+03  0.64598359262E+02  0.23919103732E+04  0.24448181682E+04  0.89129601446E+02 0.  0.
         23    2    4    4    0    0 -0.34064247416E+03 -0.93458393058E+02  0.90511002346E+03  0.97569858086E+03  0.89396866164E+02 0.  0.
          2    1    3    3  502    0 -0.86064290651E+02 -0.19814047310E+01 -0.10411995112E+03  0.13509978649E+03  0.00000000000E+00 0. -1.
         -1    1    3    3    0  502 -0.67037711714E+02  0.30841438527E+02 -0.10984796596E+02  0.74605059336E+02  0.00000000000E+00 0.  1.
         11    1    5    5    0    0  0.39615033140E+03  0.15269369136E+02  0.18912500515E+04  0.19323547800E+04  0.00000000000E+00 0. -1.
        -11    1    5    5    0    0  0.97594145125E+02  0.49328990127E+02  0.50066032176E+03  0.51246338817E+03  0.00000000000E+00 0.  1.
          4    1    6    6  503    0 -0.21896338266E+03 -0.10322380911E+03  0.61760494895E+03  0.66335208652E+03  0.00000000000E+00 0. -1.
         -4    1    6    6    0  503 -0.12167909150E+03  0.97654160532E+01  0.28750507451E+03  0.31234649434E+03  0.00000000000E+00 0.  1.
<mgrwt>
<rscale>  0 0.17475473E+04</rscale>
<asrwt>0</asrwt>
<pdfrwt beam="1">  1        2 0.34485075E-01 0.17475473E+04</pdfrwt>
<pdfrwt beam="2">  1       -1 0.52401052E+00 0.17475473E+04</pdfrwt>
<totfact> 0.17289075E-01</totfact>
</mgrwt>
</event>
<event>
12    6  0.1556619E-007  0.3142243E+04  0.7818608E-02  0.8204239E-01
          2   -1    0    0  501    0  0.00000000000E+00  0.00000000000E+00  0.15618335736E+04  0.15618335736E+04  0.00000000000E+00 0. -1.
         -1   -1    0    0    0  501 -0.00000000000E+00 -0.00000000000E+00 -0.15804642884E+04  0.15804642884E+04  0.00000000000E+00 0.  1.
         24    2    1    2    0    0 -0.71337620961E+03 -0.57000797014E+03 -0.11267663164E+04  0.14524927038E+04  0.79485976137E+02 0.  0.
        254    2    1    2    0    0  0.71337620961E+03  0.57000797014E+03  0.11081356016E+04  0.16898051582E+04  0.89087724114E+03 0.  0.
         23    2    4    4    0    0  0.47174697669E+03 -0.66880590022E+02  0.80289588719E+03  0.93792177770E+03  0.89650611244E+02 0.  0.
         23    2    4    4    0    0  0.24162923292E+03  0.63688856016E+03  0.30523971438E+03  0.75188338050E+03  0.90253035253E+02 0.  0.
          4    1    3    3  502    0 -0.24500724585E+03 -0.20293225035E+03 -0.33441179616E+03  0.46156396974E+03  0.00000000000E+00 0. -1.
         -3    1    3    3    0  502 -0.46836896376E+03 -0.36707571979E+03 -0.79235452020E+03  0.99092873405E+03  0.00000000000E+00 0.  1.
         11    1    5    5    0    0  0.83250951074E+02 -0.46824391273E+02  0.17161655656E+03  0.19640643309E+03  0.00000000000E+00 0. -1.
        -11    1    5    5    0    0  0.38849602562E+03 -0.20056198749E+02  0.63127933062E+03  0.74151534461E+03  0.00000000000E+00 0.  1.
          3    1    6    6  503    0  0.11003254295E+03  0.29366916646E+03  0.18994053250E+03  0.36664171301E+03  0.00000000000E+00 0. -1.
         -3    1    6    6    0  503  0.13159668997E+03  0.34321939371E+03  0.11529918188E+03  0.38524166749E+03  0.00000000000E+00 0.  1.
<mgrwt>
<rscale>  0 0.31422426E+04</rscale>
<asrwt>0</asrwt>
<pdfrwt beam="1">  1        2 0.24028209E+00 0.31422426E+04</pdfrwt>
<pdfrwt beam="2">  1       -1 0.24314835E+00 0.31422426E+04</pdfrwt>
<totfact> 0.87232735E-01</totfact>
</mgrwt>
</event>
<event>
12    6  0.1556619E-007  0.2723474E+04  0.7818608E-02  0.8327428E-01
         -1   -1    0    0    0  501 -0.00000000000E+00  0.00000000000E+00  0.68197201615E+03  0.68197201615E+03  0.00000000000E+00 0.  1.
          2   -1    0    0  501    0  0.00000000000E+00 -0.00000000000E+00 -0.27190671394E+04  0.27190671394E+04  0.00000000000E+00 0. -1.
         24    2    1    2    0    0 -0.83222332805E+03  0.14338589781E+03 -0.19907298802E+04  0.21638393161E+04  0.77717091144E+02 0.  0.
        254    2    1    2    0    0  0.83222332805E+03 -0.14338589781E+03 -0.46365242987E+02  0.12371998395E+04  0.90297205026E+03 0.  0.
         23    2    4    4    0    0  0.55233019625E+03 -0.64510458754E+02 -0.45689862553E+03  0.72555806090E+03  0.91912462450E+02 0.  0.
         23    2    4    4    0    0  0.27989313180E+03 -0.78875439059E+02  0.41053338254E+03  0.51164177855E+03  0.93156595377E+02 0.  0.
          4    1    3    3  502    0 -0.65219286157E+03  0.14307543070E+03 -0.15431834717E+04  0.16814402561E+04  0.00000000000E+00 0. -1.
         -3    1    3    3    0  502 -0.18003046648E+03  0.31046711353E+00 -0.44754640858E+03  0.48239905999E+03  0.00000000000E+00 0.  1.
         11    1    5    5    0    0  0.35724425406E+03 -0.81417838858E+02 -0.27299736086E+03  0.45692437074E+03  0.00000000000E+00 0. -1.
        -11    1    5    5    0    0  0.19508594219E+03  0.16907380104E+02 -0.18390126467E+03  0.26863369016E+03  0.00000000000E+00 0.  1.
          1    1    6    6  503    0  0.26885890494E+03 -0.73877327510E+02  0.41391268715E+03  0.49906581016E+03  0.00000000000E+00 0. -1.
         -1    1    6    6    0  503  0.11034226851E+02 -0.49981115484E+01 -0.33793046081E+01  0.12575968388E+02  0.00000000000E+00 0.  1.
<mgrwt>
<rscale>  0 0.27234740E+04</rscale>
<asrwt>0</asrwt>
<pdfrwt beam="1">  1        2 0.41831802E+00 0.27234740E+04</pdfrwt>
<pdfrwt beam="2">  1       -1 0.10491877E+00 0.27234740E+04</pdfrwt>
<totfact> 0.21954635E+00</totfact>
</mgrwt>
</event>
<event>
12    6  0.1556619E-007  0.1320580E+04  0.7818608E-02  0.9013403E-01
          2   -1    0    0  501    0  0.00000000000E+00  0.00000000000E+00  0.10281614364E+04  0.10281614364E+04  0.00000000000E+00 0. -1.
         -1   -1    0    0    0  501 -0.00000000000E+00 -0.00000000000E+00 -0.42404106476E+03  0.42404106476E+03  0.00000000000E+00 0.  1.
         24    2    1    2    0    0  0.41545060846E+01  0.30999221860E+03 -0.55378062740E+01  0.32011413205E+03  0.79561012597E+02 0.  0.
        254    2    1    2    0    0 -0.41545060846E+01 -0.30999221860E+03  0.60965817788E+03  0.11320883691E+04  0.90212446262E+03 0.  0.
         23    2    4    4    0    0 -0.32140009072E+03  0.35644856329E+02 -0.27939360967E+02  0.33539887809E+03  0.84517604271E+02 0.  0.
         23    2    4    4    0    0  0.31724558464E+03 -0.34563707493E+03  0.63759753885E+03  0.79668949100E+03  0.89854187372E+02 0.  0.
          2    1    3    3  502    0  0.12483657395E+02  0.19692662033E+02  0.16949478176E+02  0.28825812223E+02  0.00000000000E+00 0. -1.
         -1    1    3    3    0  502 -0.83291513104E+01  0.29029955656E+03 -0.22487284450E+02  0.29128831982E+03  0.00000000000E+00 0.  1.
         11    1    5    5    0    0 -0.14824306607E+02  0.21250546837E+02 -0.10603731445E+02  0.27996159162E+02  0.00000000000E+00 0. -1.
        -11    1    5    5    0    0 -0.30657578412E+03  0.14394309492E+02 -0.17335629521E+02  0.30740271893E+03  0.00000000000E+00 0.  1.
          1    1    6    6  503    0  0.11094417045E+03 -0.18698340606E+03  0.28724095707E+03  0.36024820681E+03  0.00000000000E+00 0. -1.
         -1    1    6    6    0  503  0.20630141419E+03 -0.15865366887E+03  0.35035658178E+03  0.43644128419E+03  0.00000000000E+00 0.  1.
<mgrwt>
<rscale>  0 0.13205797E+04</rscale>
<asrwt>0</asrwt>
<pdfrwt beam="1">  1        2 0.15817868E+00 0.13205797E+04</pdfrwt>
<pdfrwt beam="2">  1       -1 0.65237087E-01 0.13205797E+04</pdfrwt>
<totfact> 0.64277781E+01</totfact>
</mgrwt>
</event>
<event>
12    6  0.1556619E-007  0.2366759E+04  0.7818608E-02  0.8452054E-01
         -1   -1    0    0    0  501 -0.00000000000E+00  0.00000000000E+00  0.62092516793E+03  0.62092516793E+03  0.00000000000E+00 0.  1.
          2   -1    0    0  501    0  0.00000000000E+00 -0.00000000000E+00 -0.22553243166E+04  0.22553243166E+04  0.00000000000E+00 0. -1.
         24    2    1    2    0    0 -0.52808562998E+03  0.41494979407E+02 -0.17410902338E+04  0.18216194632E+04  0.79410330278E+02 0.  0.
        254    2    1    2    0    0  0.52808562998E+03 -0.41494979407E+02  0.10669108508E+03  0.10546300214E+04  0.90568494990E+03 0.  0.
         23    2    4    4    0    0  0.13779030265E+03  0.21615037625E+03 -0.31681852961E+03  0.41762269298E+03  0.91255576981E+02 0.  0.
         23    2    4    4    0    0  0.39029532733E+03 -0.25764535566E+03  0.42350961469E+03  0.63700732840E+03  0.87785937792E+02 0.  0.
          4    1    3    3  502    0 -0.20392424975E+03 -0.35765372507E+01 -0.78509455295E+03  0.81115433077E+03  0.00000000000E+00 0. -1.
         -3    1    3    3    0  502 -0.32416138022E+03  0.45071516658E+02 -0.95599568084E+03  0.10104651324E+04  0.00000000000E+00 0.  1.
         11    1    5    5    0    0 -0.40090479072E+01  0.22533569301E+02 -0.38129770636E+01  0.23202866302E+02  0.00000000000E+00 0.  1.
        -11    1    5    5    0    0  0.14179935055E+03  0.19361680695E+03 -0.31300555255E+03  0.39441982668E+03  0.00000000000E+00 0. -1.
          1    1    6    6  503    0  0.36792042692E+03 -0.24019932563E+03  0.42099909940E+03  0.60852395045E+03  0.00000000000E+00 0. -1.
         -1    1    6    6    0  503  0.22374900416E+02 -0.17446030028E+02  0.25105152836E+01  0.28483377948E+02  0.00000000000E+00 0.  1.
<mgrwt>
<rscale>  0 0.23667595E+04</rscale>
<asrwt>0</asrwt>
<pdfrwt beam="1">  1        2 0.34697298E+00 0.23667595E+04</pdfrwt>
<pdfrwt beam="2">  1       -1 0.95526948E-01 0.23667595E+04</pdfrwt>
<totfact> 0.52129960E+00</totfact>
</mgrwt>
</event>
<event>
12    6  0.1556619E-007  0.1107692E+04  0.7818608E-02  0.9197727E-01
         -1   -1    0    0    0  501 -0.00000000000E+00  0.00000000000E+00  0.69513059629E+03  0.69513059629E+03  0.00000000000E+00 0.  1.
          2   -1    0    0  501    0  0.00000000000E+00 -0.00000000000E+00 -0.44127743424E+03  0.44127743424E+03  0.00000000000E+00 0. -1.
         24    2    1    2    0    0 -0.83722733872E+02  0.15224169590E+03  0.38767787247E+02  0.19222048004E+03  0.72517180608E+02 0.  0.
        254    2    1    2    0    0  0.83722733872E+02 -0.15224169590E+03  0.21508537480E+03  0.94418755049E+03  0.90279642329E+03 0.  0.
         23    2    4    4    0    0 -0.27930071735E+03  0.23345307924E+03  0.14004795542E+03  0.40088075559E+03  0.92642967732E+02 0.  0.
         23    2    4    4    0    0  0.36302345122E+03 -0.38569477513E+03  0.75037419385E+02  0.54330679489E+03  0.94895591895E+02 0.  0.
          4    1    3    3  502    0 -0.94040403466E+02  0.15097682723E+03  0.36975170847E+02  0.18167213078E+03  0.00000000000E+00 0. -1.
         -3    1    3    3    0  502  0.10317669594E+02  0.12648686721E+01  0.17926164002E+01  0.10548349263E+02  0.00000000000E+00 0.  1.
         11    1    5    5    0    0 -0.16241926543E+01 -0.61582120565E+01  0.97716917995E+01  0.11663941792E+02  0.00000000000E+00 0. -1.
        -11    1    5    5    0    0 -0.27767652470E+03  0.23961129129E+03  0.13027626362E+03  0.38921681380E+03  0.00000000000E+00 0.  1.
          1    1    6    6  503    0  0.95431495464E+02 -0.15393568784E+03 -0.15078256145E+01  0.18112327254E+03  0.00000000000E+00 0. -1.
         -1    1    6    6    0  503  0.26759195576E+03 -0.23175908730E+03  0.76545245000E+02  0.36218352235E+03  0.00000000000E+00 0.  1.
<mgrwt>
<rscale>  0 0.11076921E+04</rscale>
<asrwt>0</asrwt>
<pdfrwt beam="1">  1        2 0.67888836E-01 0.11076921E+04</pdfrwt>
<pdfrwt beam="2">  1       -1 0.10694317E+00 0.11076921E+04</pdfrwt>
<totfact> 0.65904418E+01</totfact>
</mgrwt>
</event>
<event>
12    6  0.1816299E-007  0.2285043E+04  0.7818608E-02  0.8483842E-01
          2   -1    0    0  501    0  0.00000000000E+00  0.00000000000E+00  0.10048042077E+04  0.10048042077E+04  0.00000000000E+00 0. -1.
         -1   -1    0    0    0  501 -0.00000000000E+00 -0.00000000000E+00 -0.12991137872E+04  0.12991137872E+04  0.00000000000E+00 0.  1.
         24    2    1    2    0    0 -0.37467010210E+03 -0.62403080188E+03 -0.78065090984E+03  0.10703387051E+04  0.80106013791E+02 0.  0.
        254    2    1    2    0    0  0.37467010210E+03  0.62403080188E+03  0.48634133034E+03  0.12335792898E+04  0.86913626527E+03 0.  0.
         23    2    4    4    0    0  0.22010817894E+03  0.47672547075E+03  0.72544877705E+03  0.90037234853E+03  0.93164655144E+02 0.  0.
         23    2    4    4    0    0  0.15456192316E+03  0.14730533112E+03 -0.23910744670E+03  0.33320694131E+03  0.90918897928E+02 0.  0.
          2    1    3    3  502    0 -0.93366749405E+02 -0.13424763528E+03 -0.22383542558E+03  0.27720403175E+03  0.00000000000E+00 0. -1.
         -1    1    3    3    0  502 -0.28130335269E+03 -0.48978316660E+03 -0.55681548426E+03  0.79313467333E+03  0.00000000000E+00 0.  1.
         11    1    5    5    0    0  0.21971228924E+03  0.42069859592E+03  0.61829510933E+03  0.77945470739E+03  0.00000000000E+00 0. -1.
        -11    1    5    5    0    0  0.39588969897E+00  0.56026874837E+02  0.10715366772E+03  0.12091764114E+03  0.00000000000E+00 0.  1.
          3    1    6    6  503    0  0.12373275243E+03  0.11777091984E+03 -0.23470612509E+03  0.29028735546E+03  0.00000000000E+00 0. -1.
         -3    1    6    6    0  503  0.30829170726E+02  0.29534411279E+02 -0.44013216090E+01  0.42919585846E+02  0.00000000000E+00 0.  1.
<mgrwt>
<rscale>  0 0.22850427E+04</rscale>
<asrwt>0</asrwt>
<pdfrwt beam="1">  1        2 0.15458526E+00 0.22850427E+04</pdfrwt>
<pdfrwt beam="2">  1       -1 0.19986366E+00 0.22850427E+04</pdfrwt>
<totfact> 0.39046111E+00</totfact>
</mgrwt>
</event>
<event>
12    6  0.1556619E-007  0.2051523E+04  0.7818608E-02  0.8582904E-01
         -1   -1    0    0    0  501 -0.00000000000E+00  0.00000000000E+00  0.11284983047E+04  0.11284983047E+04  0.00000000000E+00 0.  1.
          2   -1    0    0  501    0  0.00000000000E+00 -0.00000000000E+00 -0.93237805929E+03  0.93237805929E+03  0.00000000000E+00 0. -1.
         24    2    1    2    0    0 -0.80131616269E+03  0.17515855985E+03 -0.14705825370E+02  0.82421409571E+03  0.79526728788E+02 0.  0.
        254    2    1    2    0    0  0.80131616269E+03 -0.17515855985E+03  0.21082607079E+03  0.12366622683E+04  0.90116470195E+03 0.  0.
         23    2    4    4    0    0  0.20742879777E+03 -0.12017315330E+03 -0.33462207216E+03  0.42301162894E+03  0.97460833809E+02 0.  0.
         23    2    4    4    0    0  0.59388736492E+03 -0.54985406554E+02  0.54544814295E+03  0.81365063936E+03  0.93744808563E+02 0.  0.
          4    1    3    3  502    0 -0.68399688125E+03  0.12309832035E+03  0.32455241906E+00  0.69498563681E+03  0.00000000000E+00 0. -1.
         -3    1    3    3    0  502 -0.11731928144E+03  0.52060239498E+02 -0.15030377789E+02  0.12922845890E+03  0.00000000000E+00 0.  1.
         11    1    5    5    0    0 -0.67044559467E+01  0.20865401556E+01  0.39711475881E+00  0.70328571359E+01  0.00000000000E+00 0.  1.
        -11    1    5    5    0    0  0.21413325371E+03 -0.12225969345E+03 -0.33501918692E+03  0.41597877181E+03  0.00000000000E+00 0. -1.
          1    1    6    6  503    0  0.55679335576E+03 -0.53768681588E+02  0.53734847751E+03  0.77566313463E+03  0.00000000000E+00 0. -1.
         -1    1    6    6    0  503  0.37094009155E+02 -0.12167249662E+01  0.80996654349E+01  0.37987504722E+02  0.00000000000E+00 0.  1.
<mgrwt>
<rscale>  0 0.20515234E+04</rscale>
<asrwt>0</asrwt>
<pdfrwt beam="1">  1        2 0.14344278E+00 0.20515234E+04</pdfrwt>
<pdfrwt beam="2">  1       -1 0.17361512E+00 0.20515234E+04</pdfrwt>
<totfact> 0.68148932E+00</totfact>
</mgrwt>
</event>
<event>
12    6  0.1556619E-007  0.1061411E+04  0.7818608E-02  0.9243641E-01
          2   -1    0    0  501    0  0.00000000000E+00  0.00000000000E+00  0.47140068692E+03  0.47140068692E+03  0.00000000000E+00 0. -1.
         -1   -1    0    0    0  501 -0.00000000000E+00 -0.00000000000E+00 -0.59747145553E+03  0.59747145553E+03  0.00000000000E+00 0.  1.
         24    2    1    2    0    0 -0.11757369107E+03  0.70862496742E+01 -0.52899830594E+02  0.15261664889E+03  0.81361303296E+02 0.  0.
        254    2    1    2    0    0  0.11757369107E+03 -0.70862496742E+01 -0.73170938020E+02  0.91625549357E+03  0.90570213401E+03 0.  0.
         23    2    4    4    0    0 -0.31406833100E+03  0.34617296490E+02 -0.27538146143E+03  0.42903252230E+03  0.91633411677E+02 0.  0.
         23    2    4    4    0    0  0.43164202208E+03 -0.41703546164E+02  0.20221052341E+03  0.48722297127E+03  0.91886380734E+02 0.  0.
          4    1    3    3  502    0 -0.63427228388E+02  0.83395305129E+01  0.15052905282E+02  0.65720248231E+02  0.00000000000E+00 0. -1.
         -3    1    3    3    0  502 -0.54146462686E+02 -0.12532808387E+01 -0.67952735876E+02  0.86896400658E+02  0.00000000000E+00 0.  1.
         11    1    5    5    0    0 -0.96181713686E+02  0.91429751392E+01 -0.14374639838E+03  0.17319798812E+03  0.00000000000E+00 0.  1.
        -11    1    5    5    0    0 -0.21788661732E+03  0.25474321351E+02 -0.13163506305E+03  0.25583453418E+03  0.00000000000E+00 0. -1.
          2    1    6    6  503    0  0.39297517996E+03 -0.53931770290E+02  0.15729532614E+03  0.42670826982E+03  0.00000000000E+00 0. -1.
         -2    1    6    6    0  503  0.38666842123E+02  0.12228224126E+02  0.44915197273E+02  0.60514701446E+02  0.00000000000E+00 0.  1.
<mgrwt>
<rscale>  0 0.10614112E+04</rscale>
<asrwt>0</asrwt>
<pdfrwt beam="1">  1        2 0.72523183E-01 0.10614112E+04</pdfrwt>
<pdfrwt beam="2">  1       -1 0.91918685E-01 0.10614112E+04</pdfrwt>
<totfact> 0.86560568E+01</totfact>
</mgrwt>
</event>
<event>
12    6  0.1556619E-007  0.2491670E+04  0.7818608E-02  0.8405959E-01
          2   -1    0    0  501    0  0.00000000000E+00  0.00000000000E+00  0.16671726760E+04  0.16671726760E+04  0.00000000000E+00 0. -1.
         -1   -1    0    0    0  501 -0.00000000000E+00 -0.00000000000E+00 -0.93098051786E+03  0.93098051786E+03  0.00000000000E+00 0.  1.
         24    2    1    2    0    0 -0.55729114788E+02  0.67401843078E+03 -0.52893403808E+03  0.86240025518E+03  0.80971626057E+02 0.  0.
        254    2    1    2    0    0  0.55729114788E+02 -0.67401843078E+03  0.12651261962E+04  0.17357529386E+04  0.97718339756E+03 0.  0.
         23    2    4    4    0    0 -0.33530138475E+03 -0.67851459241E+03  0.65394947777E+03  0.10044661156E+04  0.92158490006E+02 0.  0.
         23    2    4    4    0    0  0.39103049954E+03  0.44961616268E+01  0.61117671841E+03  0.73128682299E+03  0.91205094795E+02 0.  0.
          2    1    3    3  502    0  0.21876074754E+01  0.84077144399E+01  0.21061099580E+01  0.89392945877E+01  0.00000000000E+00 0. -1.
         -1    1    3    3    0  502 -0.57916722263E+02  0.66561071634E+03 -0.53104014804E+03  0.85346096059E+03  0.00000000000E+00 0.  1.
         11    1    5    5    0    0 -0.24743888360E+03 -0.56569753524E+03  0.55830823085E+03  0.83243485218E+03  0.00000000000E+00 0.  1.
        -11    1    5    5    0    0 -0.87862501156E+02 -0.11281705717E+03  0.95641246928E+02  0.17203126347E+03  0.00000000000E+00 0. -1.
          1    1    6    6  503    0  0.18100522746E+03 -0.18766755333E+02  0.35733529940E+03  0.40100324147E+03  0.00000000000E+00 0. -1.
         -1    1    6    6    0  503  0.21002527208E+03  0.23262916960E+02  0.25384141901E+03  0.33028358152E+03  0.00000000000E+00 0.  1.
<mgrwt>
<rscale>  0 0.24916703E+04</rscale>
<asrwt>0</asrwt>
<pdfrwt beam="1">  1        2 0.25648810E+00 0.24916703E+04</pdfrwt>
<pdfrwt beam="2">  1       -1 0.14322777E+00 0.24916703E+04</pdfrwt>
<totfact> 0.41032463E+00</totfact>
</mgrwt>
</event>
<event>
12    6  0.1556619E-007  0.1147040E+04  0.7818608E-02  0.9160519E-01
         -1   -1    0    0    0  501 -0.00000000000E+00  0.00000000000E+00  0.36646776933E+03  0.36646776933E+03  0.00000000000E+00 0.  1.
          2   -1    0    0  501    0  0.00000000000E+00 -0.00000000000E+00 -0.89755556917E+03  0.89755556917E+03  0.00000000000E+00 0. -1.
         24    2    1    2    0    0  0.79963615633E+02  0.11121122248E+03 -0.26083547734E+03  0.31387456061E+03  0.10825884595E+03 0.  0.
        254    2    1    2    0    0 -0.79963615633E+02 -0.11121122248E+03 -0.27025232250E+03  0.95014877789E+03  0.90054664869E+03 0.  0.
         23    2    4    4    0    0 -0.69051945375E+02 -0.26432875236E+03 -0.54907672733E+03  0.62015318318E+03  0.92015529342E+02 0.  0.
         23    2    4    4    0    0 -0.10911670258E+02  0.15311752988E+03  0.27882440483E+03  0.32999559470E+03  0.87120613476E+02 0.  0.
          2    1    3    3  502    0  0.10700264969E+03  0.82609125328E+02 -0.20513642385E+03  0.24567211282E+03  0.00000000000E+00 0. -1.
         -1    1    3    3    0  502 -0.27039034056E+02  0.28602097150E+02 -0.55699053494E+02  0.68202447788E+02  0.00000000000E+00 0.  1.
         11    1    5    5    0    0 -0.74840574723E+02 -0.12641588746E+03 -0.32990656617E+03  0.36113768929E+03  0.00000000000E+00 0.  1.
        -11    1    5    5    0    0  0.57886293477E+01 -0.13791286490E+03 -0.21917016116E+03  0.25901549389E+03  0.00000000000E+00 0. -1.
          2    1    6    6  503    0 -0.28006175665E+02  0.98808428646E+01  0.71516248960E+02  0.77437399210E+02  0.00000000000E+00 0.  1.
         -2    1    6    6    0  503  0.17094505407E+02  0.14323668701E+03  0.20730815587E+03  0.25255819549E+03  0.00000000000E+00 0. -1.
<mgrwt>
<rscale>  0 0.11470400E+04</rscale>
<asrwt>0</asrwt>
<pdfrwt beam="1">  1        2 0.13808547E+00 0.11470400E+04</pdfrwt>
<pdfrwt beam="2">  1       -1 0.56379658E-01 0.11470400E+04</pdfrwt>
<totfact> 0.10585235E+02</totfact>
</mgrwt>
</event>
<event>
12    6  0.1556619E-007  0.2240176E+04  0.7818608E-02  0.8501890E-01
          2   -1    0    0  501    0  0.00000000000E+00  0.00000000000E+00  0.17021006032E+04  0.17021006032E+04  0.00000000000E+00 0. -1.
         -1   -1    0    0    0  501 -0.00000000000E+00 -0.00000000000E+00 -0.73708726712E+03  0.73708726712E+03  0.00000000000E+00 0.  1.
         24    2    1    2    0    0  0.32112217127E+03 -0.18052316357E+03 -0.52787607507E+03  0.64871853697E+03  0.80464452507E+02 0.  0.
        254    2    1    2    0    0 -0.32112217127E+03  0.18052316357E+03  0.14928894111E+04  0.17904693333E+04  0.91725327924E+03 0.  0.
         23    2    4    4    0    0 -0.61216808994E+03  0.36204005264E+02  0.11656390844E+04  0.13205243213E+04  0.94918426545E+02 0.  0.
         23    2    4    4    0    0  0.29104591867E+03  0.14431915830E+03  0.32725032675E+03  0.46994501206E+03  0.90663067311E+02 0.  0.
          2    1    3    3  502    0  0.13363152980E+03 -0.32782850412E+02 -0.17331831820E+03  0.22129469144E+03  0.00000000000E+00 0. -1.
         -1    1    3    3    0  502  0.18749064146E+03 -0.14774031316E+03 -0.35455775687E+03  0.42742384553E+03  0.00000000000E+00 0.  1.
         11    1    5    5    0    0 -0.59235900996E+03  0.16483385473E+02  0.11131224590E+04  0.12610323181E+04  0.00000000000E+00 0. -1.
        -11    1    5    5    0    0 -0.19809079977E+02  0.19720619791E+02  0.52516625395E+02  0.59492003138E+02  0.00000000000E+00 0.  1.
          4    1    6    6  503    0  0.11102962131E+02 -0.48828215627E+01 -0.24968662295E+01  0.12383539699E+02  0.00000000000E+00 0.  1.
         -4    1    6    6    0  503  0.27994295654E+03  0.14920197987E+03  0.32974719298E+03  0.45756147237E+03  0.00000000000E+00 0. -1.
<mgrwt>
<rscale>  0 0.22401756E+04</rscale>
<asrwt>0</asrwt>
<pdfrwt beam="1">  1        2 0.26186163E+00 0.22401756E+04</pdfrwt>
<pdfrwt beam="2">  1       -1 0.11339804E+00 0.22401756E+04</pdfrwt>
<totfact> 0.72027034E+00</totfact>
</mgrwt>
</event>
<event>
12    6  0.1556619E-007  0.2045670E+04  0.7818608E-02  0.8585561E-01
          2   -1    0    0  501    0  0.00000000000E+00  0.00000000000E+00  0.50440062147E+03  0.50440062147E+03  0.00000000000E+00 0. -1.
         -1   -1    0    0    0  501 -0.00000000000E+00 -0.00000000000E+00 -0.20741283906E+04  0.20741283906E+04  0.00000000000E+00 0.  1.
         24    2    1    2    0    0 -0.53963304911E+03 -0.45999386984E+03 -0.10849551138E+03  0.72152338698E+03  0.77630754135E+02 0.  0.
        254    2    1    2    0    0  0.53963304911E+03  0.45999386984E+03 -0.14612322578E+04  0.18570056251E+04  0.90026217993E+03 0.  0.
         23    2    4    4    0    0  0.12033593151E+03  0.33752031494E+03 -0.45486420714E+02  0.37256826108E+03  0.91309338416E+02 0.  0.
         23    2    4    4    0    0  0.41929711760E+03  0.12247355490E+03 -0.14157458371E+04  0.14844373641E+04  0.91696063959E+02 0.  0.
          4    1    3    3  502    0 -0.42437973752E+03 -0.31917835676E+03 -0.90496561199E+02  0.53866744159E+03  0.00000000000E+00 0. -1.
         -3    1    3    3    0  502 -0.11525331159E+03 -0.14081551308E+03 -0.17998950185E+02  0.18285594539E+03  0.00000000000E+00 0.  1.
         11    1    5    5    0    0  0.18245026068E+02  0.26195369251E+02 -0.31173518026E+02  0.44619127877E+02  0.00000000000E+00 0. -1.
        -11    1    5    5    0    0  0.10209090544E+03  0.31132494569E+03 -0.14312902688E+02  0.32794913320E+03  0.00000000000E+00 0.  1.
          1    1    6    6  503    0  0.44274538002E+02  0.15031164899E+02 -0.77707194032E+02  0.90689462661E+02  0.00000000000E+00 0. -1.
         -1    1    6    6    0  503  0.37502257960E+03  0.10744239000E+03 -0.13380386430E+04  0.13937479014E+04  0.00000000000E+00 0.  1.
<mgrwt>
<rscale>  0 0.20456702E+04</rscale>
<asrwt>0</asrwt>
<pdfrwt beam="1">  1        2 0.77600098E-01 0.20456702E+04</pdfrwt>
<pdfrwt beam="2">  1       -1 0.31909667E+00 0.20456702E+04</pdfrwt>
<totfact> 0.16004080E+00</totfact>
</mgrwt>
</event>
<event>
12    6  0.1556619E-007  0.2496535E+04  0.7818608E-02  0.8404221E-01
          2   -1    0    0  501    0  0.00000000000E+00  0.00000000000E+00  0.11232028482E+04  0.11232028482E+04  0.00000000000E+00 0. -1.
         -1   -1    0    0    0  501 -0.00000000000E+00 -0.00000000000E+00 -0.13872572245E+04  0.13872572245E+04  0.00000000000E+00 0.  1.
         24    2    1    2    0    0  0.14561589780E+03  0.91913618283E+03  0.44520122280E+03  0.10346796288E+04  0.79639771305E+02 0.  0.
        254    2    1    2    0    0 -0.14561589780E+03 -0.91913618283E+03 -0.70925559913E+03  0.14757804439E+04  0.89937150356E+03 0.  0.
         23    2    4    4    0    0 -0.14076454235E+03  0.14487797588E+03 -0.16010615589E+03  0.27433492227E+03  0.93922223900E+02 0.  0.
         23    2    4    4    0    0 -0.48513554454E+01 -0.10640141587E+04 -0.54914944323E+03  0.12014455216E+04  0.98775325148E+02 0.  0.
          4    1    3    3  502    0  0.12865084760E+03  0.69273831095E+03  0.36787880281E+03  0.79484100397E+03  0.00000000000E+00 0. -1.
         -3    1    3    3    0  502  0.16965050200E+02  0.22639787189E+03  0.77322419998E+02  0.23983862482E+03  0.00000000000E+00 0.  1.
         11    1    5    5    0    0  0.18045959764E+01 -0.76292453170E+01  0.39875110836E+01  0.87955781724E+01  0.00000000000E+00 0. -1.
        -11    1    5    5    0    0 -0.14256913833E+03  0.15250722119E+03 -0.16409366698E+03  0.26553934409E+03  0.00000000000E+00 0.  1.
          1    1    6    6  503    0  0.15545643996E+01 -0.13455248670E+02 -0.22480023358E+02  0.26245225041E+02  0.00000000000E+00 0. -1.
         -1    1    6    6    0  503 -0.64059198450E+01 -0.10505589100E+04 -0.52666941988E+03  0.11752002966E+04  0.00000000000E+00 0.  1.
<mgrwt>
<rscale>  0 0.24965346E+04</rscale>
<asrwt>0</asrwt>
<pdfrwt beam="1">  1        2 0.17280044E+00 0.24965346E+04</pdfrwt>
<pdfrwt beam="2">  1       -1 0.21342419E+00 0.24965346E+04</pdfrwt>
<totfact> 0.26124785E+00</totfact>
</mgrwt>
</event>
<event>
12    6  0.1556619E-007  0.1865415E+04  0.7818608E-02  0.8672266E-01
         -1   -1    0    0    0  501 -0.00000000000E+00  0.00000000000E+00  0.86502135774E+03  0.86502135774E+03  0.00000000000E+00 0.  1.
          2   -1    0    0  501    0  0.00000000000E+00 -0.00000000000E+00 -0.10056895782E+04  0.10056895782E+04  0.00000000000E+00 0. -1.
         24    2    1    2    0    0  0.37160398132E+03  0.41382147863E+03  0.38535121079E+03  0.68147973732E+03  0.81125468387E+02 0.  0.
        254    2    1    2    0    0 -0.37160398132E+03 -0.41382147863E+03 -0.52601943123E+03  0.11892311986E+04  0.91007508842E+03 0.  0.
         23    2    4    4    0    0 -0.10350474684E+03 -0.63376092547E+03 -0.14228664061E+03  0.66413672617E+03  0.92010649885E+02 0.  0.
         23    2    4    4    0    0 -0.26809923448E+03  0.21993944684E+03 -0.38373279062E+03  0.52509447242E+03  0.90679603883E+02 0.  0.
          4    1    3    3  502    0  0.56375725488E+02  0.34174610161E+02  0.68408307883E+02  0.95004331435E+02  0.00000000000E+00 0. -1.
         -3    1    3    3    0  502  0.31522825583E+03  0.37964686847E+03  0.31694290291E+03  0.58647540589E+03  0.00000000000E+00 0.  1.
         11    1    5    5    0    0 -0.22313841863E+02 -0.38363498683E+02  0.70831145020E+01  0.44942586496E+02  0.00000000000E+00 0. -1.
        -11    1    5    5    0    0 -0.81190904977E+02 -0.59539742678E+03 -0.14936975511E+03  0.61919413968E+03  0.00000000000E+00 0.  1.
          4    1    6    6  503    0 -0.92023939737E+02  0.30005964687E+02 -0.77283153201E+02  0.12386060379E+03  0.00000000000E+00 0. -1.
         -4    1    6    6    0  503 -0.17607529474E+03  0.18993348215E+03 -0.30644963742E+03  0.40123386863E+03  0.00000000000E+00 0.  1.
<mgrwt>
<rscale>  0 0.18654147E+04</rscale>
<asrwt>0</asrwt>
<pdfrwt beam="1">  1        2 0.15472147E+00 0.18654147E+04</pdfrwt>
<pdfrwt beam="2">  1       -1 0.13308021E+00 0.18654147E+04</pdfrwt>
<totfact> 0.12788591E+01</totfact>
</mgrwt>
</event>
<event>
12    6  0.1556619E-007  0.1164754E+04  0.7818608E-02  0.9144279E-01
         -1   -1    0    0    0  501 -0.00000000000E+00  0.00000000000E+00  0.27335159326E+03  0.27335159326E+03  0.00000000000E+00 0.  1.
          2   -1    0    0  501    0  0.00000000000E+00 -0.00000000000E+00 -0.12407570714E+04  0.12407570714E+04  0.00000000000E+00 0. -1.
         24    2    1    2    0    0  0.22904615867E+03 -0.26651813228E+02 -0.13641122144E+03  0.27925875228E+03  0.78771615724E+02 0.  0.
        254    2    1    2    0    0 -0.22904615867E+03  0.26651813228E+02 -0.83099425674E+03  0.12348499124E+04  0.88381581198E+03 0.  0.
         23    2    4    4    0    0 -0.28603304486E+03 -0.98895165642E+02  0.66040313265E+02  0.32263950931E+03  0.90220693048E+02 0.  0.
         23    2    4    4    0    0  0.56986886194E+02  0.12554697887E+03 -0.89703457000E+03  0.91221040310E+03  0.91908925826E+02 0.  0.
          2    1    3    3  502    0  0.20603106192E+03 -0.15330957940E+02 -0.14477941908E+03  0.25227944216E+03  0.00000000000E+00 0. -1.
         -1    1    3    3    0  502  0.23015096748E+02 -0.11320855288E+02  0.83681976467E+01  0.26979310121E+02  0.00000000000E+00 0.  1.
         11    1    5    5    0    0 -0.24945424230E+03 -0.51556238118E+02  0.64633749351E+02  0.26279837565E+03  0.00000000000E+00 0.  1.
        -11    1    5    5    0    0 -0.36578802565E+02 -0.47338927525E+02  0.14065639147E+01  0.59841133665E+02  0.00000000000E+00 0. -1.
          4    1    6    6  503    0 -0.18195365218E+02  0.39235102418E+01 -0.18685624015E+03  0.18778104199E+03  0.00000000000E+00 0. -1.
         -4    1    6    6    0  503  0.75182251412E+02  0.12162346863E+03 -0.71017832985E+03  0.72442936111E+03  0.00000000000E+00 0.  1.
<mgrwt>
<rscale>  0 0.11647539E+04</rscale>
<asrwt>0</asrwt>
<pdfrwt beam="1">  1        2 0.19088569E+00 0.11647539E+04</pdfrwt>
<pdfrwt beam="2">  1       -1 0.42054093E-01 0.11647539E+04</pdfrwt>
<totfact> 0.11208458E+02</totfact>
</mgrwt>
</event>
<event>
12    6  0.1556619E-007  0.2336170E+04  0.7818608E-02  0.8463795E-01
         -1   -1    0    0    0  501 -0.00000000000E+00  0.00000000000E+00  0.72005931941E+03  0.72005931941E+03  0.00000000000E+00 0.  1.
          2   -1    0    0  501    0  0.00000000000E+00 -0.00000000000E+00 -0.18948753505E+04  0.18948753505E+04  0.00000000000E+00 0. -1.
         24    2    1    2    0    0  0.92724249783E+03  0.13807598781E+03 -0.23534500782E+03  0.96979166169E+03  0.79151539446E+02 0.  0.
        254    2    1    2    0    0 -0.92724249783E+03 -0.13807598781E+03 -0.93947102330E+03  0.16451430082E+04  0.97213480843E+03 0.  0.
         23    2    4    4    0    0 -0.10993220649E+03  0.18479032525E+03 -0.68790758477E+03  0.72648026513E+03  0.91236922952E+02 0.  0.
         23    2    4    4    0    0 -0.81731029133E+03 -0.32286631307E+03 -0.25156343853E+03  0.91866274311E+03  0.91751313577E+02 0.  0.
          2    1    3    3  502    0  0.28122147701E+03  0.70152717128E+02 -0.48478525913E+02  0.29386576923E+03  0.00000000000E+00 0. -1.
         -1    1    3    3    0  502  0.64602102082E+03  0.67923270687E+02 -0.18686648190E+03  0.67592589246E+03  0.00000000000E+00 0.  1.
         11    1    5    5    0    0 -0.11991453540E+03  0.15310578254E+03 -0.51685615211E+03  0.55223288423E+03  0.00000000000E+00 0. -1.
        -11    1    5    5    0    0  0.99823289065E+01  0.31684542718E+02 -0.17105143266E+03  0.17424738090E+03  0.00000000000E+00 0.  1.
          1    1    6    6  503    0 -0.81361236007E+03 -0.31503783059E+03 -0.25554970123E+03  0.90913120998E+03  0.00000000000E+00 0. -1.
         -1    1    6    6    0  503 -0.36979312577E+01 -0.78284824773E+01  0.39862626954E+01  0.95315331275E+01  0.00000000000E+00 0.  1.
<mgrwt>
<rscale>  0 0.23361701E+04</rscale>
<asrwt>0</asrwt>
<pdfrwt beam="1">  1        2 0.29151928E+00 0.23361701E+04</pdfrwt>
<pdfrwt beam="2">  1       -1 0.11077836E+00 0.23361701E+04</pdfrwt>
<totfact> 0.59020940E+00</totfact>
</mgrwt>
</event>
<event>
12    6  0.1556619E-007  0.1517484E+04  0.7818608E-02  0.8872909E-01
          2   -1    0    0  501    0  0.00000000000E+00  0.00000000000E+00  0.17226341163E+04  0.17226341163E+04  0.00000000000E+00 0. -1.
         -1   -1    0    0    0  501 -0.00000000000E+00 -0.00000000000E+00 -0.33419120353E+03  0.33419120353E+03  0.00000000000E+00 0.  1.
         24    2    1    2    0    0 -0.12381878168E+03 -0.82613849415E+02 -0.17283882518E+03  0.24298525436E+03  0.83740286216E+02 0.  0.
        254    2    1    2    0    0  0.12381878168E+03  0.82613849415E+02  0.15612817379E+04  0.18138400654E+04  0.91118548003E+03 0.  0.
         23    2    4    4    0    0  0.26405062868E+03  0.37987226679E+03  0.13047592098E+04  0.13872583666E+04  0.89797030527E+02 0.  0.
         23    2    4    4    0    0 -0.14023184700E+03 -0.29725841738E+03  0.25652252811E+03  0.42658169878E+03  0.90225277472E+02 0.  0.
          4    1    3    3  502    0 -0.16317455180E+02 -0.51980100606E+01  0.79290954500E+01  0.18871915822E+02  0.00000000000E+00 0. -1.
         -3    1    3    3    0  502 -0.10750132650E+03 -0.77415839355E+02 -0.18076792063E+03  0.22411333854E+03  0.00000000000E+00 0.  1.
         11    1    5    5    0    0  0.17548360459E+03  0.19670670008E+03  0.82658167344E+03  0.86759742058E+03  0.00000000000E+00 0.  1.
        -11    1    5    5    0    0  0.88567024091E+02  0.18316556671E+03  0.47817753636E+03  0.51966094606E+03  0.00000000000E+00 0. -1.
          1    1    6    6  503    0 -0.13097288705E+03 -0.25837739299E+03  0.25603689144E+03  0.38661048114E+03  0.00000000000E+00 0. -1.
         -1    1    6    6    0  503 -0.92589599578E+01 -0.38881024387E+02  0.48563666708E+00  0.39971217643E+02  0.00000000000E+00 0.  1.
<mgrwt>
<rscale>  0 0.15174837E+04</rscale>
<asrwt>0</asrwt>
<pdfrwt beam="1">  1        2 0.26502063E+00 0.15174837E+04</pdfrwt>
<pdfrwt beam="2">  1       -1 0.51414032E-01 0.15174837E+04</pdfrwt>
<totfact> 0.39850267E+01</totfact>
</mgrwt>
</event>
<event>
12    6  0.1556619E-007  0.1891568E+04  0.7818608E-02  0.8659065E-01
          2   -1    0    0  501    0  0.00000000000E+00  0.00000000000E+00  0.47643715892E+03  0.47643715892E+03  0.00000000000E+00 0. -1.
         -1   -1    0    0    0  501 -0.00000000000E+00 -0.00000000000E+00 -0.18774920682E+04  0.18774920682E+04  0.00000000000E+00 0.  1.
         24    2    1    2    0    0 -0.24085123400E+03  0.77205476498E+02 -0.13877398466E+04  0.14136343275E+04  0.92574984217E+02 0.  0.
        254    2    1    2    0    0  0.24085123400E+03 -0.77205476498E+02 -0.13315062739E+02  0.94029489962E+03  0.90554249201E+03 0.  0.
         23    2    4    4    0    0  0.40573857118E+03  0.27706429346E+03  0.12569979492E+03  0.51570669575E+03  0.93619158004E+02 0.  0.
         23    2    4    4    0    0 -0.16488733718E+03 -0.35426976996E+03 -0.13901485766E+03  0.42458820386E+03  0.90857626763E+02 0.  0.
          2    1    3    3  502    0 -0.75627605686E+01  0.30469419914E+02 -0.15705175362E+03  0.16015877813E+03  0.00000000000E+00 0. -1.
         -1    1    3    3    0  502 -0.23328847344E+03  0.46736056584E+02 -0.12306880929E+04  0.12534755494E+04  0.00000000000E+00 0.  1.
         11    1    5    5    0    0  0.18591864088E+03  0.18271141841E+03  0.57106125254E+02  0.26685260536E+03  0.00000000000E+00 0.  1.
        -11    1    5    5    0    0  0.21981993030E+03  0.94352875052E+02  0.68593669663E+02  0.24885409040E+03  0.00000000000E+00 0. -1.
          1    1    6    6  503    0 -0.87505684646E+02 -0.89264895119E+02 -0.38687401337E+02  0.13085175340E+03  0.00000000000E+00 0. -1.
         -1    1    6    6    0  503 -0.77381652533E+02 -0.26500487484E+03 -0.10032745632E+03  0.29373645046E+03  0.00000000000E+00 0.  1.
<mgrwt>
<rscale>  0 0.18915676E+04</rscale>
<asrwt>0</asrwt>
<pdfrwt beam="1">  1        2 0.73298024E-01 0.18915676E+04</pdfrwt>
<pdfrwt beam="2">  1       -1 0.28884494E+00 0.18915676E+04</pdfrwt>
<totfact> 0.27224582E+00</totfact>
</mgrwt>
</event>
<event>
12    6  0.1556619E-007  0.1785577E+04  0.7818608E-02  0.8714007E-01
         -1   -1    0    0    0  501 -0.00000000000E+00  0.00000000000E+00  0.48141143049E+03  0.48141143049E+03  0.00000000000E+00 0.  1.
          2   -1    0    0  501    0  0.00000000000E+00 -0.00000000000E+00 -0.16556974514E+04  0.16556974514E+04  0.00000000000E+00 0. -1.
         24    2    1    2    0    0  0.33764471885E+03 -0.29505938559E+03  0.14272445499E+03  0.47731248592E+03  0.79955875175E+02 0.  0.
        254    2    1    2    0    0 -0.33764471885E+03  0.29505938559E+03 -0.13170104759E+04  0.16597963959E+04  0.90517594157E+03 0.  0.
         23    2    4    4    0    0 -0.42263535431E+03  0.56044580581E+03 -0.81283656275E+03  0.10778071333E+04  0.90800852778E+02 0.  0.
         23    2    4    4    0    0  0.84990635460E+02 -0.26538642021E+03 -0.50417391313E+03  0.58198926265E+03  0.82866199456E+02 0.  0.
          4    1    3    3  502    0  0.27559275600E+03 -0.20619080237E+03  0.85079144747E+02  0.35454826894E+03  0.00000000000E+00 0. -1.
         -3    1    3    3    0  502  0.62051962849E+02 -0.88868583227E+02  0.57645310243E+02  0.12276421698E+03  0.00000000000E+00 0.  1.
         11    1    5    5    0    0 -0.37358268779E+03  0.49533277266E+03 -0.66847936735E+03  0.91202151557E+03  0.00000000000E+00 0. -1.
        -11    1    5    5    0    0 -0.49052666516E+02  0.65113033142E+02 -0.14435719541E+03  0.16578561772E+03  0.00000000000E+00 0.  1.
          3    1    6    6  503    0  0.18303277164E+02 -0.12140959841E+02 -0.84525610095E+02  0.87332649237E+02  0.00000000000E+00 0. -1.
         -3    1    6    6    0  503  0.66687358297E+02 -0.25324546037E+03 -0.41964830303E+03  0.49465661341E+03  0.00000000000E+00 0.  1.
<mgrwt>
<rscale>  0 0.17855774E+04</rscale>
<asrwt>0</asrwt>
<pdfrwt beam="1">  1        2 0.25472269E+00 0.17855774E+04</pdfrwt>
<pdfrwt beam="2">  1       -1 0.74063296E-01 0.17855774E+04</pdfrwt>
<totfact> 0.20514342E+01</totfact>
</mgrwt>
</event>
<event>
12    6  0.1556619E-007  0.1931271E+04  0.7818608E-02  0.8639446E-01
         -1   -1    0    0    0  501 -0.00000000000E+00  0.00000000000E+00  0.11168909259E+04  0.11168909259E+04  0.00000000000E+00 0.  1.
          2   -1    0    0  501    0  0.00000000000E+00 -0.00000000000E+00 -0.83486379923E+03  0.83486379923E+03  0.00000000000E+00 0. -1.
         24    2    1    2    0    0 -0.50965121465E+03 -0.26871844018E+03 -0.37468142127E+03  0.69187543480E+03  0.79696230407E+02 0.  0.
        254    2    1    2    0    0  0.50965121465E+03  0.26871844018E+03  0.65670854790E+03  0.12598792903E+04  0.90778617996E+03 0.  0.
         23    2    4    4    0    0  0.11026032182E+03  0.51273035941E+03  0.56112718003E+03  0.77346967247E+03  0.91333794530E+02 0.  0.
         23    2    4    4    0    0  0.39939089283E+03 -0.24401191923E+03  0.95581367864E+02  0.48640961782E+03  0.91671240980E+02 0.  0.
          2    1    3    3  502    0 -0.40257963494E+03 -0.22718566413E+03 -0.33295069269E+03  0.56968399330E+03  0.00000000000E+00 0. -1.
         -1    1    3    3    0  502 -0.10707157970E+03 -0.41532776049E+02 -0.41730728579E+02  0.12219144149E+03  0.00000000000E+00 0.  1.
         11    1    5    5    0    0  0.91162760807E+02  0.50204939432E+03  0.53358590128E+03  0.73829408594E+03  0.00000000000E+00 0. -1.
        -11    1    5    5    0    0  0.19097561014E+02  0.10680965096E+02  0.27541278757E+02  0.35175586528E+02  0.00000000000E+00 0.  1.
          2    1    6    6  503    0  0.27920033223E+03 -0.16381348205E+03  0.10833701124E+03  0.34135698385E+03  0.00000000000E+00 0. -1.
         -2    1    6    6    0  503  0.12019056060E+03 -0.80198437184E+02 -0.12755643377E+02  0.14505263397E+03  0.00000000000E+00 0.  1.
<mgrwt>
<rscale>  0 0.19312709E+04</rscale>
<asrwt>0</asrwt>
<pdfrwt beam="1">  1        2 0.12844058E+00 0.19312709E+04</pdfrwt>
<pdfrwt beam="2">  1       -1 0.17182937E+00 0.19312709E+04</pdfrwt>
<totfact> 0.82728379E+00</totfact>
</mgrwt>
</event>
<event>
12    6  0.1556619E-007  0.1562679E+04  0.7818608E-02  0.8843810E-01
          2   -1    0    0  501    0  0.00000000000E+00  0.00000000000E+00  0.46930630702E+03  0.46930630702E+03  0.00000000000E+00 0. -1.
         -1   -1    0    0    0  501 -0.00000000000E+00 -0.00000000000E+00 -0.13008370477E+04  0.13008370477E+04  0.00000000000E+00 0.  1.
         24    2    1    2    0    0 -0.18158775950E+03 -0.21005187966E+03 -0.77670005352E+03  0.82860172774E+03  0.78879297263E+02 0.  0.
        254    2    1    2    0    0  0.18158775950E+03  0.21005187966E+03 -0.54830687156E+02  0.94154162697E+03  0.89799683992E+03 0.  0.
         23    2    4    4    0    0  0.27555175076E+03 -0.21667344299E+03  0.21365683544E+03  0.42056684880E+03  0.91384258679E+02 0.  0.
         23    2    4    4    0    0 -0.93963991253E+02  0.42672532265E+03 -0.26848752259E+03  0.52097477817E+03  0.91681170684E+02 0.  0.
          2    1    3    3  502    0 -0.77909072279E+02 -0.65219876093E+02 -0.19001106245E+03  0.21547078603E+03  0.00000000000E+00 0. -1.
         -1    1    3    3    0  502 -0.10367868722E+03 -0.14483200357E+03 -0.58668899107E+03  0.61313094171E+03  0.00000000000E+00 0.  1.
         11    1    5    5    0    0  0.24337172346E+03 -0.20345578256E+03  0.15665219372E+03  0.35378519052E+03  0.00000000000E+00 0.  1.
        -11    1    5    5    0    0  0.32180027300E+02 -0.13217660430E+02  0.57004641720E+02  0.66781658274E+02  0.00000000000E+00 0. -1.
          2    1    6    6  503    0 -0.74326579439E+02  0.19570854994E+03 -0.16739599897E+03  0.26804420792E+03  0.00000000000E+00 0. -1.
         -2    1    6    6    0  503 -0.19637411815E+02  0.23101677271E+03 -0.10109152362E+03  0.25293057025E+03  0.00000000000E+00 0.  1.
<mgrwt>
<rscale>  0 0.15626785E+04</rscale>
<asrwt>0</asrwt>
<pdfrwt beam="1">  1        2 0.72200970E-01 0.15626785E+04</pdfrwt>
<pdfrwt beam="2">  1       -1 0.20012878E+00 0.15626785E+04</pdfrwt>
<totfact> 0.10942504E+01</totfact>
</mgrwt>
</event>
<event>
12    6  0.1556619E-007  0.1329723E+04  0.7818608E-02  0.9006321E-01
         -1   -1    0    0    0  501 -0.00000000000E+00  0.00000000000E+00  0.75620231900E+03  0.75620231900E+03  0.00000000000E+00 0.  1.
          2   -1    0    0  501    0  0.00000000000E+00 -0.00000000000E+00 -0.58455400552E+03  0.58455400552E+03  0.00000000000E+00 0. -1.
         24    2    1    2    0    0 -0.10901043544E+03 -0.13792556548E+03  0.35543978316E+03  0.40364432038E+03  0.75396029583E+02 0.  0.
        254    2    1    2    0    0  0.10901043544E+03  0.13792556548E+03 -0.18379146968E+03  0.93711200413E+03  0.90193839441E+03 0.  0.
         23    2    4    4    0    0  0.40287687247E+03  0.33693203756E+02  0.17723584708E+03  0.45146960347E+03  0.94695570212E+02 0.  0.
         23    2    4    4    0    0 -0.29386643704E+03  0.10423236173E+03 -0.36102731676E+03  0.48564240066E+03  0.91027192799E+02 0.  0.
          2    1    3    3  502    0 -0.10899553904E+02 -0.64136387033E+02  0.88593804760E+02  0.10991423320E+03  0.00000000000E+00 0. -1.
         -1    1    3    3    0  502 -0.98110881532E+02 -0.73789178449E+02  0.26684597840E+03  0.29373008719E+03  0.00000000000E+00 0.  1.
         11    1    5    5    0    0  0.20605012246E+03 -0.24707263900E+02  0.64897059509E+02  0.21743672686E+03  0.00000000000E+00 0.  1.
        -11    1    5    5    0    0  0.19682675002E+03  0.58400467656E+02  0.11233878757E+03  0.23403287661E+03  0.00000000000E+00 0. -1.
          4    1    6    6  503    0 -0.14687956911E+03  0.89261720944E+02 -0.15056643125E+03  0.22849838701E+03  0.00000000000E+00 0.  1.
         -4    1    6    6    0  503 -0.14698686793E+03  0.14970640783E+02 -0.21046088550E+03  0.25714401365E+03  0.00000000000E+00 0. -1.
<mgrwt>
<rscale>  0 0.13297234E+04</rscale>
<asrwt>0</asrwt>
<pdfrwt beam="1">  1        2 0.89931386E-01 0.13297234E+04</pdfrwt>
<pdfrwt beam="2">  1       -1 0.11633882E+00 0.13297234E+04</pdfrwt>
<totfact> 0.38213198E+01</totfact>
</mgrwt>
</event>
<event>
12    6  0.1556619E-007  0.1645099E+04  0.7818608E-02  0.8793311E-01
          2   -1    0    0  501    0  0.00000000000E+00  0.00000000000E+00  0.66106437145E+03  0.66106437145E+03  0.00000000000E+00 0. -1.
         -1   -1    0    0    0  501 -0.00000000000E+00 -0.00000000000E+00 -0.10234819799E+04  0.10234819799E+04  0.00000000000E+00 0.  1.
         24    2    1    2    0    0  0.13843918238E+03 -0.25280219182E+03  0.38375081684E+03  0.48545668304E+03  0.73001001887E+02 0.  0.
        254    2    1    2    0    0 -0.13843918238E+03  0.25280219182E+03 -0.74616842525E+03  0.11990896683E+04  0.89329410516E+03 0.  0.
         23    2    4    4    0    0  0.65785647458E+02  0.52476917050E+03 -0.63167706125E+03  0.82910138082E+03  0.93181308465E+02 0.  0.
         23    2    4    4    0    0 -0.20422482984E+03 -0.27196697868E+03 -0.11449136400E+03  0.36998828746E+03  0.90051328767E+02 0.  0.
          2    1    3    3  502    0  0.10939971131E+03 -0.21776674156E+03  0.35828064766E+03  0.43330782713E+03  0.00000000000E+00 0. -1.
         -1    1    3    3    0  502  0.29039471067E+02 -0.35035450259E+02  0.25470169182E+02  0.52148855911E+02  0.00000000000E+00 0.  1.
         11    1    5    5    0    0 -0.23499366655E+02  0.80954064376E+02 -0.10175605390E+03  0.13213657812E+03  0.00000000000E+00 0. -1.
        -11    1    5    5    0    0  0.89285014112E+02  0.44381510612E+03 -0.52992100735E+03  0.69696480270E+03  0.00000000000E+00 0.  1.
          2    1    6    6  503    0 -0.12483125182E+03 -0.11843529517E+03 -0.20642718497E+02  0.17330863337E+03  0.00000000000E+00 0. -1.
         -2    1    6    6    0  503 -0.79393578021E+02 -0.15353168350E+03 -0.93848645500E+02  0.19667965409E+03  0.00000000000E+00 0.  1.
<mgrwt>
<rscale>  0 0.16450987E+04</rscale>
<asrwt>0</asrwt>
<pdfrwt beam="1">  1        2 0.10170221E+00 0.16450987E+04</pdfrwt>
<pdfrwt beam="2">  1       -1 0.15745877E+00 0.16450987E+04</pdfrwt>
<totfact> 0.14684771E+01</totfact>
</mgrwt>
</event>
<event>
12    6  0.1556619E-007  0.1983973E+04  0.7818608E-02  0.8614151E-01
          2   -1    0    0  501    0  0.00000000000E+00  0.00000000000E+00  0.21831495514E+04  0.21831495514E+04  0.00000000000E+00 0. -1.
         -1   -1    0    0    0  501 -0.00000000000E+00 -0.00000000000E+00 -0.45074189355E+03  0.45074189355E+03  0.00000000000E+00 0.  1.
         24    2    1    2    0    0  0.29523116811E+03  0.59481110162E+03  0.12930027031E+03  0.68130656777E+03  0.80612592964E+02 0.  0.
        254    2    1    2    0    0 -0.29523116811E+03 -0.59481110162E+03  0.16031073876E+04  0.19525848772E+04  0.89536178016E+03 0.  0.
         23    2    4    4    0    0 -0.35399120354E+02  0.18654413687E+03  0.93094648294E+02  0.23020525873E+03  0.90972715060E+02 0.  0.
         23    2    4    4    0    0 -0.25983204775E+03 -0.78135523849E+03  0.15100127393E+04  0.17223796185E+04  0.91784397341E+02 0.  0.
          4    1    3    3  502    0  0.10510438295E+03  0.23930978504E+03  0.89166972563E+02  0.27616454067E+03  0.00000000000E+00 0. -1.
         -3    1    3    3    0  502  0.19012678516E+03  0.35550131659E+03  0.40133297747E+02  0.40514202710E+03  0.00000000000E+00 0.  1.
         11    1    5    5    0    0  0.95832430822E+01  0.15636373672E+01 -0.98088759040E+01  0.13802085215E+02  0.00000000000E+00 0.  1.
        -11    1    5    5    0    0 -0.44982363437E+02  0.18498049950E+03  0.10290352420E+03  0.21640317352E+03  0.00000000000E+00 0. -1.
          1    1    6    6  503    0 -0.13291204680E+03 -0.52081924005E+03  0.10247479297E+04  0.11571631745E+04  0.00000000000E+00 0. -1.
         -1    1    6    6    0  503 -0.12692000095E+03 -0.26053599845E+03  0.48526480957E+03  0.56521644397E+03  0.00000000000E+00 0.  1.
<mgrwt>
<rscale>  0 0.19839727E+04</rscale>
<asrwt>0</asrwt>
<pdfrwt beam="1">  1        2 0.33586916E+00 0.19839727E+04</pdfrwt>
<pdfrwt beam="2">  1       -1 0.69344908E-01 0.19839727E+04</pdfrwt>
<totfact> 0.11758168E+01</totfact>
</mgrwt>
</event>
<event>
12    6  0.1556619E-007  0.1701203E+04  0.7818608E-02  0.8760679E-01
          2   -1    0    0  501    0  0.00000000000E+00  0.00000000000E+00  0.24744657532E+04  0.24744657532E+04  0.00000000000E+00 0. -1.
         -1   -1    0    0    0  501 -0.00000000000E+00 -0.00000000000E+00 -0.29239544365E+03  0.29239544365E+03  0.00000000000E+00 0.  1.
         24    2    1    2    0    0 -0.25224647322E+02  0.47469389168E+03  0.15635217239E+03  0.50686469483E+03  0.80593073052E+02 0.  0.
        254    2    1    2    0    0  0.25224647322E+02 -0.47469389168E+03  0.20257181372E+04  0.22599965020E+04  0.88208822930E+03 0.  0.
         23    2    4    4    0    0 -0.84395931149E+02 -0.66416131664E+03  0.99703280282E+03  0.12044938411E+04  0.92185007820E+02 0.  0.
         23    2    4    4    0    0  0.10962057847E+03  0.18946742496E+03  0.10286853344E+04  0.10555026609E+04  0.89318384107E+02 0.  0.
          2    1    3    3  502    0 -0.23892971817E+02  0.11234043662E+03  0.69504498166E+02  0.13424650114E+03  0.00000000000E+00 0. -1.
         -1    1    3    3    0  502 -0.13316755049E+01  0.36235345506E+03  0.86847674221E+02  0.37261819369E+03  0.00000000000E+00 0.  1.
         11    1    5    5    0    0  0.12220935773E+02 -0.25886924470E+03  0.37884045610E+03  0.45900188268E+03  0.00000000000E+00 0. -1.
        -11    1    5    5    0    0 -0.96616866922E+02 -0.40529207193E+03  0.61819234672E+03  0.74549195844E+03  0.00000000000E+00 0.  1.
          4    1    6    6  503    0  0.44193700787E+02  0.15744504096E+03  0.70234180365E+03  0.72112830569E+03  0.00000000000E+00 0. -1.
         -4    1    6    6    0  503  0.65426877684E+02  0.32022384000E+02  0.32634353072E+03  0.33437435524E+03  0.00000000000E+00 0.  1.
<mgrwt>
<rscale>  0 0.17012025E+04</rscale>
<asrwt>0</asrwt>
<pdfrwt beam="1">  1        2 0.38068703E+00 0.17012025E+04</pdfrwt>
<pdfrwt beam="2">  1       -1 0.44983916E-01 0.17012025E+04</pdfrwt>
<totfact> 0.19152688E+01</totfact>
</mgrwt>
</event>
<event>
12    6  0.1556619E-007  0.1164593E+04  0.7818608E-02  0.9144426E-01
          2   -1    0    0  501    0  0.00000000000E+00  0.00000000000E+00  0.13010448188E+04  0.13010448188E+04  0.00000000000E+00 0. -1.
         -1   -1    0    0    0  501 -0.00000000000E+00 -0.00000000000E+00 -0.26061290328E+03  0.26061290328E+03  0.00000000000E+00 0.  1.
         24    2    1    2    0    0 -0.19036622706E+02 -0.32224898499E+02  0.51780640503E+03  0.52485579236E+03  0.77131657538E+02 0.  0.
        254    2    1    2    0    0  0.19036622706E+02  0.32224898499E+02  0.52262551045E+03  0.10368019297E+04  0.89466193622E+03 0.  0.
         23    2    4    4    0    0  0.26070627000E+03 -0.51130626256E+02 -0.14493074569E+03  0.31540383412E+03  0.88840066276E+02 0.  0.
         23    2    4    4    0    0 -0.24166964729E+03  0.83355524755E+02  0.66755625614E+03  0.72139809555E+03  0.97115885522E+02 0.  0.
          2    1    3    3  502    0 -0.15657298476E+02 -0.23816160149E+02  0.51437728693E+03  0.51516633604E+03  0.00000000000E+00 0. -1.
         -1    1    3    3    0  502 -0.33793242297E+01 -0.84087383502E+01  0.34291181082E+01  0.96894563259E+01  0.00000000000E+00 0.  1.
         11    1    5    5    0    0  0.18440133950E+03  0.60477011025E+01 -0.10220829656E+03  0.21091933194E+03  0.00000000000E+00 0. -1.
        -11    1    5    5    0    0  0.76304930494E+02 -0.57178327358E+02 -0.42722449126E+02  0.10448450218E+03  0.00000000000E+00 0.  1.
          1    1    6    6  503    0 -0.23460119612E+03  0.78661895700E+02  0.54490538445E+03  0.59845408601E+03  0.00000000000E+00 0. -1.
         -1    1    6    6    0  503 -0.70684511677E+01  0.46936290547E+01  0.12265087168E+03  0.12294400954E+03  0.00000000000E+00 0.  1.
<mgrwt>
<rscale>  0 0.11645927E+04</rscale>
<asrwt>0</asrwt>
<pdfrwt beam="1">  1        2 0.20016074E+00 0.11645927E+04</pdfrwt>
<pdfrwt beam="2">  1       -1 0.40094294E-01 0.11645927E+04</pdfrwt>
<totfact> 0.11277371E+02</totfact>
</mgrwt>
</event>
<event>
12    6  0.1556619E-007  0.1739857E+04  0.7818608E-02  0.8738953E-01
         -1   -1    0    0    0  501 -0.00000000000E+00  0.00000000000E+00  0.30115532381E+03  0.30115532381E+03  0.00000000000E+00 0.  1.
          2   -1    0    0  501    0  0.00000000000E+00 -0.00000000000E+00 -0.25129083176E+04  0.25129083176E+04  0.00000000000E+00 0. -1.
         24    2    1    2    0    0  0.14619007669E+03  0.60946328830E+02 -0.18031734201E+04  0.18118114681E+04  0.78360829418E+02 0.  0.
        254    2    1    2    0    0 -0.14619007669E+03 -0.60946328830E+02 -0.40857957365E+03  0.10022521732E+04  0.90138014025E+03 0.  0.
         23    2    4    4    0    0  0.36987282102E+03 -0.79687017102E+02 -0.13614930972E+03  0.41091376191E+03  0.84602368566E+02 0.  0.
         23    2    4    4    0    0 -0.51606289770E+03  0.18740688272E+02 -0.27243026394E+03  0.59133841133E+03  0.93758947428E+02 0.  0.
          2    1    3    3  502    0  0.11717661103E+03  0.38555339803E+02 -0.16371667382E+04  0.16418074799E+04  0.00000000000E+00 0. -1.
         -1    1    3    3    0  502  0.29013465655E+02  0.22390989027E+02 -0.16600668194E+03  0.17000398827E+03  0.00000000000E+00 0.  1.
         11    1    5    5    0    0  0.18063976167E+03  0.26165623954E+01 -0.75774242041E+02  0.19590636960E+03  0.00000000000E+00 0.  1.
        -11    1    5    5    0    0  0.18923305935E+03 -0.82303579498E+02 -0.60375067675E+02  0.21500739231E+03  0.00000000000E+00 0. -1.
          1    1    6    6  503    0 -0.20894853259E+03  0.45557290835E+02 -0.14132712848E+03  0.25633632841E+03  0.00000000000E+00 0. -1.
         -1    1    6    6    0  503 -0.30711436511E+03 -0.26816602563E+02 -0.13110313545E+03  0.33500208292E+03  0.00000000000E+00 0.  1.
<mgrwt>
<rscale>  0 0.17398571E+04</rscale>
<asrwt>0</asrwt>
<pdfrwt beam="1">  1        2 0.38660129E+00 0.17398571E+04</pdfrwt>
<pdfrwt beam="2">  1       -1 0.46331587E-01 0.17398571E+04</pdfrwt>
<totfact> 0.17161910E+01</totfact>
</mgrwt>
</event>
<event>
12    6  0.1556619E-007  0.1341857E+04  0.7818608E-02  0.8997015E-01
         -1   -1    0    0    0  501 -0.00000000000E+00  0.00000000000E+00  0.11666597940E+04  0.11666597940E+04  0.00000000000E+00 0.  1.
          2   -1    0    0  501    0  0.00000000000E+00 -0.00000000000E+00 -0.38584092304E+03  0.38584092304E+03  0.00000000000E+00 0. -1.
         24    2    1    2    0    0 -0.18909885279E+03  0.12835938990E+03  0.55027997135E+03  0.60128899385E+03  0.80659147989E+02 0.  0.
        254    2    1    2    0    0  0.18909885279E+03 -0.12835938990E+03  0.23053889962E+03  0.95121172320E+03  0.89410348898E+03 0.  0.
         23    2    4    4    0    0 -0.25333276706E+03 -0.11414774960E+03 -0.17825581262E+03  0.34130744219E+03  0.86651230552E+02 0.  0.
         23    2    4    4    0    0  0.44243161986E+03 -0.14211640298E+02  0.40879471224E+03  0.60990428101E+03  0.94458489638E+02 0.  0.
          4    1    3    3  502    0 -0.33518361147E+02 -0.78534949541E+01  0.59796495259E+02  0.68998396809E+02  0.00000000000E+00 0. -1.
         -3    1    3    3    0  502 -0.15558049165E+03  0.13621288485E+03  0.49048347609E+03  0.53229059704E+03  0.00000000000E+00 0.  1.
         11    1    5    5    0    0 -0.31139340113E+02  0.50374273524E+01 -0.48189939187E+02  0.57596045141E+02  0.00000000000E+00 0.  1.
        -11    1    5    5    0    0 -0.22219342695E+03 -0.11918517695E+03 -0.13006587344E+03  0.28371139705E+03  0.00000000000E+00 0. -1.
          2    1    6    6  503    0  0.92601134878E+02  0.32724875752E+02  0.10986449640E+03  0.14736381932E+03  0.00000000000E+00 0.  1.
         -2    1    6    6    0  503  0.34983048498E+03 -0.46936516050E+02  0.29893021584E+03  0.46254046169E+03  0.00000000000E+00 0. -1.
<mgrwt>
<rscale>  0 0.13418571E+04</rscale>
<asrwt>0</asrwt>
<pdfrwt beam="1">  1        2 0.59360143E-01 0.13418571E+04</pdfrwt>
<pdfrwt beam="2">  1       -1 0.17948612E+00 0.13418571E+04</pdfrwt>
<totfact> 0.19441884E+01</totfact>
</mgrwt>
</event>
<event>
12    6  0.1556619E-007  0.2067012E+04  0.7818608E-02  0.8575916E-01
         -1   -1    0    0    0  501 -0.00000000000E+00  0.00000000000E+00  0.96234008562E+03  0.96234008562E+03  0.00000000000E+00 0.  1.
          2   -1    0    0  501    0  0.00000000000E+00 -0.00000000000E+00 -0.11099344881E+04  0.11099344881E+04  0.00000000000E+00 0. -1.
         24    2    1    2    0    0 -0.62061512620E+02 -0.43020920699E+03  0.65207289116E+03  0.78753719446E+03  0.78001180355E+02 0.  0.
        254    2    1    2    0    0  0.62061512620E+02  0.43020920699E+03 -0.79966729360E+03  0.12847373792E+04  0.90672529466E+03 0.  0.
         23    2    4    4    0    0  0.46610337592E+03  0.17591018865E+03 -0.50682544817E+03  0.71673970707E+03  0.92989361022E+02 0.  0.
         23    2    4    4    0    0 -0.40404186330E+03  0.25429901833E+03 -0.29284184543E+03  0.56799767215E+03  0.94589593013E+02 0.  0.
          4    1    3    3  502    0 -0.32887104932E+01 -0.15994493937E+03  0.29818431410E+03  0.33838895434E+03  0.00000000000E+00 0. -1.
         -3    1    3    3    0  502 -0.58772802127E+02 -0.27026426761E+03  0.35388857706E+03  0.44914824011E+03  0.00000000000E+00 0.  1.
         11    1    5    5    0    0  0.25720112553E+03  0.10618465477E+03 -0.34615124418E+03  0.44412642764E+03  0.00000000000E+00 0. -1.
        -11    1    5    5    0    0  0.20890225039E+03  0.69725533887E+02 -0.16067420399E+03  0.27261327943E+03  0.00000000000E+00 0.  1.
          1    1    6    6  503    0 -0.18993275972E+03  0.14027434843E+03 -0.19576050484E+03  0.30671407092E+03  0.00000000000E+00 0. -1.
         -1    1    6    6    0  503 -0.21410910358E+03  0.11402466990E+03 -0.97081340593E+02  0.26128360123E+03  0.00000000000E+00 0.  1.
<mgrwt>
<rscale>  0 0.20670118E+04</rscale>
<asrwt>0</asrwt>
<pdfrwt beam="1">  1        2 0.17075915E+00 0.20670118E+04</pdfrwt>
<pdfrwt beam="2">  1       -1 0.14805232E+00 0.20670118E+04</pdfrwt>
<totfact> 0.81805669E+00</totfact>
</mgrwt>
</event>
<event>
12    6  0.1556619E-007  0.1570536E+04  0.7818608E-02  0.8838856E-01
         -1   -1    0    0    0  501 -0.00000000000E+00  0.00000000000E+00  0.90287512616E+03  0.90287512616E+03  0.00000000000E+00 0.  1.
          2   -1    0    0  501    0  0.00000000000E+00 -0.00000000000E+00 -0.68298044104E+03  0.68298044104E+03  0.00000000000E+00 0. -1.
         24    2    1    2    0    0 -0.17794470461E+02  0.45459138195E+03  0.30150624241E+03  0.55172341284E+03  0.80763496298E+02 0.  0.
        254    2    1    2    0    0  0.17794470461E+02 -0.45459138195E+03 -0.81611557297E+02  0.10341321544E+04  0.92509399451E+03 0.  0.
         23    2    4    4    0    0 -0.36719966817E+03 -0.17219507056E+02 -0.20397995758E+03  0.43021300548E+03  0.91341662218E+02 0.  0.
         23    2    4    4    0    0  0.38499413864E+03 -0.43737187489E+03  0.12236840029E+03  0.60391914888E+03  0.10114182747E+03 0.  0.
          2    1    3    3  502    0  0.57040131123E+01  0.12376697350E+03  0.42747172648E+02  0.13106532823E+03  0.00000000000E+00 0. -1.
         -1    1    3    3    0  502 -0.23498483574E+02  0.33082440845E+03  0.25875906977E+03  0.42065808460E+03  0.00000000000E+00 0.  1.
         11    1    5    5    0    0 -0.22406668202E+02 -0.22519419395E+02 -0.31152468240E+02  0.44493362508E+02  0.00000000000E+00 0. -1.
        -11    1    5    5    0    0 -0.34479299997E+03  0.52999123388E+01 -0.17282748934E+03  0.38571964297E+03  0.00000000000E+00 0.  1.
          3    1    6    6  503    0  0.52921754850E+02 -0.18611340027E+02  0.22670628295E+01  0.56144756548E+02  0.00000000000E+00 0. -1.
         -3    1    6    6    0  503  0.33207238379E+03 -0.41876053487E+03  0.12010133746E+03  0.54777439233E+03  0.00000000000E+00 0.  1.
<mgrwt>
<rscale>  0 0.15705363E+04</rscale>
<asrwt>0</asrwt>
<pdfrwt beam="1">  1        2 0.10507391E+00 0.15705363E+04</pdfrwt>
<pdfrwt beam="2">  1       -1 0.13890387E+00 0.15705363E+04</pdfrwt>
<totfact> 0.19855275E+01</totfact>
</mgrwt>
</event>
<event>
12    6  0.1556619E-007  0.3265399E+04  0.7818608E-02  0.8171756E-01
          2   -1    0    0  501    0  0.00000000000E+00  0.00000000000E+00  0.16868766201E+04  0.16868766201E+04  0.00000000000E+00 0. -1.
         -1   -1    0    0    0  501 -0.00000000000E+00 -0.00000000000E+00 -0.15802626382E+04  0.15802626382E+04  0.00000000000E+00 0.  1.
         24    2    1    2    0    0 -0.11652712806E+04  0.59801642667E+03 -0.68285699641E+03  0.14789856806E+04  0.74994410890E+02 0.  0.
        254    2    1    2    0    0  0.11652712806E+04 -0.59801642667E+03  0.78947097830E+03  0.17881535778E+04  0.92668656405E+03 0.  0.
         23    2    4    4    0    0  0.84901306467E+03 -0.38358148887E+03  0.33699953386E+02  0.93661496282E+03  0.90299275420E+02 0.  0.
         23    2    4    4    0    0  0.31625821598E+03 -0.21443493779E+03  0.75577102491E+03  0.85153861493E+03  0.89031280474E+02 0.  0.
          2    1    3    3  502    0 -0.49829567914E+03  0.26472922884E+03 -0.25342157480E+03  0.61854882024E+03  0.00000000000E+00 0. -1.
         -1    1    3    3    0  502 -0.66697560150E+03  0.33328719783E+03 -0.42943542161E+03  0.86043686031E+03  0.00000000000E+00 0.  1.
         11    1    5    5    0    0  0.27142812063E+03 -0.16883231025E+03  0.19213276642E+02  0.32022917365E+03  0.00000000000E+00 0. -1.
        -11    1    5    5    0    0  0.57758494404E+03 -0.21474917862E+03  0.14486676744E+02  0.61638578918E+03  0.00000000000E+00 0.  1.
          1    1    6    6  503    0  0.61478963524E+02 -0.34144168658E+02  0.22570304396E+03  0.23640505760E+03  0.00000000000E+00 0. -1.
         -1    1    6    6    0  503  0.25477925245E+03 -0.18029076914E+03  0.53006798095E+03  0.61513355733E+03  0.00000000000E+00 0.  1.
<mgrwt>
<rscale>  0 0.32653993E+04</rscale>
<asrwt>0</asrwt>
<pdfrwt beam="1">  1        2 0.25951948E+00 0.32653993E+04</pdfrwt>
<pdfrwt beam="2">  1       -1 0.24311733E+00 0.32653993E+04</pdfrwt>
<totfact> 0.73530268E-01</totfact>
</mgrwt>
</event>
<event>
12    6  0.1556619E-007  0.1678970E+04  0.7818608E-02  0.8773450E-01
          2   -1    0    0  501    0  0.00000000000E+00  0.00000000000E+00  0.11523038875E+04  0.11523038875E+04  0.00000000000E+00 0. -1.
         -1   -1    0    0    0  501 -0.00000000000E+00 -0.00000000000E+00 -0.61158806077E+03  0.61158806077E+03  0.00000000000E+00 0.  1.
         24    2    1    2    0    0 -0.53439670725E+03 -0.26491447331E+03  0.25810674297E+03  0.65484542035E+03  0.80273998952E+02 0.  0.
        254    2    1    2    0    0  0.53439670725E+03  0.26491447331E+03  0.28260908374E+03  0.11090465279E+04  0.89126695661E+03 0.  0.
         23    2    4    4    0    0  0.54016129568E+03  0.54748727044E+03  0.22196960290E+03  0.80579313877E+03  0.92279690244E+02 0.  0.
         23    2    4    4    0    0 -0.57645884333E+01 -0.28257279713E+03  0.60639480844E+02  0.30325338914E+03  0.91677997525E+02 0.  0.
          4    1    3    3  502    0 -0.42371169666E+03 -0.17843090244E+03  0.21767729736E+03  0.50867729910E+03  0.00000000000E+00 0. -1.
         -3    1    3    3    0  502 -0.11068501058E+03 -0.86483570869E+02  0.40429445602E+02  0.14616812125E+03  0.00000000000E+00 0.  1.
         11    1    5    5    0    0  0.22971992873E+03  0.17346154850E+03  0.66200190710E+02  0.29536861667E+03  0.00000000000E+00 0. -1.
        -11    1    5    5    0    0  0.31044136696E+03  0.37402572194E+03  0.15576941219E+03  0.51042452210E+03  0.00000000000E+00 0.  1.
          3    1    6    6  503    0 -0.36417807355E+02 -0.46604163287E+02  0.10304261330E+02  0.60036509974E+02  0.00000000000E+00 0. -1.
         -3    1    6    6    0  503  0.30653218922E+02 -0.23596863384E+03  0.50335219514E+02  0.24321687916E+03  0.00000000000E+00 0.  1.
<mgrwt>
<rscale>  0 0.16789703E+04</rscale>
<asrwt>0</asrwt>
<pdfrwt beam="1">  1        2 0.17727752E+00 0.16789703E+04</pdfrwt>
<pdfrwt beam="2">  1       -1 0.94090471E-01 0.16789703E+04</pdfrwt>
<totfact> 0.24071006E+01</totfact>
</mgrwt>
</event>
<event>
12    6  0.1556619E-007  0.1696702E+04  0.7818608E-02  0.8763248E-01
          2   -1    0    0  501    0  0.00000000000E+00  0.00000000000E+00  0.97824013721E+03  0.97824013721E+03  0.00000000000E+00 0. -1.
         -1   -1    0    0    0  501 -0.00000000000E+00 -0.00000000000E+00 -0.73570800666E+03  0.73570800666E+03  0.00000000000E+00 0.  1.
         24    2    1    2    0    0 -0.58468016240E+03 -0.24473465696E+02 -0.46702532599E+02  0.59288499307E+03  0.82955684717E+02 0.  0.
        254    2    1    2    0    0  0.58468016240E+03  0.24473465696E+02  0.28923466314E+03  0.11210631508E+04  0.91141431572E+03 0.  0.
         23    2    4    4    0    0  0.93936446770E+01  0.28047868703E+03 -0.16643140646E+03  0.33876752943E+03  0.91145441496E+02 0.  0.
         23    2    4    4    0    0  0.57528651772E+03 -0.25600522133E+03  0.45566606960E+03  0.78229562137E+03  0.88665784874E+02 0.  0.
          2    1    3    3  502    0 -0.90700350738E+02 -0.23448192580E+02  0.15663668360E+02  0.94982745095E+02  0.00000000000E+00 0. -1.
         -1    1    3    3    0  502 -0.49397981166E+03 -0.10252731155E+01 -0.62366200959E+02  0.49790224797E+03  0.00000000000E+00 0.  1.
         11    1    5    5    0    0 -0.19646728059E+01  0.28333937184E+03 -0.16027441087E+03  0.32553486196E+03  0.00000000000E+00 0.  1.
        -11    1    5    5    0    0  0.11358317483E+02 -0.28606848141E+01 -0.61569955931E+01  0.13232667470E+02  0.00000000000E+00 0. -1.
          2    1    6    6  503    0  0.46171328658E+02  0.30290721791E+01  0.25418990397E+02  0.52792915634E+02  0.00000000000E+00 0. -1.
         -2    1    6    6    0  503  0.52911518906E+03 -0.25903429351E+03  0.43024707921E+03  0.72950270574E+03  0.00000000000E+00 0.  1.
<mgrwt>
<rscale>  0 0.16967016E+04</rscale>
<asrwt>0</asrwt>
<pdfrwt beam="1">  1        2 0.15049848E+00 0.16967016E+04</pdfrwt>
<pdfrwt beam="2">  1       -1 0.11318585E+00 0.16967016E+04</pdfrwt>
<totfact> 0.20151591E+01</totfact>
</mgrwt>
</event>
<event>
12    6  0.1556619E-007  0.2218898E+04  0.7818608E-02  0.8510603E-01
          2   -1    0    0  501    0  0.00000000000E+00  0.00000000000E+00  0.88385374290E+03  0.88385374290E+03  0.00000000000E+00 0. -1.
         -1   -1    0    0    0  501 -0.00000000000E+00 -0.00000000000E+00 -0.13926248060E+04  0.13926248060E+04  0.00000000000E+00 0.  1.
         24    2    1    2    0    0  0.53964428413E+03  0.71951889553E+03 -0.43113651906E+03  0.10005780248E+04  0.79713807821E+02 0.  0.
        254    2    1    2    0    0 -0.53964428413E+03 -0.71951889553E+03 -0.77634544074E+02  0.12759005242E+04  0.90164939458E+03 0.  0.
         23    2    4    4    0    0 -0.25715666363E+03 -0.82745512728E+03  0.15332506858E+03  0.88471160389E+03  0.91621548237E+02 0.  0.
         23    2    4    4    0    0 -0.28248762050E+03  0.10793623175E+03 -0.23095961265E+03  0.39118892028E+03  0.90757604711E+02 0.  0.
          2    1    3    3  502    0  0.13073300695E+03  0.14016330096E+03 -0.64166021803E+02  0.20212409158E+03  0.00000000000E+00 0. -1.
         -1    1    3    3    0  502  0.40891127717E+03  0.57935559457E+03 -0.36697049725E+03  0.79845393318E+03  0.00000000000E+00 0.  1.
         11    1    5    5    0    0 -0.23980701097E+03 -0.64708908811E+03  0.11844010849E+03  0.70018551096E+03  0.00000000000E+00 0.  1.
        -11    1    5    5    0    0 -0.17349652661E+02 -0.18036603917E+03  0.34884960086E+02  0.18452609293E+03  0.00000000000E+00 0. -1.
          3    1    6    6  503    0 -0.18708510343E+01  0.19707672659E+02 -0.54447278368E+01  0.20531378581E+02  0.00000000000E+00 0. -1.
         -3    1    6    6    0  503 -0.28061676946E+03  0.88228559093E+02 -0.22551488482E+03  0.37065754170E+03  0.00000000000E+00 0.  1.
<mgrwt>
<rscale>  0 0.22188976E+04</rscale>
<asrwt>0</asrwt>
<pdfrwt beam="1">  1        2 0.13597750E+00 0.22188976E+04</pdfrwt>
<pdfrwt beam="2">  1       -1 0.21424997E+00 0.22188976E+04</pdfrwt>
<totfact> 0.37663063E+00</totfact>
</mgrwt>
</event>
<event>
12    6  0.1556619E-007  0.2748698E+04  0.7818608E-02  0.8319375E-01
          2   -1    0    0  501    0  0.00000000000E+00  0.00000000000E+00  0.23404346143E+04  0.23404346143E+04  0.00000000000E+00 0. -1.
         -1   -1    0    0    0  501 -0.00000000000E+00 -0.00000000000E+00 -0.80704438509E+03  0.80704438509E+03  0.00000000000E+00 0.  1.
         24    2    1    2    0    0  0.11838250391E+04  0.15067601805E+03  0.35475548691E+03  0.12478008830E+04  0.83729340471E+02 0.  0.
        254    2    1    2    0    0 -0.11838250391E+04 -0.15067601805E+03  0.11786347424E+04  0.18996781165E+04  0.89188121667E+03 0.  0.
         23    2    4    4    0    0 -0.63267886802E+03  0.87244233442E+02  0.87492213385E+02  0.65103762230E+03  0.91109779636E+02 0.  0.
         23    2    4    4    0    0 -0.55114617108E+03 -0.23792025149E+03  0.10911425290E+04  0.12486404942E+04  0.90238113647E+02 0.  0.
          2    1    3    3  502    0  0.94037882493E+03  0.11980751722E+03  0.24595266619E+03  0.97936657568E+03  0.00000000000E+00 0. -1.
         -1    1    3    3    0  502  0.24344621417E+03  0.30868500828E+02  0.10880282072E+03  0.26843430729E+03  0.00000000000E+00 0.  1.
         11    1    5    5    0    0 -0.58217928294E+03  0.95293020129E+02  0.10012543652E+03  0.59836325105E+03  0.00000000000E+00 0.  1.
        -11    1    5    5    0    0 -0.50499585073E+02 -0.80487866872E+01 -0.12633223131E+02  0.52674371248E+02  0.00000000000E+00 0. -1.
          1    1    6    6  503    0 -0.20157091551E+03 -0.40561069953E+02  0.36884700253E+03  0.42228443691E+03  0.00000000000E+00 0. -1.
         -1    1    6    6    0  503 -0.34957525557E+03 -0.19735918154E+03  0.72229552644E+03  0.82635605725E+03  0.00000000000E+00 0.  1.
<mgrwt>
<rscale>  0 0.27486976E+04</rscale>
<asrwt>0</asrwt>
<pdfrwt beam="1">  1        2 0.36006686E+00 0.27486976E+04</pdfrwt>
<pdfrwt beam="2">  1       -1 0.12416068E+00 0.27486976E+04</pdfrwt>
<totfact> 0.24309101E+00</totfact>
</mgrwt>
</event>
<event>
12    6  0.1556619E-007  0.1670242E+04  0.7818608E-02  0.8778521E-01
          4   -1    0    0  501    0  0.00000000000E+00  0.00000000000E+00  0.15421508764E+04  0.15421508764E+04  0.00000000000E+00 0. -1.
         -3   -1    0    0    0  501 -0.00000000000E+00 -0.00000000000E+00 -0.45224303112E+03  0.45224303112E+03  0.00000000000E+00 0.  1.
         24    2    1    2    0    0 -0.51843278651E+03  0.89458856708E+02  0.90472816274E+02  0.53992298457E+03  0.80969485646E+02 0.  0.
        254    2    1    2    0    0  0.51843278651E+03 -0.89458856708E+02  0.99943502903E+03  0.14544709230E+04  0.91642776441E+03 0.  0.
         23    2    4    4    0    0  0.32825883241E+03 -0.48644100321E+03  0.68062182938E+03  0.90342710083E+03  0.92497249825E+02 0.  0.
         23    2    4    4    0    0  0.19017395411E+03  0.39698214650E+03  0.31881319965E+03  0.55104382216E+03  0.90810132725E+02 0.  0.
          2    1    3    3  502    0 -0.12216954123E+02 -0.97663286365E+01 -0.22660001816E+01  0.15804110222E+02  0.00000000000E+00 0. -1.
         -1    1    3    3    0  502 -0.50621583239E+03  0.99225185344E+02  0.92738816456E+02  0.52411887435E+03  0.00000000000E+00 0.  1.
         11    1    5    5    0    0  0.23131009277E+00 -0.37972439718E+01  0.26739368310E+02  0.27008635355E+02  0.00000000000E+00 0. -1.
        -11    1    5    5    0    0  0.32802752232E+03 -0.48264375924E+03  0.65388246107E+03  0.87641846548E+03  0.00000000000E+00 0.  1.
          4    1    6    6  503    0  0.33102138974E+02  0.16985184983E+03  0.13186223171E+03  0.21756160196E+03  0.00000000000E+00 0. -1.
         -4    1    6    6    0  503  0.15707181513E+03  0.22713029667E+03  0.18695096793E+03  0.33348222020E+03  0.00000000000E+00 0.  1.
<mgrwt>
<rscale>  0 0.16702419E+04</rscale>
<asrwt>0</asrwt>
<pdfrwt beam="1">  1        4 0.23725398E+00 0.16702419E+04</pdfrwt>
<pdfrwt beam="2">  1       -3 0.69575852E-01 0.16702419E+04</pdfrwt>
<totfact> 0.32709823E-01</totfact>
</mgrwt>
</event>
<event>
12    6  0.1556619E-007  0.2202924E+04  0.7818608E-02  0.8517212E-01
          2   -1    0    0  501    0  0.00000000000E+00  0.00000000000E+00  0.12782637991E+04  0.12782637991E+04  0.00000000000E+00 0. -1.
         -1   -1    0    0    0  501 -0.00000000000E+00 -0.00000000000E+00 -0.94911415640E+03  0.94911415640E+03  0.00000000000E+00 0.  1.
         24    2    1    2    0    0 -0.11674207240E+02 -0.65544406852E+03  0.78186373925E+03  0.10236959184E+04  0.83061498438E+02 0.  0.
        254    2    1    2    0    0  0.11674207240E+02  0.65544406852E+03 -0.45271409653E+03  0.12036820371E+04  0.90230658826E+03 0.  0.
         23    2    4    4    0    0 -0.32752836438E+03 -0.26030774006E+02 -0.78909919939E+02  0.35025078210E+03  0.92175941685E+02 0.  0.
         23    2    4    4    0    0  0.33920257163E+03  0.68147484252E+03 -0.37380417659E+03  0.85343125502E+03  0.95650399983E+02 0.  0.
          2    1    3    3  502    0 -0.27493485343E+01 -0.40695228995E+03  0.42178090263E+03  0.58610310956E+03  0.00000000000E+00 0. -1.
         -1    1    3    3    0  502 -0.89248587058E+01 -0.24849177856E+03  0.36008283662E+03  0.43759280883E+03  0.00000000000E+00 0.  1.
         11    1    5    5    0    0  0.57735039636E+01  0.29506605344E+01 -0.32057811908E+01  0.72330338483E+01  0.00000000000E+00 0.  1.
        -11    1    5    5    0    0 -0.33330186835E+03 -0.28981434540E+02 -0.75704138748E+02  0.34301774825E+03  0.00000000000E+00 0. -1.
          3    1    6    6  503    0  0.28144501097E+03  0.52099411281E+03 -0.25044428576E+03  0.64293739979E+03  0.00000000000E+00 0. -1.
         -3    1    6    6    0  503  0.57757560655E+02  0.16048072971E+03 -0.12335989083E+03  0.21049385522E+03  0.00000000000E+00 0.  1.
<mgrwt>
<rscale>  0 0.22029238E+04</rscale>
<asrwt>0</asrwt>
<pdfrwt beam="1">  1        2 0.19665597E+00 0.22029238E+04</pdfrwt>
<pdfrwt beam="2">  1       -1 0.14601756E+00 0.22029238E+04</pdfrwt>
<totfact> 0.66498072E+00</totfact>
</mgrwt>
</event>
<event>
12    6  0.1659778E-007  0.3541946E+04  0.7818608E-02  0.8103921E-01
          2   -1    0    0  501    0  0.00000000000E+00  0.00000000000E+00  0.28845011361E+04  0.28845011361E+04  0.00000000000E+00 0. -1.
         -1   -1    0    0    0  501 -0.00000000000E+00 -0.00000000000E+00 -0.10873095718E+04  0.10873095718E+04  0.00000000000E+00 0.  1.
         24    2    1    2    0    0 -0.68989370639E+03  0.14249231304E+04  0.13704798063E+04  0.20954528984E+04  0.79678705173E+02 0.  0.
        254    2    1    2    0    0  0.68989370639E+03 -0.14249231304E+04  0.42671175797E+03  0.18763578095E+04  0.91229186738E+03 0.  0.
         23    2    4    4    0    0  0.37400591173E+03 -0.10549960236E+04  0.68776152050E+03  0.13169194653E+04  0.91454564363E+02 0.  0.
         23    2    4    4    0    0  0.31588779466E+03 -0.36992710680E+03 -0.26104976253E+03  0.55943834416E+03  0.90515850752E+02 0.  0.
          4    1    3    3  502    0 -0.46634375214E+03  0.99016341085E+03  0.90062110836E+03  0.14173984818E+04  0.00000000000E+00 0. -1.
         -3    1    3    3    0  502 -0.22354995425E+03  0.43475971953E+03  0.46985869796E+03  0.67805441656E+03  0.00000000000E+00 0.  1.
         11    1    5    5    0    0  0.30557803402E+03 -0.74968286518E+03  0.51521998685E+03  0.95961136303E+03  0.00000000000E+00 0. -1.
        -11    1    5    5    0    0  0.68427877710E+02 -0.30531315840E+03  0.17254153366E+03  0.35730810231E+03  0.00000000000E+00 0.  1.
          1    1    6    6  503    0  0.24402038120E+03 -0.32521135863E+03 -0.24031802233E+03  0.47229347453E+03  0.00000000000E+00 0. -1.
         -1    1    6    6    0  503  0.71867413460E+02 -0.44715748172E+02 -0.20731740203E+02  0.87144869636E+02  0.00000000000E+00 0.  1.
<mgrwt>
<rscale>  0 0.35419462E+04</rscale>
<asrwt>0</asrwt>
<pdfrwt beam="1">  1        2 0.44376940E+00 0.35419462E+04</pdfrwt>
<pdfrwt beam="2">  1       -1 0.16727840E+00 0.35419462E+04</pdfrwt>
<totfact> 0.49201244E-01</totfact>
</mgrwt>
</event>
<event>
12    6  0.1556619E-007  0.1444754E+04  0.7818608E-02  0.8922046E-01
          2   -1    0    0  501    0  0.00000000000E+00  0.00000000000E+00  0.98020571835E+03  0.98020571835E+03  0.00000000000E+00 0. -1.
         -1   -1    0    0    0  501 -0.00000000000E+00 -0.00000000000E+00 -0.53236620543E+03  0.53236620543E+03  0.00000000000E+00 0.  1.
         24    2    1    2    0    0  0.17058934957E+03  0.37678888299E+03  0.27817313412E+03  0.50557987222E+03  0.84617528420E+02 0.  0.
        254    2    1    2    0    0 -0.17058934957E+03 -0.37678888299E+03  0.16966637880E+03  0.10069920516E+04  0.90231686412E+03 0.  0.
         23    2    4    4    0    0  0.77298049766E+02  0.14854956838E+03  0.34271982688E+03  0.39222562168E+03  0.91335074327E+02 0.  0.
         23    2    4    4    0    0 -0.24788739933E+03 -0.52533845136E+03 -0.17305344808E+03  0.61476642988E+03  0.10276972404E+03 0.  0.
          2    1    3    3  502    0 -0.99217850948E+00  0.67587388840E+01 -0.54890399576E+01  0.87632487785E+01  0.00000000000E+00 0. -1.
         -1    1    3    3    0  502  0.17158152808E+03  0.37003014410E+03  0.28366217408E+03  0.49681662344E+03  0.00000000000E+00 0.  1.
         11    1    5    5    0    0  0.91966234004E+02  0.13321371874E+03  0.32978889313E+03  0.36737500880E+03  0.00000000000E+00 0. -1.
        -11    1    5    5    0    0 -0.14668184238E+02  0.15335849632E+02  0.12930933747E+02  0.24850612876E+02  0.00000000000E+00 0.  1.
          1    1    6    6  503    0 -0.78453736835E+02 -0.27663380803E+03 -0.63192616521E+02  0.29440543364E+03  0.00000000000E+00 0. -1.
         -1    1    6    6    0  503 -0.16943366250E+03 -0.24870464333E+03 -0.10986083156E+03  0.32036099624E+03  0.00000000000E+00 0.  1.
<mgrwt>
<rscale>  0 0.14447538E+04</rscale>
<asrwt>0</asrwt>
<pdfrwt beam="1">  1        2 0.15080088E+00 0.14447538E+04</pdfrwt>
<pdfrwt beam="2">  1       -1 0.81902493E-01 0.14447538E+04</pdfrwt>
<totfact> 0.42606943E+01</totfact>
</mgrwt>
</event>
<event>
12    6  0.1556619E-007  0.1530999E+04  0.7818608E-02  0.8864096E-01
         -1   -1    0    0    0  501 -0.00000000000E+00  0.00000000000E+00  0.31064558318E+03  0.31064558318E+03  0.00000000000E+00 0.  1.
          2   -1    0    0  501    0  0.00000000000E+00 -0.00000000000E+00 -0.18863614582E+04  0.18863614582E+04  0.00000000000E+00 0. -1.
         24    2    1    2    0    0 -0.40270375636E+03  0.28123136638E+03 -0.70643360591E+03  0.86408875210E+03  0.79621197714E+02 0.  0.
        254    2    1    2    0    0  0.40270375636E+03 -0.28123136638E+03 -0.86928226913E+03  0.13329182893E+04  0.88303913033E+03 0.  0.
         23    2    4    4    0    0  0.20227177019E+03 -0.50355972783E+03 -0.18529917103E+03  0.58083767668E+03  0.92468131623E+02 0.  0.
         23    2    4    4    0    0  0.20043198616E+03  0.22232836144E+03 -0.68398309810E+03  0.75208061261E+03  0.90495789944E+02 0.  0.
          2    1    3    3  502    0 -0.30306268026E+03  0.16705973019E+03 -0.49086845515E+03  0.60058952861E+03  0.00000000000E+00 0. -1.
         -1    1    3    3    0  502 -0.99641076096E+02  0.11417163619E+03 -0.21556515076E+03  0.26349922349E+03  0.00000000000E+00 0.  1.
         11    1    5    5    0    0  0.95847342835E+02 -0.12662497437E+03 -0.54780405078E+02  0.16799252972E+03  0.00000000000E+00 0.  1.
        -11    1    5    5    0    0  0.10642442736E+03 -0.37693475346E+03 -0.13051876595E+03  0.41284514696E+03  0.00000000000E+00 0. -1.
          2    1    6    6  503    0  0.11296676534E+03  0.80095787257E+02 -0.23131335669E+03  0.26959728150E+03  0.00000000000E+00 0.  1.
         -2    1    6    6    0  503  0.87465220826E+02  0.14223257418E+03 -0.45266974141E+03  0.48248333111E+03  0.00000000000E+00 0. -1.
<mgrwt>
<rscale>  0 0.15309995E+04</rscale>
<asrwt>0</asrwt>
<pdfrwt beam="1">  1        2 0.29020947E+00 0.15309995E+04</pdfrwt>
<pdfrwt beam="2">  1       -1 0.47791626E-01 0.15309995E+04</pdfrwt>
<totfact> 0.37110461E+01</totfact>
</mgrwt>
</event>
<event>
12    6  0.1556619E-007  0.1648824E+04  0.7818608E-02  0.8791103E-01
         -1   -1    0    0    0  501 -0.00000000000E+00  0.00000000000E+00  0.49136476550E+03  0.49136476550E+03  0.00000000000E+00 0.  1.
          2   -1    0    0  501    0  0.00000000000E+00 -0.00000000000E+00 -0.13831982807E+04  0.13831982807E+04  0.00000000000E+00 0. -1.
         24    2    1    2    0    0 -0.38412227622E+03  0.16908719312E+03 -0.76755779726E+03  0.87845044218E+03  0.79936257487E+02 0.  0.
        254    2    1    2    0    0  0.38412227622E+03 -0.16908719312E+03 -0.12427571795E+03  0.99611260403E+03  0.89479353142E+03 0.  0.
         23    2    4    4    0    0  0.59415156558E+03 -0.27379001300E+03 -0.25842082351E+03  0.71085432311E+03  0.10273992677E+03 0.  0.
         23    2    4    4    0    0 -0.21002928936E+03  0.10470281988E+03  0.13414510556E+03  0.28525828093E+03  0.91117476982E+02 0.  0.
          2    1    3    3  502    0 -0.22769495421E+03  0.10381947895E+03 -0.37462828001E+03  0.45052172485E+03  0.00000000000E+00 0. -1.
         -1    1    3    3    0  502 -0.15642732202E+03  0.65267714175E+02 -0.39292951725E+03  0.42792871733E+03  0.00000000000E+00 0.  1.
         11    1    5    5    0    0  0.57260927695E+03 -0.26906928263E+03 -0.22638123304E+03  0.67195842548E+03  0.00000000000E+00 0.  1.
        -11    1    5    5    0    0  0.21542288633E+02 -0.47207303785E+01 -0.32039590466E+02  0.38895897626E+02  0.00000000000E+00 0. -1.
          2    1    6    6  503    0 -0.83046119833E+02  0.67726880102E-01  0.70159858173E+02  0.10871553847E+03  0.00000000000E+00 0. -1.
         -2    1    6    6    0  503 -0.12698316953E+03  0.10463509300E+03  0.63985247384E+02  0.17654274245E+03  0.00000000000E+00 0.  1.
<mgrwt>
<rscale>  0 0.16488237E+04</rscale>
<asrwt>0</asrwt>
<pdfrwt beam="1">  1        2 0.21279974E+00 0.16488237E+04</pdfrwt>
<pdfrwt beam="2">  1       -1 0.75594579E-01 0.16488237E+04</pdfrwt>
<totfact> 0.28331536E+01</totfact>
</mgrwt>
</event>
<event>
12    6  0.1556619E-007  0.1751223E+04  0.7818608E-02  0.8732678E-01
          2   -1    0    0  501    0  0.00000000000E+00  0.00000000000E+00  0.16007990005E+04  0.16007990005E+04  0.00000000000E+00 0. -1.
         -1   -1    0    0    0  501 -0.00000000000E+00 -0.00000000000E+00 -0.47894537562E+03  0.47894537562E+03  0.00000000000E+00 0.  1.
         24    2    1    2    0    0  0.15188744464E+03 -0.34521952489E+03 -0.20670302885E+03  0.43789733837E+03  0.82350595698E+02 0.  0.
        254    2    1    2    0    0 -0.15188744464E+03  0.34521952489E+03  0.13285566537E+04  0.16418470377E+04  0.88789222149E+03 0.  0.
         23    2    4    4    0    0 -0.49808347410E+03  0.85974776190E+02  0.60020583544E+03  0.78997523021E+03  0.91296276652E+02 0.  0.
         23    2    4    4    0    0  0.34619602946E+03  0.25924474870E+03  0.72835081826E+03  0.85187180751E+03  0.90172786536E+02 0.  0.
          4    1    3    3  502    0  0.12193602863E+02 -0.35064521686E+02  0.46616672149E+01  0.37415715589E+02  0.00000000000E+00 0. -1.
         -3    1    3    3    0  502  0.13969384178E+03 -0.31015500321E+03 -0.21136469607E+03  0.40048162278E+03  0.00000000000E+00 0.  1.
         11    1    5    5    0    0 -0.38238063583E+03  0.32792965959E+02  0.41545607726E+03  0.56559179750E+03  0.00000000000E+00 0.  1.
        -11    1    5    5    0    0 -0.11570283828E+03  0.53181810232E+02  0.18474975818E+03  0.22438343271E+03  0.00000000000E+00 0. -1.
          3    1    6    6  503    0  0.79223617115E+02  0.17515996351E+02  0.15045082890E+03  0.17093461778E+03  0.00000000000E+00 0. -1.
         -3    1    6    6    0  503  0.26697241235E+03  0.24172875235E+03  0.57789998936E+03  0.68093718974E+03  0.00000000000E+00 0.  1.
<mgrwt>
<rscale>  0 0.17512227E+04</rscale>
<asrwt>0</asrwt>
<pdfrwt beam="1">  1        2 0.24627677E+00 0.17512227E+04</pdfrwt>
<pdfrwt beam="2">  1       -1 0.73683905E-01 0.17512227E+04</pdfrwt>
<totfact> 0.22316200E+01</totfact>
</mgrwt>
</event>
<event>
12    6  0.1556619E-007  0.1913564E+04  0.7818608E-02  0.8648134E-01
         -1   -1    0    0    0  501 -0.00000000000E+00  0.00000000000E+00  0.82125836673E+03  0.82125836673E+03  0.00000000000E+00 0.  1.
          2   -1    0    0  501    0  0.00000000000E+00 -0.00000000000E+00 -0.11146695533E+04  0.11146695533E+04  0.00000000000E+00 0. -1.
         24    2    1    2    0    0  0.43405109602E+03 -0.30623650954E+03 -0.62941693267E+03  0.82791687780E+03  0.84258695014E+02 0.  0.
        254    2    1    2    0    0 -0.43405109602E+03  0.30623650954E+03  0.33600574612E+03  0.11080110422E+04  0.91247326235E+03 0.  0.
         23    2    4    4    0    0 -0.18517511039E+03  0.52867742377E+03  0.47026215267E+03  0.73702298730E+03  0.90921678712E+02 0.  0.
         23    2    4    4    0    0 -0.24887598563E+03 -0.22244091423E+03 -0.13425640655E+03  0.37098805491E+03  0.90488328745E+02 0.  0.
          4    1    3    3  502    0  0.37908361754E+03 -0.27926131061E+03 -0.51259154416E+03  0.69601821803E+03  0.00000000000E+00 0. -1.
         -1    1    3    3    0  502  0.54967478486E+02 -0.26975198923E+02 -0.11682538851E+03  0.13189865977E+03  0.00000000000E+00 0.  1.
         11    1    5    5    0    0 -0.33860447751E+02  0.23190071023E+03  0.19684964860E+03  0.30606249931E+03  0.00000000000E+00 0. -1.
        -11    1    5    5    0    0 -0.15131466264E+03  0.29677671354E+03  0.27341250407E+03  0.43096048799E+03  0.00000000000E+00 0.  1.
          1    1    6    6  503    0 -0.12224484662E+03 -0.52470318667E+02 -0.39141284380E+02  0.13866858696E+03  0.00000000000E+00 0. -1.
         -1    1    6    6    0  503 -0.12663113901E+03 -0.16997059557E+03 -0.95115122174E+02  0.23231946795E+03  0.00000000000E+00 0.  1.
<mgrwt>
<rscale>  0 0.19135639E+04</rscale>
<asrwt>0</asrwt>
<pdfrwt beam="1">  1        2 0.17148762E+00 0.19135639E+04</pdfrwt>
<pdfrwt beam="2">  1       -1 0.12634744E+00 0.19135639E+04</pdfrwt>
<totfact> 0.12405007E+01</totfact>
</mgrwt>
</event>
<event>
12    6  0.1556619E-007  0.3085749E+04  0.7818608E-02  0.8219660E-01
          2   -1    0    0  501    0  0.00000000000E+00  0.00000000000E+00  0.36554730142E+04  0.36554730142E+04  0.00000000000E+00 0. -1.
         -1   -1    0    0    0  501 -0.00000000000E+00 -0.00000000000E+00 -0.65120466776E+03  0.65120466776E+03  0.00000000000E+00 0.  1.
         24    2    1    2    0    0 -0.85393786354E+03  0.50124575642E+03 -0.26820743314E+02  0.99378753410E+03  0.80231711563E+02 0.  0.
        254    2    1    2    0    0  0.85393786354E+03 -0.50124575642E+03  0.30310890897E+04  0.33128901478E+04  0.89848922011E+03 0.  0.
         23    2    4    4    0    0  0.95578664944E+03 -0.35485332678E+03  0.28943275533E+04  0.30699529246E+04  0.89610101619E+02 0.  0.
         23    2    4    4    0    0 -0.10184878590E+03 -0.14639242964E+03  0.13676153638E+03  0.24293722325E+03  0.92254311358E+02 0.  0.
          2    1    3    3  502    0 -0.11087640770E+03  0.35322243916E+02 -0.22395968795E+01  0.11638837783E+03  0.00000000000E+00 0. -1.
         -1    1    3    3    0  502 -0.74306145584E+03  0.46592351250E+03 -0.24581146435E+02  0.87739915627E+03  0.00000000000E+00 0.  1.
         11    1    5    5    0    0  0.56960308228E+03 -0.18922218233E+03  0.15843701227E+04  0.16942495068E+04  0.00000000000E+00 0. -1.
        -11    1    5    5    0    0  0.38618356717E+03 -0.16563114444E+03  0.13099574307E+04  0.13757034178E+04  0.00000000000E+00 0.  1.
          4    1    6    6  503    0 -0.11662460380E+03 -0.13907231509E+03  0.11228789897E+03  0.21342675393E+03  0.00000000000E+00 0. -1.
         -4    1    6    6    0  503  0.14775817905E+02 -0.73201145510E+01  0.24473637411E+02  0.29510469327E+02  0.00000000000E+00 0.  1.
<mgrwt>
<rscale>  0 0.30857486E+04</rscale>
<asrwt>0</asrwt>
<pdfrwt beam="1">  1        2 0.56238045E+00 0.30857486E+04</pdfrwt>
<pdfrwt beam="2">  1       -1 0.10018534E+00 0.30857486E+04</pdfrwt>
<totfact> 0.57607741E-01</totfact>
</mgrwt>
</event>
<event>
12    6  0.1556619E-007  0.2142791E+04  0.7818608E-02  0.8542624E-01
         -1   -1    0    0    0  501 -0.00000000000E+00  0.00000000000E+00  0.57461721088E+03  0.57461721088E+03  0.00000000000E+00 0.  1.
          2   -1    0    0  501    0  0.00000000000E+00 -0.00000000000E+00 -0.19976581516E+04  0.19976581516E+04  0.00000000000E+00 0. -1.
         24    2    1    2    0    0 -0.31159098924E+03  0.77664318398E+03 -0.26301254104E+03  0.88087796194E+03  0.80664783392E+02 0.  0.
        254    2    1    2    0    0  0.31159098924E+03 -0.77664318398E+03 -0.11600283996E+04  0.16913974005E+04  0.90271573524E+03 0.  0.
         23    2    4    4    0    0 -0.18450007011E+02 -0.57859634314E+03 -0.11565945708E+04  0.12965850578E+04  0.91146474108E+02 0.  0.
         23    2    4    4    0    0  0.33004099625E+03 -0.19804684084E+03 -0.34338288374E+01  0.39481234274E+03  0.87837261026E+02 0.  0.
          4    1    3    3  502    0 -0.18441423818E+03  0.53133741795E+03 -0.20437077767E+03  0.59841079345E+03  0.00000000000E+00 0. -1.
         -3    1    3    3    0  502 -0.12717675106E+03  0.24530576603E+03 -0.58641763366E+02  0.28246716848E+03  0.00000000000E+00 0.  1.
         11    1    5    5    0    0 -0.77258730760E+01 -0.48675848675E+03 -0.89045856645E+03  0.10148448020E+04  0.00000000000E+00 0. -1.
        -11    1    5    5    0    0 -0.10724133935E+02 -0.91837856385E+02 -0.26613600435E+03  0.28174025577E+03  0.00000000000E+00 0.  1.
          3    1    6    6  503    0  0.27641510606E+03 -0.13740964367E+03  0.23300722422E+02  0.30956363594E+03  0.00000000000E+00 0. -1.
         -3    1    6    6    0  503  0.53625890194E+02 -0.60637197173E+02 -0.26734551260E+02  0.85248706801E+02  0.00000000000E+00 0.  1.
<mgrwt>
<rscale>  0 0.21427914E+04</rscale>
<asrwt>0</asrwt>
<pdfrwt beam="1">  1        2 0.30733203E+00 0.21427914E+04</pdfrwt>
<pdfrwt beam="2">  1       -1 0.88402647E-01 0.21427914E+04</pdfrwt>
<totfact> 0.88022196E+00</totfact>
</mgrwt>
</event>
<event>
12    6  0.1556619E-007  0.1080063E+04  0.7818608E-02  0.9224845E-01
         -1   -1    0    0    0  501 -0.00000000000E+00  0.00000000000E+00  0.23867035308E+03  0.23867035308E+03  0.00000000000E+00 0.  1.
          2   -1    0    0  501    0  0.00000000000E+00 -0.00000000000E+00 -0.12219110304E+04  0.12219110304E+04  0.00000000000E+00 0. -1.
         24    2    1    2    0    0  0.30310374426E+02 -0.12865615749E+03 -0.65127377401E+02  0.16756733265E+03  0.79787906526E+02 0.  0.
        254    2    1    2    0    0 -0.30310374426E+02  0.12865615749E+03 -0.91811329991E+03  0.12930140508E+04  0.90082305615E+03 0.  0.
         23    2    4    4    0    0  0.16343703084E+03 -0.22775355794E+03 -0.11675087606E+02  0.29579678172E+03  0.93680746157E+02 0.  0.
         23    2    4    4    0    0 -0.19374740527E+03  0.35640971543E+03 -0.90643821230E+03  0.99721726910E+03  0.90808076552E+02 0.  0.
          4    1    3    3  502    0  0.14932626126E+02 -0.66397615710E+02 -0.76550279137E+02  0.10242837464E+03  0.00000000000E+00 0. -1.
         -3    1    3    3    0  502  0.15377748301E+02 -0.62258541781E+02  0.11422901736E+02  0.65138958017E+02  0.00000000000E+00 0.  1.
         11    1    5    5    0    0  0.30954947970E+02 -0.50416376720E+02 -0.41742332316E+02  0.72404710845E+02  0.00000000000E+00 0.  1.
        -11    1    5    5    0    0  0.13248208287E+03 -0.17733718122E+03  0.30067244711E+02  0.22339207087E+03  0.00000000000E+00 0. -1.
          4    1    6    6  503    0 -0.21841028953E+02  0.45797331568E+02 -0.20335443525E+03  0.20958876988E+03  0.00000000000E+00 0.  1.
         -4    1    6    6    0  503 -0.17190637632E+03  0.31061238386E+03 -0.70308377705E+03  0.78762849922E+03  0.00000000000E+00 0. -1.
<mgrwt>
<rscale>  0 0.10800628E+04</rscale>
<asrwt>0</asrwt>
<pdfrwt beam="1">  1        2 0.18798632E+00 0.10800628E+04</pdfrwt>
<pdfrwt beam="2">  1       -1 0.36718515E-01 0.10800628E+04</pdfrwt>
<totfact> 0.14806847E+02</totfact>
</mgrwt>
</event>
<event>
12    6  0.1556619E-007  0.1050569E+04  0.7818608E-02  0.9254757E-01
         -1   -1    0    0    0  501 -0.00000000000E+00  0.00000000000E+00  0.20081018414E+03  0.20081018414E+03  0.00000000000E+00 0.  1.
          2   -1    0    0  501    0  0.00000000000E+00 -0.00000000000E+00 -0.13740515513E+04  0.13740515513E+04  0.00000000000E+00 0. -1.
         24    2    1    2    0    0 -0.58697819277E+02 -0.74505459336E+02 -0.46721748064E+02  0.13259002708E+03  0.80004350383E+02 0.  0.
        254    2    1    2    0    0  0.58697819277E+02  0.74505459336E+02 -0.11265196191E+04  0.14422717084E+04  0.89560299860E+03 0.  0.
         23    2    4    4    0    0  0.43853123317E+03  0.79584725519E+02 -0.84185994893E+03  0.95697439845E+03  0.91806615598E+02 0.  0.
         23    2    4    4    0    0 -0.37983341389E+03 -0.50792661823E+01 -0.28465967020E+03  0.48529730996E+03  0.10091149566E+03 0.  0.
          4    1    3    3  502    0  0.11355614450E+02 -0.37935472001E+02 -0.34710567119E+02  0.52658080911E+02  0.00000000000E+00 0. -1.
         -3    1    3    3    0  502 -0.70053433728E+02 -0.36569987335E+02 -0.12011180944E+02  0.79931946169E+02  0.00000000000E+00 0.  1.
         11    1    5    5    0    0  0.17937825467E+03  0.47927342731E+01 -0.41363605281E+03  0.45088170592E+03  0.00000000000E+00 0. -1.
        -11    1    5    5    0    0  0.25915297849E+03  0.74791991246E+02 -0.42822389613E+03  0.50609269253E+03  0.00000000000E+00 0.  1.
          3    1    6    6  503    0 -0.19959702807E+03  0.47732278198E+02 -0.14958435063E+03  0.25395436982E+03  0.00000000000E+00 0. -1.
         -3    1    6    6    0  503 -0.18023638582E+03 -0.52811544380E+02 -0.13507531957E+03  0.23134294013E+03  0.00000000000E+00 0.  1.
<mgrwt>
<rscale>  0 0.10505685E+04</rscale>
<asrwt>0</asrwt>
<pdfrwt beam="1">  1        2 0.21139254E+00 0.10505685E+04</pdfrwt>
<pdfrwt beam="2">  1       -1 0.30893875E-01 0.10505685E+04</pdfrwt>
<totfact> 0.16445911E+02</totfact>
</mgrwt>
</event>
<event>
12    6  0.1556619E-007  0.1494711E+04  0.7818608E-02  0.8887977E-01
          2   -1    0    0  501    0  0.00000000000E+00  0.00000000000E+00  0.11517081122E+04  0.11517081122E+04  0.00000000000E+00 0. -1.
         -1   -1    0    0    0  501 -0.00000000000E+00 -0.00000000000E+00 -0.48496712420E+03  0.48496712420E+03  0.00000000000E+00 0.  1.
         24    2    1    2    0    0  0.27892765906E+03 -0.41179083584E+02  0.62887960616E+03  0.69365105530E+03  0.78523063842E+02 0.  0.
        254    2    1    2    0    0 -0.27892765906E+03  0.41179083584E+02  0.37861381892E+02  0.94302418115E+03  0.89909107775E+03 0.  0.
         23    2    4    4    0    0  0.15679684740E+03  0.10952501362E+03  0.34028132496E+03  0.40034874692E+03  0.88919958841E+02 0.  0.
         23    2    4    4    0    0 -0.43572450646E+03 -0.68345930032E+02 -0.30241994307E+03  0.54267543423E+03  0.92259380388E+02 0.  0.
          4    1    3    3  502    0  0.27347518656E+03 -0.44936427060E+02  0.56378878651E+03  0.62822428792E+03  0.00000000000E+00 0. -1.
         -3    1    3    3    0  502  0.54524725036E+01  0.37573434758E+01  0.65090819651E+02  0.65426767375E+02  0.00000000000E+00 0.  1.
         11    1    5    5    0    0  0.10560316896E+03  0.41968658086E+02  0.12474548192E+03  0.16874487493E+03  0.00000000000E+00 0. -1.
        -11    1    5    5    0    0  0.51193678441E+02  0.67556355530E+02  0.21553584304E+03  0.23160387199E+03  0.00000000000E+00 0.  1.
          1    1    6    6  503    0 -0.21020684862E+03 -0.16378381932E+01 -0.10185765700E+03  0.23359063340E+03  0.00000000000E+00 0. -1.
         -1    1    6    6    0  503 -0.22551765784E+03 -0.66708091839E+02 -0.20056228607E+03  0.30908480084E+03  0.00000000000E+00 0.  1.
<mgrwt>
<rscale>  0 0.14947114E+04</rscale>
<asrwt>0</asrwt>
<pdfrwt beam="1">  1        2 0.17718586E+00 0.14947114E+04</pdfrwt>
<pdfrwt beam="2">  1       -1 0.74610327E-01 0.14947114E+04</pdfrwt>
<totfact> 0.40358568E+01</totfact>
</mgrwt>
</event>
<event>
12    6  0.1556619E-007  0.1186121E+04  0.7818608E-02  0.9125092E-01
          2   -1    0    0  501    0  0.00000000000E+00  0.00000000000E+00  0.23136861388E+04  0.23136861388E+04  0.00000000000E+00 0. -1.
         -1   -1    0    0    0  501 -0.00000000000E+00 -0.00000000000E+00 -0.15201748434E+03  0.15201748434E+03  0.00000000000E+00 0.  1.
         24    2    1    2    0    0  0.11220462991E+03  0.21630804235E+03  0.50700535945E+03  0.56815006774E+03  0.79755982827E+02 0.  0.
        254    2    1    2    0    0 -0.11220462991E+03 -0.21630804235E+03  0.16546632950E+04  0.18975535554E+04  0.89633689405E+03 0.  0.
         23    2    4    4    0    0  0.25397554109E+03  0.31551955178E+02  0.12874172497E+04  0.13156613081E+04  0.89567858860E+02 0.  0.
         23    2    4    4    0    0 -0.36618017101E+03 -0.24785999753E+03  0.36724604527E+03  0.58189224732E+03  0.90589368641E+02 0.  0.
          2    1    3    3  502    0  0.99607744002E+02  0.17747743799E+03  0.47333268884E+03  0.51523177113E+03  0.00000000000E+00 0. -1.
         -1    1    3    3    0  502  0.12596885909E+02  0.38830604354E+02  0.33672670617E+02  0.52918296605E+02  0.00000000000E+00 0.  1.
         11    1    5    5    0    0  0.23583539556E+03  0.15131643131E+01  0.11375952647E+04  0.11617846658E+04  0.00000000000E+00 0.  1.
        -11    1    5    5    0    0  0.18140145531E+02  0.30038790865E+02  0.14982198502E+03  0.15387664226E+03  0.00000000000E+00 0. -1.
          1    1    6    6  503    0 -0.27096209299E+03 -0.22696178332E+03  0.27730524268E+03  0.44925527771E+03  0.00000000000E+00 0. -1.
         -1    1    6    6    0  503 -0.95218078016E+02 -0.20898214202E+02  0.89940802588E+02  0.13263696961E+03  0.00000000000E+00 0.  1.
<mgrwt>
<rscale>  0 0.11861210E+04</rscale>
<asrwt>0</asrwt>
<pdfrwt beam="1">  1        2 0.35595169E+00 0.11861210E+04</pdfrwt>
<pdfrwt beam="2">  1       -1 0.23387307E-01 0.11861210E+04</pdfrwt>
<totfact> 0.78997531E+01</totfact>
</mgrwt>
</event>
<event>
12    6  0.1556619E-007  0.1942313E+04  0.7818608E-02  0.8634076E-01
         -1   -1    0    0    0  501 -0.00000000000E+00  0.00000000000E+00  0.19677086284E+04  0.19677086284E+04  0.00000000000E+00 0.  1.
          2   -1    0    0  501    0  0.00000000000E+00 -0.00000000000E+00 -0.47931150706E+03  0.47931150706E+03  0.00000000000E+00 0. -1.
         24    2    1    2    0    0 -0.11493077083E+03  0.11909780562E+03  0.14462827142E+04  0.14578331028E+04  0.78423828939E+02 0.  0.
        254    2    1    2    0    0  0.11493077083E+03 -0.11909780562E+03  0.42114407149E+02  0.98918703263E+03  0.97433258841E+03 0.  0.
         23    2    4    4    0    0  0.29372840046E+03 -0.47584131621E+03  0.10339914060E+03  0.57507259093E+03  0.85532281086E+02 0.  0.
         23    2    4    4    0    0 -0.17879762963E+03  0.35674351059E+03 -0.61284733447E+02  0.41411444170E+03  0.92197763303E+02 0.  0.
          4    1    3    3  502    0  0.10932081728E+02  0.12993950180E+02  0.20112534120E+03  0.20184091762E+03  0.00000000000E+00 0. -1.
         -3    1    3    3    0  502 -0.12586285255E+03  0.10610385544E+03  0.12451573730E+04  0.12559921852E+04  0.00000000000E+00 0.  1.
         11    1    5    5    0    0  0.19822405866E+03 -0.38711180761E+03  0.70091714504E+02  0.44052375358E+03  0.00000000000E+00 0. -1.
        -11    1    5    5    0    0  0.95504341798E+02 -0.88729508600E+02  0.33307426092E+02  0.13454883735E+03  0.00000000000E+00 0.  1.
          1    1    6    6  503    0 -0.71271734098E+02  0.22894704387E+03 -0.12450320898E+02  0.24010710000E+03  0.00000000000E+00 0. -1.
         -1    1    6    6    0  503 -0.10752589554E+03  0.12779646672E+03 -0.48834412549E+02  0.17400734170E+03  0.00000000000E+00 0.  1.
<mgrwt>
<rscale>  0 0.19423135E+04</rscale>
<asrwt>0</asrwt>
<pdfrwt beam="1">  1        2 0.73740233E-01 0.19423135E+04</pdfrwt>
<pdfrwt beam="2">  1       -1 0.30272440E+00 0.19423135E+04</pdfrwt>
<totfact> 0.21889591E+00</totfact>
</mgrwt>
</event>
<event>
12    6  0.1556619E-007  0.1499786E+04  0.7818608E-02  0.8884595E-01
         -1   -1    0    0    0  501 -0.00000000000E+00  0.00000000000E+00  0.10452099316E+04  0.10452099316E+04  0.00000000000E+00 0.  1.
          2   -1    0    0  501    0  0.00000000000E+00 -0.00000000000E+00 -0.53801619662E+03  0.53801619662E+03  0.00000000000E+00 0. -1.
         24    2    1    2    0    0 -0.10980930555E+03  0.11256165447E+03  0.63710754329E+03  0.66105330733E+03  0.79732325773E+02 0.  0.
        254    2    1    2    0    0  0.10980930555E+03 -0.11256165447E+03 -0.12991380831E+03  0.92217282089E+03  0.89933136516E+03 0.  0.
         23    2    4    4    0    0 -0.84919423184E+02 -0.33028485966E+03  0.25157455423E+03  0.43349902050E+03  0.91281145286E+02 0.  0.
         23    2    4    4    0    0  0.19472872873E+03  0.21772320520E+03 -0.38148836254E+03  0.48867380039E+03  0.89140566295E+02 0.  0.
          4    1    3    3  502    0  0.14542174251E+01  0.46991163141E+02  0.18232710925E+03  0.18829088913E+03  0.00000000000E+00 0. -1.
         -1    1    3    3    0  502 -0.11126352297E+03  0.65570491328E+02  0.45478043404E+03  0.47276241820E+03  0.00000000000E+00 0.  1.
         11    1    5    5    0    0 -0.32443115738E+02 -0.27462307225E+03  0.19746977837E+03  0.33980097254E+03  0.00000000000E+00 0. -1.
        -11    1    5    5    0    0 -0.52476307446E+02 -0.55661787419E+02  0.54104775854E+02  0.93698047963E+02  0.00000000000E+00 0.  1.
          2    1    6    6  503    0  0.19427221293E+03  0.22463736128E+03 -0.37854738357E+03  0.48114629626E+03  0.00000000000E+00 0. -1.
         -2    1    6    6    0  503  0.45651580168E+00 -0.69141560855E+01 -0.29409789674E+01  0.75275041241E+01  0.00000000000E+00 0.  1.
<mgrwt>
<rscale>  0 0.14997865E+04</rscale>
<asrwt>0</asrwt>
<pdfrwt beam="1">  1        2 0.82771723E-01 0.14997865E+04</pdfrwt>
<pdfrwt beam="2">  1       -1 0.16080153E+00 0.14997865E+04</pdfrwt>
<totfact> 0.17984287E+01</totfact>
</mgrwt>
</event>
<event>
12    6  0.1556619E-007  0.1265409E+04  0.7818608E-02  0.9057455E-01
          2   -1    0    0  501    0  0.00000000000E+00  0.00000000000E+00  0.10955102673E+04  0.10955102673E+04  0.00000000000E+00 0. -1.
         -1   -1    0    0    0  501 -0.00000000000E+00 -0.00000000000E+00 -0.36541421307E+03  0.36541421307E+03  0.00000000000E+00 0.  1.
         24    2    1    2    0    0  0.14687864620E+03  0.82440151574E+02  0.44565397815E+03  0.48303798541E+03  0.79677548912E+02 0.  0.
        254    2    1    2    0    0 -0.14687864620E+03 -0.82440151574E+02  0.28444207611E+03  0.97788649499E+03  0.92031787287E+03 0.  0.
         23    2    4    4    0    0 -0.42007029620E+03  0.18152644527E+03  0.34702983514E+03  0.58240576566E+03  0.96725722050E+02 0.  0.
         23    2    4    4    0    0  0.27319165001E+03 -0.26396659685E+03 -0.62587759036E+02  0.39548072933E+03  0.90419786599E+02 0.  0.
          2    1    3    3  502    0  0.29751847968E+02 -0.85139993721E+01  0.13907884843E+03  0.14248012747E+03  0.00000000000E+00 0. -1.
         -1    1    3    3    0  502  0.11712679823E+03  0.90954150946E+02  0.30657512972E+03  0.34055785793E+03  0.00000000000E+00 0.  1.
         11    1    5    5    0    0 -0.26196405226E+03  0.61377825691E+02  0.19405326739E+03  0.33173645073E+03  0.00000000000E+00 0.  1.
        -11    1    5    5    0    0 -0.15810624395E+03  0.12014861958E+03  0.15297656775E+03  0.25066931492E+03  0.00000000000E+00 0. -1.
          4    1    6    6  503    0  0.91217249068E+02 -0.15051982081E+03 -0.24948660346E+02  0.17776174684E+03  0.00000000000E+00 0. -1.
         -4    1    6    6    0  503  0.18197440094E+03 -0.11344677603E+03 -0.37639098691E+02  0.21771898250E+03  0.00000000000E+00 0.  1.
<mgrwt>
<rscale>  0 0.12654091E+04</rscale>
<asrwt>0</asrwt>
<pdfrwt beam="1">  1        2 0.16854004E+00 0.12654091E+04</pdfrwt>
<pdfrwt beam="2">  1       -1 0.56217572E-01 0.12654091E+04</pdfrwt>
<totfact> 0.78643647E+01</totfact>
</mgrwt>
</event>
<event>
12    6  0.1556619E-007  0.2397577E+04  0.7818608E-02  0.8440411E-01
         -1   -1    0    0    0  501 -0.00000000000E+00  0.00000000000E+00  0.91466355971E+03  0.91466355971E+03  0.00000000000E+00 0.  1.
          2   -1    0    0  501    0  0.00000000000E+00 -0.00000000000E+00 -0.15711721017E+04  0.15711721017E+04  0.00000000000E+00 0. -1.
         24    2    1    2    0    0 -0.39070374713E+03 -0.50922178617E+03  0.54977911575E+03  0.84891447970E+03  0.80265012264E+02 0.  0.
        254    2    1    2    0    0  0.39070374713E+03  0.50922178617E+03 -0.12062876577E+04  0.16369211817E+04  0.90134610244E+03 0.  0.
         23    2    4    4    0    0 -0.23422310323E+03  0.30110622518E+03 -0.69522844622E+03  0.79834236232E+03  0.92100565181E+02 0.  0.
         23    2    4    4    0    0  0.62492685036E+03  0.20811556098E+03 -0.51105921149E+03  0.83857881937E+03  0.90483499174E+02 0.  0.
          2    1    3    3  502    0 -0.34662065317E+02 -0.15367178512E+02  0.28719617038E+02  0.47564959269E+02  0.00000000000E+00 0. -1.
         -1    1    3    3    0  502 -0.35604168182E+03 -0.49385460766E+03  0.52105949871E+03  0.80134952043E+03  0.00000000000E+00 0.  1.
         11    1    5    5    0    0 -0.12196386471E+03  0.18481793062E+03 -0.48502328580E+03  0.53317955656E+03  0.00000000000E+00 0. -1.
        -11    1    5    5    0    0 -0.11225923852E+03  0.11628829457E+03 -0.21020516043E+03  0.26516280576E+03  0.00000000000E+00 0.  1.
          3    1    6    6  503    0  0.21121758104E+03  0.41689810731E+02 -0.12631292158E+03  0.24961142004E+03  0.00000000000E+00 0. -1.
         -3    1    6    6    0  503  0.41370926933E+03  0.16642575025E+03 -0.38474628991E+03  0.58896739933E+03  0.00000000000E+00 0.  1.
<mgrwt>
<rscale>  0 0.23975770E+04</rscale>
<asrwt>0</asrwt>
<pdfrwt beam="1">  1        2 0.24171879E+00 0.23975770E+04</pdfrwt>
<pdfrwt beam="2">  1       -1 0.14071747E+00 0.23975770E+04</pdfrwt>
<totfact> 0.49037311E+00</totfact>
</mgrwt>
</event>
<event>
12    6  0.1556619E-007  0.2005304E+04  0.7818608E-02  0.8604145E-01
          2   -1    0    0  501    0  0.00000000000E+00  0.00000000000E+00  0.96663406180E+03  0.96663406180E+03  0.00000000000E+00 0. -1.
         -1   -1    0    0    0  501 -0.00000000000E+00 -0.00000000000E+00 -0.10400121763E+04  0.10400121763E+04  0.00000000000E+00 0.  1.
         24    2    1    2    0    0  0.69600108457E+03 -0.94454186490E+01  0.36710695558E+03  0.79124159277E+03  0.82395483152E+02 0.  0.
        254    2    1    2    0    0 -0.69600108457E+03  0.94454186490E+01 -0.44048507009E+03  0.12154046453E+04  0.89368597913E+03 0.  0.
         23    2    4    4    0    0  0.10254451955E+03  0.21872027544E+03 -0.25058267091E+03  0.36299887695E+03  0.10306586402E+03 0.  0.
         23    2    4    4    0    0 -0.79854560411E+03 -0.20927485679E+03 -0.18990239918E+03  0.85240576839E+03  0.95192569252E+02 0.  0.
          2    1    3    3  502    0  0.39105941514E+03  0.10682733702E+02  0.16335585774E+03  0.42394188662E+03  0.00000000000E+00 0. -1.
         -1    1    3    3    0  502  0.30494166942E+03 -0.20128152351E+02  0.20375109785E+03  0.36729970616E+03  0.00000000000E+00 0.  1.
         11    1    5    5    0    0  0.10412117278E+03  0.22356483969E+03 -0.21538437846E+03  0.32743378971E+03  0.00000000000E+00 0. -1.
        -11    1    5    5    0    0 -0.15766532280E+01 -0.48445642437E+01 -0.35198292456E+02  0.35565087233E+02  0.00000000000E+00 0.  1.
          4    1    6    6  503    0 -0.67639420828E+03 -0.14065521889E+03 -0.15968434934E+03  0.70907835041E+03  0.00000000000E+00 0. -1.
         -4    1    6    6    0  503 -0.12215139583E+03 -0.68619637898E+02 -0.30218049838E+02  0.14332741798E+03  0.00000000000E+00 0.  1.
<mgrwt>
<rscale>  0 0.20053042E+04</rscale>
<asrwt>0</asrwt>
<pdfrwt beam="1">  1        2 0.14871293E+00 0.20053042E+04</pdfrwt>
<pdfrwt beam="2">  1       -1 0.16000187E+00 0.20053042E+04</pdfrwt>
<totfact> 0.81968396E+00</totfact>
</mgrwt>
</event>
<event>
12    6  0.1556619E-007  0.2830856E+04  0.7818608E-02  0.8293752E-01
          2   -1    0    0  501    0  0.00000000000E+00  0.00000000000E+00  0.12334585191E+04  0.12334585191E+04  0.00000000000E+00 0. -1.
         -1   -1    0    0    0  501 -0.00000000000E+00 -0.00000000000E+00 -0.16242429547E+04  0.16242429547E+04  0.00000000000E+00 0.  1.
         24    2    1    2    0    0 -0.58447116986E+03  0.10579578699E+04  0.20129118364E+03  0.12279630628E+04  0.80583745343E+02 0.  0.
        254    2    1    2    0    0  0.58447116986E+03 -0.10579578699E+04 -0.59207561923E+03  0.16297384111E+04  0.91902793584E+03 0.  0.
         23    2    4    4    0    0 -0.17730400185E+02 -0.49288316251E+03  0.14205785819E+03  0.52102600300E+03  0.89663157122E+02 0.  0.
         23    2    4    4    0    0  0.60220157005E+03 -0.56507470740E+03 -0.73413347742E+03  0.11087124081E+04  0.91296688493E+02 0.  0.
          4    1    3    3  502    0 -0.50735339075E+02  0.53769100052E+02  0.68945911247E+01  0.74247734903E+02  0.00000000000E+00 0. -1.
         -3    1    3    3    0  502 -0.53373583079E+03  0.10041887699E+04  0.19439659252E+03  0.11537153279E+04  0.00000000000E+00 0.  1.
         11    1    5    5    0    0 -0.31419243957E+02 -0.74373627195E+02  0.39666267458E+02  0.89955645110E+02  0.00000000000E+00 0. -1.
        -11    1    5    5    0    0  0.13688843772E+02 -0.41850953532E+03  0.10239159073E+03  0.43107035789E+03  0.00000000000E+00 0.  1.
          2    1    6    6  503    0  0.25633855148E+03 -0.29836380121E+03 -0.32480927001E+03  0.51012887855E+03  0.00000000000E+00 0. -1.
         -2    1    6    6    0  503  0.34586301857E+03 -0.26671090619E+03 -0.40932420741E+03  0.59858352957E+03  0.00000000000E+00 0.  1.
<mgrwt>
<rscale>  0 0.28308559E+04</rscale>
<asrwt>0</asrwt>
<pdfrwt beam="1">  1        2 0.18976285E+00 0.28308559E+04</pdfrwt>
<pdfrwt beam="2">  1       -1 0.24988353E+00 0.28308559E+04</pdfrwt>
<totfact> 0.12494191E+00</totfact>
</mgrwt>
</event>
<event>
12    6  0.1556619E-007  0.2746788E+04  0.7818608E-02  0.8319981E-01
          2   -1    0    0  501    0  0.00000000000E+00  0.00000000000E+00  0.18685001475E+04  0.18685001475E+04  0.00000000000E+00 0. -1.
         -1   -1    0    0    0  501 -0.00000000000E+00 -0.00000000000E+00 -0.10094789543E+04  0.10094789543E+04  0.00000000000E+00 0.  1.
         24    2    1    2    0    0 -0.10179169369E+04 -0.51225751861E+03  0.84420941374E+03  0.14202900782E+04  0.77276879974E+02 0.  0.
        254    2    1    2    0    0  0.10179169369E+04  0.51225751861E+03  0.14811779484E+02  0.14576890237E+04  0.90888681651E+03 0.  0.
         23    2    4    4    0    0  0.47960597496E+02 -0.20675040046E+03  0.85225498371E+02  0.24478468838E+03  0.87236523832E+02 0.  0.
         23    2    4    4    0    0  0.96995633936E+03  0.71900791907E+03 -0.70413718887E+02  0.12129043353E+04  0.91603203134E+02 0.  0.
          4    1    3    3  502    0 -0.83050956054E+03 -0.40610613295E+03  0.71892545169E+03  0.11711200308E+04  0.00000000000E+00 0. -1.
         -3    1    3    3    0  502 -0.18740737631E+03 -0.10615138566E+03  0.12528396204E+03  0.24917004740E+03  0.00000000000E+00 0.  1.
         11    1    5    5    0    0 -0.15447740913E+02 -0.45004765294E+02 -0.69970989567E+01  0.48093876869E+02  0.00000000000E+00 0. -1.
        -11    1    5    5    0    0  0.63408338409E+02 -0.16174563517E+03  0.92222597328E+02  0.19669081151E+03  0.00000000000E+00 0.  1.
          4    1    6    6  503    0  0.40414720721E+03  0.26903913675E+03  0.93597707460E+01  0.48559718647E+03  0.00000000000E+00 0. -1.
         -4    1    6    6    0  503  0.56580913215E+03  0.44996878232E+03 -0.79773489633E+02  0.72730714883E+03  0.00000000000E+00 0.  1.
<mgrwt>
<rscale>  0 0.27467884E+04</rscale>
<asrwt>0</asrwt>
<pdfrwt beam="1">  1        2 0.28746156E+00 0.27467884E+04</pdfrwt>
<pdfrwt beam="2">  1       -1 0.15530445E+00 0.27467884E+04</pdfrwt>
<totfact> 0.24955354E+00</totfact>
</mgrwt>
</event>
<event>
12    6  0.1556619E-007  0.1377951E+04  0.7818608E-02  0.8969935E-01
         -1   -1    0    0    0  501 -0.00000000000E+00  0.00000000000E+00  0.22803318828E+03  0.22803318828E+03  0.00000000000E+00 0.  1.
          2   -1    0    0  501    0  0.00000000000E+00 -0.00000000000E+00 -0.20816592167E+04  0.20816592167E+04  0.00000000000E+00 0. -1.
         24    2    1    2    0    0 -0.55724938629E+02 -0.12606986192E+03 -0.11562835586E+04  0.11671229328E+04  0.78647272504E+02 0.  0.
        254    2    1    2    0    0  0.55724938629E+02  0.12606986192E+03 -0.69734246985E+03  0.11425694722E+04  0.89452758468E+03 0.  0.
         23    2    4    4    0    0  0.23927234400E+03 -0.23667420645E+03 -0.23195657497E+02  0.35009663560E+03  0.93614534845E+02 0.  0.
         23    2    4    4    0    0 -0.18354740537E+03  0.36274406837E+03 -0.67414681235E+03  0.79247283663E+03  0.90919541537E+02 0.  0.
          4    1    3    3  502    0 -0.45273400835E+02 -0.12843098002E+03 -0.11364530602E+04  0.11445827867E+04  0.00000000000E+00 0. -1.
         -3    1    3    3    0  502 -0.10451537795E+02  0.23611180983E+01 -0.19830498375E+02  0.22540146112E+02  0.00000000000E+00 0.  1.
         11    1    5    5    0    0  0.14709226288E+03 -0.89798104061E+02 -0.36575379628E+02  0.17617488949E+03  0.00000000000E+00 0. -1.
        -11    1    5    5    0    0  0.92180081123E+02 -0.14687610238E+03  0.13379722131E+02  0.17392174612E+03  0.00000000000E+00 0.  1.
          2    1    6    6  503    0 -0.17314732510E+02  0.40824019794E+00 -0.20329972965E+02  0.26707197957E+02  0.00000000000E+00 0. -1.
         -2    1    6    6    0  503 -0.16623267286E+03  0.36233582817E+03 -0.65381683939E+03  0.76576563867E+03  0.00000000000E+00 0.  1.
<mgrwt>
<rscale>  0 0.13779512E+04</rscale>
<asrwt>0</asrwt>
<pdfrwt beam="1">  1        2 0.32025527E+00 0.13779512E+04</pdfrwt>
<pdfrwt beam="2">  1       -1 0.35082028E-01 0.13779512E+04</pdfrwt>
<totfact> 0.51675166E+01</totfact>
</mgrwt>
</event>
<event>
12    6  0.1556619E-007  0.2488737E+04  0.7818608E-02  0.8407009E-01
          2   -1    0    0  501    0  0.00000000000E+00  0.00000000000E+00  0.30823323881E+04  0.30823323881E+04  0.00000000000E+00 0. -1.
         -1   -1    0    0    0  501 -0.00000000000E+00 -0.00000000000E+00 -0.50236390429E+03  0.50236390429E+03  0.00000000000E+00 0.  1.
         24    2    1    2    0    0 -0.44145674844E+03 -0.25690733949E+03 -0.24570051710E+03  0.57247939231E+03  0.80488935204E+02 0.  0.
        254    2    1    2    0    0  0.44145674844E+03  0.25690733949E+03  0.28256690010E+04  0.30122169001E+04  0.91003291620E+03 0.  0.
         23    2    4    4    0    0  0.23950968983E+03  0.66920754036E+02  0.12142376244E+03  0.29237953200E+03  0.94333354683E+02 0.  0.
         23    2    4    4    0    0  0.20194705861E+03  0.18998658546E+03  0.27042452385E+04  0.27198373681E+04  0.87723895462E+02 0.  0.
          4    1    3    3  502    0 -0.10721427734E+03 -0.84406627862E+02 -0.99746675903E+02  0.16902301455E+03  0.00000000000E+00 0. -1.
         -3    1    3    3    0  502 -0.33424247110E+03 -0.17250071163E+03 -0.14595384120E+03  0.40345637776E+03  0.00000000000E+00 0.  1.
         11    1    5    5    0    0  0.24295678058E+03  0.71664846021E+02  0.10369974811E+03  0.27371058647E+03  0.00000000000E+00 0. -1.
        -11    1    5    5    0    0 -0.34470907531E+01 -0.47440919841E+01  0.17724014330E+02  0.18668945535E+02  0.00000000000E+00 0.  1.
          3    1    6    6  503    0  0.11909260239E+03  0.66991837756E+02  0.15707397350E+04  0.15766718965E+04  0.00000000000E+00 0. -1.
         -3    1    6    6    0  503  0.82854456224E+02  0.12299474770E+03  0.11335055036E+04  0.11431654716E+04  0.00000000000E+00 0.  1.
<mgrwt>
<rscale>  0 0.24887367E+04</rscale>
<asrwt>0</asrwt>
<pdfrwt beam="1">  1        2 0.47420497E+00 0.24887367E+04</pdfrwt>
<pdfrwt beam="2">  1       -1 0.77286756E-01 0.24887367E+04</pdfrwt>
<totfact> 0.26326213E+00</totfact>
</mgrwt>
</event>
<event>
12    6  0.1556619E-007  0.1626322E+04  0.7818608E-02  0.8804539E-01
         -1   -1    0    0    0  501 -0.00000000000E+00  0.00000000000E+00  0.36544544174E+03  0.36544544174E+03  0.00000000000E+00 0.  1.
          2   -1    0    0  501    0  0.00000000000E+00 -0.00000000000E+00 -0.18093823914E+04  0.18093823914E+04  0.00000000000E+00 0. -1.
         24    2    1    2    0    0 -0.13958431519E+03 -0.53684703597E+03 -0.50786681918E+03  0.75628277029E+03  0.79664305345E+02 0.  0.
        254    2    1    2    0    0  0.13958431519E+03  0.53684703597E+03 -0.93607013050E+03  0.14185450629E+04  0.91013970635E+03 0.  0.
         23    2    4    4    0    0 -0.33029138369E+03  0.13445020744E+03 -0.60699182942E+03  0.71022710682E+03  0.93884002146E+02 0.  0.
         23    2    4    4    0    0  0.46987569888E+03  0.40239682853E+03 -0.32907830107E+03  0.70831795603E+03  0.10351530609E+03 0.  0.
          4    1    3    3  502    0 -0.10477236134E+03 -0.49370840772E+03 -0.45064450303E+03  0.67661341079E+03  0.00000000000E+00 0. -1.
         -3    1    3    3    0  502 -0.34811953845E+02 -0.43138628246E+02 -0.57222316151E+02  0.79669359500E+02  0.00000000000E+00 0.  1.
         11    1    5    5    0    0 -0.19555399460E+02  0.16849158587E+02 -0.10586088044E+03  0.10896253393E+03  0.00000000000E+00 0.  1.
        -11    1    5    5    0    0 -0.31073598423E+03  0.11760104885E+03 -0.50113094899E+03  0.60126457289E+03  0.00000000000E+00 0. -1.
          3    1    6    6  503    0  0.21638196019E+03  0.24286268989E+03 -0.14007240152E+03  0.35415210927E+03  0.00000000000E+00 0. -1.
         -3    1    6    6    0  503  0.25349373868E+03  0.15953413865E+03 -0.18900589955E+03  0.35416584676E+03  0.00000000000E+00 0.  1.
<mgrwt>
<rscale>  0 0.16263217E+04</rscale>
<asrwt>0</asrwt>
<pdfrwt beam="1">  1        2 0.27836652E+00 0.16263217E+04</pdfrwt>
<pdfrwt beam="2">  1       -1 0.56222376E-01 0.16263217E+04</pdfrwt>
<totfact> 0.29751447E+01</totfact>
</mgrwt>
</event>
<event>
12    6  0.1556619E-007  0.1697165E+04  0.7818608E-02  0.8762983E-01
          2   -1    0    0  501    0  0.00000000000E+00  0.00000000000E+00  0.40863818867E+03  0.40863818867E+03  0.00000000000E+00 0. -1.
         -1   -1    0    0    0  501 -0.00000000000E+00 -0.00000000000E+00 -0.17621763437E+04  0.17621763437E+04  0.00000000000E+00 0.  1.
         24    2    1    2    0    0  0.40321322141E+03  0.14858337958E+03  0.59273409587E+02  0.44110257411E+03  0.80001382446E+02 0.  0.
        254    2    1    2    0    0 -0.40321322141E+03 -0.14858337958E+03 -0.14128115646E+04  0.17297119583E+04  0.90067142667E+03 0.  0.
         23    2    4    4    0    0  0.97022504708E+02  0.48711642235E+02  0.63952100531E+02  0.15549665993E+03  0.91121619706E+02 0.  0.
         23    2    4    4    0    0 -0.50023572612E+03 -0.19729502181E+03 -0.14767636651E+04  0.15742152983E+04  0.90342545228E+02 0.  0.
          4    1    3    3  502    0  0.30798428049E+03  0.81375617379E+02  0.61921535691E+02  0.32451592367E+03  0.00000000000E+00 0. -1.
         -3    1    3    3    0  502  0.95228940922E+02  0.67207762199E+02 -0.26481261035E+01  0.11658665044E+03  0.00000000000E+00 0.  1.
         11    1    5    5    0    0  0.68604028377E+02  0.48649300422E+02  0.85425009270E+02  0.11987785179E+03  0.00000000000E+00 0. -1.
        -11    1    5    5    0    0  0.28418476331E+02  0.62341813455E-01 -0.21472908740E+02  0.35618808139E+02  0.00000000000E+00 0.  1.
          3    1    6    6  503    0 -0.47971493183E+03 -0.16865311181E+03 -0.13480732215E+04  0.14407885683E+04  0.00000000000E+00 0. -1.
         -3    1    6    6    0  503 -0.20520794283E+02 -0.28641909999E+02 -0.12869044367E+03  0.13342673008E+03  0.00000000000E+00 0.  1.
<mgrwt>
<rscale>  0 0.16971653E+04</rscale>
<asrwt>0</asrwt>
<pdfrwt beam="1">  1        2 0.62867414E-01 0.16971653E+04</pdfrwt>
<pdfrwt beam="2">  1       -1 0.27110405E+00 0.16971653E+04</pdfrwt>
<totfact> 0.42966457E+00</totfact>
</mgrwt>
</event>
<event>
12    6  0.1556619E-007  0.2082360E+04  0.7818608E-02  0.8569054E-01
         -1   -1    0    0    0  501 -0.00000000000E+00  0.00000000000E+00  0.20460105034E+04  0.20460105034E+04  0.00000000000E+00 0.  1.
          4   -1    0    0  501    0  0.00000000000E+00 -0.00000000000E+00 -0.52983904208E+03  0.52983904208E+03  0.00000000000E+00 0. -1.
         24    2    1    2    0    0  0.47134901013E+03 -0.66202951453E+03  0.33823097062E+03  0.88364828329E+03  0.77337776022E+02 0.  0.
        254    2    1    2    0    0 -0.47134901013E+03  0.66202951453E+03  0.11779404907E+04  0.16922012622E+04  0.90307715324E+03 0.  0.
         23    2    4    4    0    0  0.64967924820E+02  0.17598760371E+03 -0.91517034916E+02  0.22798842231E+03  0.91710877821E+02 0.  0.
         23    2    4    4    0    0 -0.53631693495E+03  0.48604191082E+03  0.12694575256E+04  0.14642128399E+04  0.92326796577E+02 0.  0.
          2    1    3    3  502    0  0.40577605811E+03 -0.51820786297E+03  0.26684427628E+03  0.71021086049E+03  0.00000000000E+00 0. -1.
         -1    1    3    3    0  502  0.65572952018E+02 -0.14382165157E+03  0.71386694345E+02  0.17343742279E+03  0.00000000000E+00 0.  1.
         11    1    5    5    0    0 -0.13244882916E+02  0.95953697671E+02 -0.40078902186E+02  0.10482775120E+03  0.00000000000E+00 0. -1.
        -11    1    5    5    0    0  0.78212807736E+02  0.80033906041E+02 -0.51438132730E+02  0.12316067111E+03  0.00000000000E+00 0.  1.
          4    1    6    6  503    0 -0.47823798502E+03  0.45172442467E+03  0.10983711671E+04  0.12803068956E+04  0.00000000000E+00 0. -1.
         -4    1    6    6    0  503 -0.58078949927E+02  0.34317486147E+02  0.17108635853E+03  0.18390594432E+03  0.00000000000E+00 0.  1.
<mgrwt>
<rscale>  0 0.20823604E+04</rscale>
<asrwt>0</asrwt>
<pdfrwt beam="1">  1        4 0.81513700E-01 0.20823604E+04</pdfrwt>
<pdfrwt beam="2">  1       -1 0.31477084E+00 0.20823604E+04</pdfrwt>
<totfact> 0.13647973E-01</totfact>
</mgrwt>
</event>
<event>
12    6  0.1556619E-007  0.5143006E+04  0.7818608E-02  0.7806818E-01
         -1   -1    0    0    0  501 -0.00000000000E+00  0.00000000000E+00  0.24042402750E+04  0.24042402750E+04  0.00000000000E+00 0.  1.
          2   -1    0    0  501    0  0.00000000000E+00 -0.00000000000E+00 -0.27504017613E+04  0.27504017613E+04  0.00000000000E+00 0. -1.
         24    2    1    2    0    0 -0.20438648287E+04  0.49115987357E+03 -0.15100352238E+04  0.25894364246E+04  0.79706715625E+02 0.  0.
        254    2    1    2    0    0  0.20438648287E+04 -0.49115987357E+03  0.11638737376E+04  0.25652056116E+04  0.89836311894E+03 0.  0.
         23    2    4    4    0    0  0.11017653073E+04  0.18741662877E+03  0.54609686372E+03  0.12468652690E+04  0.86252126518E+02 0.  0.
         23    2    4    4    0    0  0.94209952142E+03 -0.67857650234E+03  0.61777687385E+03  0.13183403426E+04  0.91407961326E+02 0.  0.
          4    1    3    3  502    0 -0.10610366116E+04  0.24389482167E+03 -0.73481063813E+03  0.13134801289E+04  0.00000000000E+00 0. -1.
         -3    1    3    3    0  502 -0.98282821712E+03  0.24726505190E+03 -0.77522458568E+03  0.12759562957E+04  0.00000000000E+00 0.  1.
         11    1    5    5    0    0  0.92137548562E+03  0.18689983348E+03  0.47005594666E+03  0.10511027192E+04  0.00000000000E+00 0. -1.
        -11    1    5    5    0    0  0.18038982168E+03  0.51679529099E+00  0.76040917066E+02  0.19576254982E+03  0.00000000000E+00 0.  1.
          4    1    6    6  503    0  0.55269086294E+03 -0.44411138013E+03  0.40391447346E+03  0.81599571678E+03  0.00000000000E+00 0. -1.
         -4    1    6    6    0  503  0.38940865848E+03 -0.23446512222E+03  0.21386240039E+03  0.50234462586E+03  0.00000000000E+00 0.  1.
<mgrwt>
<rscale>  0 0.51430056E+04</rscale>
<asrwt>0</asrwt>
<pdfrwt beam="1">  1        2 0.42313873E+00 0.51430056E+04</pdfrwt>
<pdfrwt beam="2">  1       -1 0.36988312E+00 0.51430056E+04</pdfrwt>
<totfact> 0.23218561E-02</totfact>
</mgrwt>
</event>
<event>
12    6  0.1556619E-007  0.3901502E+04  0.7818608E-02  0.8024717E-01
          2   -1    0    0  501    0  0.00000000000E+00  0.00000000000E+00  0.36535263362E+04  0.36535263362E+04  0.00000000000E+00 0. -1.
         -1   -1    0    0    0  501 -0.00000000000E+00 -0.00000000000E+00 -0.10415771962E+04  0.10415771962E+04  0.00000000000E+00 0.  1.
         24    2    1    2    0    0  0.48815382266E+03  0.70614632790E+03 -0.73408919065E+03  0.11323653464E+04  0.80171983081E+02 0.  0.
        254    2    1    2    0    0 -0.48815382266E+03 -0.70614632790E+03  0.33460383306E+04  0.35627381860E+04  0.87189109475E+03 0.  0.
         23    2    4    4    0    0 -0.62915910303E+03 -0.21425309899E+03  0.14713345872E+04  0.16172592301E+04  0.94638165978E+02 0.  0.
         23    2    4    4    0    0  0.14100528038E+03 -0.49189322891E+03  0.18747037435E+04  0.19454789559E+04  0.92373181165E+02 0.  0.
          2    1    3    3  502    0  0.22100281627E+03  0.34851843180E+03 -0.30474386142E+03  0.51300698161E+03  0.00000000000E+00 0. -1.
         -1    1    3    3    0  502  0.26715100639E+03  0.35762789609E+03 -0.42934532923E+03  0.61935836477E+03  0.00000000000E+00 0.  1.
         11    1    5    5    0    0 -0.45571382742E+02  0.65973375052E+01  0.77832848419E+02  0.90433556162E+02  0.00000000000E+00 0. -1.
        -11    1    5    5    0    0 -0.58358772029E+03 -0.22085043650E+03  0.13935017388E+04  0.15268256739E+04  0.00000000000E+00 0.  1.
          1    1    6    6  503    0 -0.39173052144E+01 -0.98321395873E+01  0.12199327905E+02  0.16150537154E+02  0.00000000000E+00 0. -1.
         -1    1    6    6    0  503  0.14492258559E+03 -0.48206108932E+03  0.18625044155E+04  0.19293284188E+04  0.00000000000E+00 0.  1.
<mgrwt>
<rscale>  0 0.39015021E+04</rscale>
<asrwt>0</asrwt>
<pdfrwt beam="1">  1        2 0.56208097E+00 0.39015021E+04</pdfrwt>
<pdfrwt beam="2">  1       -1 0.16024265E+00 0.39015021E+04</pdfrwt>
<totfact> 0.16541845E-01</totfact>
</mgrwt>
</event>
<event>
12    6  0.1556619E-007  0.1325785E+04  0.7818608E-02  0.9009364E-01
         -1   -1    0    0    0  501 -0.00000000000E+00  0.00000000000E+00  0.14191494418E+03  0.14191494418E+03  0.00000000000E+00 0.  1.
          2   -1    0    0  501    0  0.00000000000E+00 -0.00000000000E+00 -0.30964071371E+04  0.30964071371E+04  0.00000000000E+00 0. -1.
         24    2    1    2    0    0  0.21470960649E+03  0.27089552114E+03 -0.64129482778E+03  0.73313598753E+03  0.82126253922E+02 0.  0.
        254    2    1    2    0    0 -0.21470960649E+03 -0.27089552114E+03 -0.23131973651E+04  0.25051860938E+04  0.89754705488E+03 0.  0.
         23    2    4    4    0    0 -0.57115894260E+02  0.37369585877E+02 -0.20680222033E+04  0.20711281551E+04  0.90538888301E+02 0.  0.
         23    2    4    4    0    0 -0.15759371223E+03 -0.30826510702E+03 -0.24517516184E+03  0.43405793862E+03  0.91827445528E+02 0.  0.
          2    1    3    3  502    0  0.17809015612E+02  0.20094970688E+01 -0.13762788391E+02  0.22596757728E+02  0.00000000000E+00 0. -1.
         -1    1    3    3    0  502  0.19690059088E+03  0.26888602408E+03 -0.62753203939E+03  0.71053922981E+03  0.00000000000E+00 0.  1.
         11    1    5    5    0    0  0.15059279333E+02  0.40082139952E+01 -0.10108096499E+04  0.10109297681E+04  0.00000000000E+00 0. -1.
        -11    1    5    5    0    0 -0.72175173593E+02  0.33361371882E+02 -0.10572125534E+04  0.10601983870E+04  0.00000000000E+00 0.  1.
          3    1    6    6  503    0 -0.11894546381E+03 -0.13234077580E+03 -0.11609748369E+03  0.21246347925E+03  0.00000000000E+00 0. -1.
         -3    1    6    6    0  503 -0.38648248425E+02 -0.17592433123E+03 -0.12907767815E+03  0.22159445936E+03  0.00000000000E+00 0.  1.
<mgrwt>
<rscale>  0 0.13257850E+04</rscale>
<asrwt>0</asrwt>
<pdfrwt beam="1">  1        2 0.47637029E+00 0.13257850E+04</pdfrwt>
<pdfrwt beam="2">  1       -1 0.21833070E-01 0.13257850E+04</pdfrwt>
<totfact> 0.30115825E+01</totfact>
</mgrwt>
</event>
<event>
12    6  0.1556619E-007  0.2604431E+04  0.7818608E-02  0.8366698E-01
          2   -1    0    0  501    0  0.00000000000E+00  0.00000000000E+00  0.58493581683E+03  0.58493581683E+03  0.00000000000E+00 0. -1.
         -1   -1    0    0    0  501 -0.00000000000E+00 -0.00000000000E+00 -0.28990618957E+04  0.28990618957E+04  0.00000000000E+00 0.  1.
         24    2    1    2    0    0 -0.88198157634E+03 -0.35968536810E+03 -0.16342280547E+03  0.96974387471E+03  0.80194165361E+02 0.  0.
        254    2    1    2    0    0  0.88198157634E+03  0.35968536810E+03 -0.21507032734E+04  0.25142538378E+04  0.88807810789E+03 0.  0.
         23    2    4    4    0    0  0.15164303250E+03  0.16318117812E+03 -0.14799039744E+04  0.14993018579E+04  0.90369140117E+02 0.  0.
         23    2    4    4    0    0  0.73033854384E+03  0.19650418999E+03 -0.67079929896E+03  0.10149519799E+04  0.90263706195E+02 0.  0.
          2    1    3    3  502    0 -0.57484797548E+03 -0.26477945168E+03 -0.13409259423E+03  0.64694603853E+03  0.00000000000E+00 0. -1.
         -1    1    3    3    0  502 -0.30713360086E+03 -0.94905916425E+02 -0.29330211240E+02  0.32279783618E+03  0.00000000000E+00 0.  1.
         11    1    5    5    0    0 -0.96031152865E+01  0.13998789360E+01 -0.30405991392E+02  0.31917139546E+02  0.00000000000E+00 0.  1.
        -11    1    5    5    0    0  0.16124614779E+03  0.16178129918E+03 -0.14494979830E+04  0.14673847184E+04  0.00000000000E+00 0. -1.
          1    1    6    6  503    0  0.51450091490E+03  0.17698625168E+03 -0.50128534946E+03  0.73981235884E+03  0.00000000000E+00 0. -1.
         -1    1    6    6    0  503  0.21583762894E+03  0.19517938305E+02 -0.16951394950E+03  0.27513962102E+03  0.00000000000E+00 0.  1.
<mgrwt>
<rscale>  0 0.26044309E+04</rscale>
<asrwt>0</asrwt>
<pdfrwt beam="1">  1        2 0.89990128E-01 0.26044309E+04</pdfrwt>
<pdfrwt beam="2">  1       -1 0.44600951E+00 0.26044309E+04</pdfrwt>
<totfact> 0.17771767E-01</totfact>
</mgrwt>
</event>
<event>
12    6  0.1556619E-007  0.1511255E+04  0.7818608E-02  0.8877003E-01
          2   -1    0    0  501    0  0.00000000000E+00  0.00000000000E+00  0.16141837806E+04  0.16141837806E+04  0.00000000000E+00 0. -1.
         -1   -1    0    0    0  501 -0.00000000000E+00 -0.00000000000E+00 -0.35372218201E+03  0.35372218201E+03  0.00000000000E+00 0.  1.
         24    2    1    2    0    0 -0.41935969063E+03 -0.17314295400E+03  0.12468912187E+03  0.47742755832E+03  0.80923814094E+02 0.  0.
        254    2    1    2    0    0  0.41935969063E+03  0.17314295400E+03  0.11357724767E+04  0.14904784042E+04  0.85188363177E+03 0.  0.
         23    2    4    4    0    0 -0.22380856546E+03  0.18346701419E+03  0.25682306805E+03  0.39767723838E+03  0.91862279362E+02 0.  0.
         23    2    4    4    0    0  0.64316825610E+03 -0.10324060186E+02  0.87894940863E+03  0.10928011659E+04  0.88827548168E+02 0.  0.
          2    1    3    3  502    0 -0.10435008658E+03 -0.11582032026E+02  0.46734211915E+02  0.11492245471E+03  0.00000000000E+00 0. -1.
         -1    1    3    3    0  502 -0.31500960406E+03 -0.16156092198E+03  0.77954909954E+02  0.36250510361E+03  0.00000000000E+00 0.  1.
         11    1    5    5    0    0 -0.15065898599E+03  0.96017746617E+02  0.10303229706E+03  0.20623576790E+03  0.00000000000E+00 0.  1.
        -11    1    5    5    0    0 -0.73149579476E+02  0.87449267570E+02  0.15379077099E+03  0.19144147047E+03  0.00000000000E+00 0. -1.
          1    1    6    6  503    0  0.56791994282E+03 -0.32089448393E+02  0.74088350358E+03  0.93406164680E+03  0.00000000000E+00 0. -1.
         -1    1    6    6    0  503  0.75248313279E+02  0.21765388207E+02  0.13806590504E+03  0.15873951906E+03  0.00000000000E+00 0.  1.
<mgrwt>
<rscale>  0 0.15112546E+04</rscale>
<asrwt>0</asrwt>
<pdfrwt beam="1">  1        2 0.24833596E+00 0.15112546E+04</pdfrwt>
<pdfrwt beam="2">  1       -1 0.54418798E-01 0.15112546E+04</pdfrwt>
<totfact> 0.41074734E+01</totfact>
</mgrwt>
</event>
<event>
12    6  0.1556619E-007  0.1644186E+04  0.7818608E-02  0.8793854E-01
          2   -1    0    0  501    0  0.00000000000E+00  0.00000000000E+00  0.19484463110E+04  0.19484463110E+04  0.00000000000E+00 0. -1.
         -1   -1    0    0    0  501 -0.00000000000E+00 -0.00000000000E+00 -0.34685926463E+03  0.34685926463E+03  0.00000000000E+00 0.  1.
         24    2    1    2    0    0  0.34247865329E+03 -0.32277113420E+03  0.10125814898E+04  0.11194448648E+04  0.79766527727E+02 0.  0.
        254    2    1    2    0    0 -0.34247865329E+03  0.32277113420E+03  0.58900555657E+03  0.11758607108E+04  0.90235693183E+03 0.  0.
         23    2    4    4    0    0 -0.20563953454E+02  0.54493126723E+02  0.71951389265E+03  0.72747517188E+03  0.90152686773E+02 0.  0.
         23    2    4    4    0    0 -0.32191469983E+03  0.26827800747E+03 -0.13050833608E+03  0.44838553889E+03  0.91733322392E+02 0.  0.
          2    1    3    3  502    0  0.16642181729E+03 -0.14036417110E+03  0.55773275613E+03  0.59871875623E+03  0.00000000000E+00 0. -1.
         -1    1    3    3    0  502  0.17605683600E+03 -0.18240696310E+03  0.45484873362E+03  0.52072610858E+03  0.00000000000E+00 0.  1.
         11    1    5    5    0    0 -0.36282406690E+02  0.68036649920E+02  0.40480797776E+03  0.41208603183E+03  0.00000000000E+00 0. -1.
        -11    1    5    5    0    0  0.15718453236E+02 -0.13543523197E+02  0.31470591489E+03  0.31538914005E+03  0.00000000000E+00 0.  1.
          1    1    6    6  503    0 -0.29595674782E+03  0.24786457316E+03 -0.14493188820E+03  0.41234996717E+03  0.00000000000E+00 0. -1.
         -1    1    6    6    0  503 -0.25957952017E+02  0.20413434312E+02  0.14423552125E+02  0.36035571720E+02  0.00000000000E+00 0.  1.
<mgrwt>
<rscale>  0 0.16441857E+04</rscale>
<asrwt>0</asrwt>
<pdfrwt beam="1">  1        2 0.29976097E+00 0.16441857E+04</pdfrwt>
<pdfrwt beam="2">  1       -1 0.53362965E-01 0.16441857E+04</pdfrwt>
<totfact> 0.27525340E+01</totfact>
</mgrwt>
</event>
<event>
12    6  0.1556619E-007  0.1337693E+04  0.7818608E-02  0.9000197E-01
          2   -1    0    0  501    0  0.00000000000E+00  0.00000000000E+00  0.98003999838E+03  0.98003999838E+03  0.00000000000E+00 0. -1.
         -1   -1    0    0    0  501 -0.00000000000E+00 -0.00000000000E+00 -0.45646647713E+03  0.45646647713E+03  0.00000000000E+00 0.  1.
         24    2    1    2    0    0 -0.95629549635E+02 -0.32175074802E+03  0.26561659171E+02  0.34580776015E+03  0.78796767838E+02 0.  0.
        254    2    1    2    0    0  0.95629549635E+02  0.32175074802E+03  0.49701186208E+03  0.10906987154E+04  0.91100732271E+03 0.  0.
         23    2    4    4    0    0  0.29866456064E+02  0.63283377938E+03  0.31957146022E+03  0.71542825127E+03  0.91329442143E+02 0.  0.
         23    2    4    4    0    0  0.65763093571E+02 -0.31108303136E+03  0.17744040186E+03  0.37527046409E+03  0.90804119570E+02 0.  0.
          2    1    3    3  502    0 -0.17648211962E+02 -0.87269203741E+01  0.11640433696E+02  0.22871777834E+02  0.00000000000E+00 0. -1.
         -1    1    3    3    0  502 -0.77981337673E+02 -0.31302382765E+03  0.14921225475E+02  0.32293598231E+03  0.00000000000E+00 0.  1.
         11    1    5    5    0    0  0.48397604620E+01  0.25149685737E+03  0.17685071215E+03  0.30749027129E+03  0.00000000000E+00 0.  1.
        -11    1    5    5    0    0  0.25026695602E+02  0.38133692201E+03  0.14272074807E+03  0.40793797998E+03  0.00000000000E+00 0. -1.
          3    1    6    6  503    0 -0.19869961896E+01 -0.56730990924E+02  0.72073901839E+02  0.91744214048E+02  0.00000000000E+00 0. -1.
         -3    1    6    6    0  503  0.67750089760E+02 -0.25435204044E+03  0.10536650002E+03  0.28352625004E+03  0.00000000000E+00 0.  1.
<mgrwt>
<rscale>  0 0.13376926E+04</rscale>
<asrwt>0</asrwt>
<pdfrwt beam="1">  1        2 0.15077538E+00 0.13376926E+04</pdfrwt>
<pdfrwt beam="2">  1       -1 0.70225612E-01 0.13376926E+04</pdfrwt>
<totfact> 0.59332146E+01</totfact>
</mgrwt>
</event>
<event>
12    6  0.1556619E-007  0.1205376E+04  0.7818608E-02  0.9108164E-01
          2   -1    0    0  501    0  0.00000000000E+00  0.00000000000E+00  0.41760838723E+03  0.41760838723E+03  0.00000000000E+00 0. -1.
         -3   -1    0    0    0  501 -0.00000000000E+00 -0.00000000000E+00 -0.86979288037E+03  0.86979288037E+03  0.00000000000E+00 0.  1.
         24    2    1    2    0    0  0.84779195174E+01  0.19578229342E+03  0.90806234179E+02  0.22942630413E+03  0.77382655201E+02 0.  0.
        254    2    1    2    0    0 -0.84779195174E+01 -0.19578229342E+03 -0.54299072732E+03  0.10579749635E+04  0.88660561234E+03 0.  0.
         23    2    4    4    0    0 -0.29502725453E+03 -0.42356610301E+03 -0.37795356464E+03  0.64622879875E+03  0.91178060850E+02 0.  0.
         23    2    4    4    0    0  0.28654933501E+03  0.22778380959E+03 -0.16503716268E+03  0.41174616472E+03  0.91113411661E+02 0.  0.
          2    1    3    3  502    0  0.33181036487E+02  0.14453382957E+03  0.88058825464E+02  0.17246844875E+03  0.00000000000E+00 0. -1.
         -1    1    3    3    0  502 -0.24703116969E+02  0.51248463848E+02  0.27474087146E+01  0.56957855380E+02  0.00000000000E+00 0.  1.
         11    1    5    5    0    0 -0.23527327663E+03 -0.36002308565E+03 -0.27151831853E+03  0.50861806318E+03  0.00000000000E+00 0.  1.
        -11    1    5    5    0    0 -0.59753977900E+02 -0.63543017357E+02 -0.10643524611E+03  0.13761073557E+03  0.00000000000E+00 0. -1.
          3    1    6    6  503    0  0.32256702681E+02  0.72282794586E+02 -0.34944114036E+02  0.86523917888E+02  0.00000000000E+00 0. -1.
         -3    1    6    6    0  503  0.25429263233E+03  0.15550101501E+03 -0.13009304865E+03  0.32522224683E+03  0.00000000000E+00 0.  1.
<mgrwt>
<rscale>  0 0.12053760E+04</rscale>
<asrwt>0</asrwt>
<pdfrwt beam="1">  1        2 0.64247445E-01 0.12053760E+04</pdfrwt>
<pdfrwt beam="2">  1       -3 0.13381429E+00 0.12053760E+04</pdfrwt>
<totfact> 0.20218884E+01</totfact>
</mgrwt>
</event>
<event>
12    6  0.1556619E-007  0.1798816E+04  0.7818608E-02  0.8706929E-01
          2   -1    0    0  501    0  0.00000000000E+00  0.00000000000E+00  0.60811540586E+03  0.60811540586E+03  0.00000000000E+00 0. -1.
         -1   -1    0    0    0  501 -0.00000000000E+00 -0.00000000000E+00 -0.13302330103E+04  0.13302330103E+04  0.00000000000E+00 0.  1.
         24    2    1    2    0    0 -0.28025305750E+03 -0.33568756136E+03  0.26898039287E+03  0.51954172658E+03  0.79657007306E+02 0.  0.
        254    2    1    2    0    0  0.28025305750E+03  0.33568756136E+03 -0.99109799732E+03  0.14188066896E+04  0.91624738311E+03 0.  0.
         23    2    4    4    0    0  0.16247814537E+03  0.48697780324E+03 -0.13600031892E+03  0.53865014683E+03  0.90007585000E+02 0.  0.
         23    2    4    4    0    0  0.11777491213E+03 -0.15129024188E+03 -0.85509767841E+03  0.88015654277E+03  0.81998981339E+02 0.  0.
          2    1    3    3  502    0 -0.12291825181E+03 -0.20524326701E+03  0.12873457710E+03  0.27167312458E+03  0.00000000000E+00 0. -1.
         -1    1    3    3    0  502 -0.15733480570E+03 -0.13044429435E+03  0.14024581577E+03  0.24786860199E+03  0.00000000000E+00 0.  1.
         11    1    5    5    0    0  0.16922458290E+03  0.43841833559E+03 -0.10801046298E+03  0.48219690642E+03  0.00000000000E+00 0. -1.
        -11    1    5    5    0    0 -0.67464375308E+01  0.48559467649E+02 -0.27989855937E+02  0.56453240413E+02  0.00000000000E+00 0.  1.
          3    1    6    6  503    0  0.84307868052E+02 -0.14533677955E+03 -0.77737710255E+03  0.79532745186E+03  0.00000000000E+00 0. -1.
         -3    1    6    6    0  503  0.33467044079E+02 -0.59534623270E+01 -0.77720575858E+02  0.84829090911E+02  0.00000000000E+00 0.  1.
<mgrwt>
<rscale>  0 0.17988165E+04</rscale>
<asrwt>0</asrwt>
<pdfrwt beam="1">  1        2 0.93556217E-01 0.17988165E+04</pdfrwt>
<pdfrwt beam="2">  1       -1 0.20465123E+00 0.17988165E+04</pdfrwt>
<totfact> 0.73562031E+00</totfact>
</mgrwt>
</event>
<event>
12    6  0.1556619E-007  0.2201337E+04  0.7818608E-02  0.8517872E-01
         -1   -1    0    0    0  501 -0.00000000000E+00  0.00000000000E+00  0.82439092482E+03  0.82439092482E+03  0.00000000000E+00 0.  1.
          2   -1    0    0  501    0  0.00000000000E+00 -0.00000000000E+00 -0.14695347470E+04  0.14695347470E+04  0.00000000000E+00 0. -1.
         24    2    1    2    0    0  0.35083018909E+03  0.81518871057E+03 -0.49027155958E+03  0.10169750281E+04  0.79104678370E+02 0.  0.
        254    2    1    2    0    0 -0.35083018909E+03 -0.81518871057E+03 -0.15487226264E+03  0.12769506438E+04  0.90498788587E+03 0.  0.
         23    2    4    4    0    0 -0.19700226775E+03  0.47606302263E+02  0.22406180352E+03  0.31793364549E+03  0.99004331333E+02 0.  0.
         23    2    4    4    0    0 -0.15382792134E+03 -0.86279501283E+03 -0.37893406617E+03  0.95901699831E+03  0.89690094205E+02 0.  0.
          2    1    3    3  502    0  0.82473294678E+02  0.13050306652E+03 -0.10565231179E+03  0.18707032285E+03  0.00000000000E+00 0. -1.
         -1    1    3    3    0  502  0.26835689441E+03  0.68468564405E+03 -0.38461924779E+03  0.82990470521E+03  0.00000000000E+00 0.  1.
         11    1    5    5    0    0 -0.14313304266E+03  0.68560127378E+02  0.20001449229E+03  0.25532989659E+03  0.00000000000E+00 0. -1.
        -11    1    5    5    0    0 -0.53869225092E+02 -0.20953825114E+02  0.24047311235E+02  0.62603748902E+02  0.00000000000E+00 0.  1.
          1    1    6    6  503    0 -0.79724747794E+01 -0.16995462748E+02  0.39811977171E+01  0.19189998525E+02  0.00000000000E+00 0.  1.
         -1    1    6    6    0  503 -0.14585544656E+03 -0.84579955008E+03 -0.38291526389E+03  0.93982699979E+03  0.00000000000E+00 0. -1.
<mgrwt>
<rscale>  0 0.22013370E+04</rscale>
<asrwt>0</asrwt>
<pdfrwt beam="1">  1        2 0.22608227E+00 0.22013370E+04</pdfrwt>
<pdfrwt beam="2">  1       -1 0.12682938E+00 0.22013370E+04</pdfrwt>
<totfact> 0.74224620E+00</totfact>
</mgrwt>
</event>
<event>
12    6  0.1556619E-007  0.1380583E+04  0.7818608E-02  0.8967995E-01
         -1   -1    0    0    0  501 -0.00000000000E+00  0.00000000000E+00  0.30482363558E+03  0.30482363558E+03  0.00000000000E+00 0.  1.
          2   -1    0    0  501    0  0.00000000000E+00 -0.00000000000E+00 -0.15632065399E+04  0.15632065399E+04  0.00000000000E+00 0. -1.
         24    2    1    2    0    0 -0.33398941561E+02 -0.37040402663E+03 -0.53529178662E+03  0.65801070787E+03  0.90145230645E+02 0.  0.
        254    2    1    2    0    0  0.33398941561E+02  0.37040402663E+03 -0.72309111770E+03  0.12100194676E+04  0.89608689046E+03 0.  0.
         23    2    4    4    0    0  0.31851092126E+03  0.31170462423E+03 -0.77695613093E+03  0.90052862580E+03  0.93177233157E+02 0.  0.
         23    2    4    4    0    0 -0.28511197970E+03  0.58699402400E+02  0.53865013225E+02  0.30949084181E+03  0.90270043225E+02 0.  0.
          2    1    3    3  502    0 -0.27766239797E+02 -0.26696080448E+03 -0.44935085282E+03  0.52340732143E+03  0.00000000000E+00 0. -1.
         -3    1    3    3    0  502 -0.56327017633E+01 -0.10344322215E+03 -0.85940933805E+02  0.13460338644E+03  0.00000000000E+00 0.  1.
         11    1    5    5    0    0  0.68562591741E+02  0.84130392103E+02 -0.27221042874E+03  0.29304823729E+03  0.00000000000E+00 0. -1.
        -11    1    5    5    0    0  0.24994832951E+03  0.22757423213E+03 -0.50474570218E+03  0.60748038851E+03  0.00000000000E+00 0.  1.
          3    1    6    6  503    0 -0.98226350000E+02  0.40424185187E+02  0.59268857806E+02  0.12163604765E+03  0.00000000000E+00 0. -1.
         -3    1    6    6    0  503 -0.18688562970E+03  0.18275217213E+02 -0.54038445815E+01  0.18785479416E+03  0.00000000000E+00 0.  1.
<mgrwt>
<rscale>  0 0.13805829E+04</rscale>
<asrwt>0</asrwt>
<pdfrwt beam="1">  1        2 0.24049332E+00 0.13805829E+04</pdfrwt>
<pdfrwt beam="2">  1       -1 0.46895943E-01 0.13805829E+04</pdfrwt>
<totfact> 0.58853471E+01</totfact>
</mgrwt>
</event>
<event>
12    6  0.1556619E-007  0.1152827E+04  0.7818608E-02  0.9155180E-01
          2   -1    0    0  501    0  0.00000000000E+00  0.00000000000E+00  0.25748925453E+04  0.25748925453E+04  0.00000000000E+00 0. -1.
         -1   -1    0    0    0  501 -0.00000000000E+00 -0.00000000000E+00 -0.12903547214E+03  0.12903547214E+03  0.00000000000E+00 0.  1.
         24    2    1    2    0    0 -0.15819768430E+03 -0.33247023293E+02  0.15020779343E+03  0.23479423912E+03  0.80212727419E+02 0.  0.
        254    2    1    2    0    0  0.15819768430E+03  0.33247023293E+02  0.22956492798E+04  0.24691337784E+04  0.89469778579E+03 0.  0.
         23    2    4    4    0    0 -0.21928910512E+03 -0.13283760531E+03  0.17897798067E+04  0.18101033195E+04  0.86190079477E+02 0.  0.
         23    2    4    4    0    0  0.37748678942E+03  0.16608462860E+03  0.50586947306E+03  0.65903045886E+03  0.91306307991E+02 0.  0.
          2    1    3    3  502    0 -0.20713685854E+02 -0.36744270757E+02  0.26501194313E+02  0.49814772058E+02  0.00000000000E+00 0. -1.
         -1    1    3    3    0  502 -0.13748399845E+03  0.34972474640E+01  0.12370659912E+03  0.18497946707E+03  0.00000000000E+00 0.  1.
         11    1    5    5    0    0 -0.35519332690E+02  0.85309960744E+01  0.17579413006E+03  0.17954937218E+03  0.00000000000E+00 0.  1.
        -11    1    5    5    0    0 -0.18376977243E+03 -0.14136860139E+03  0.16139856766E+04  0.16305539473E+04  0.00000000000E+00 0. -1.
          4    1    6    6  503    0  0.32094892950E+03  0.17342636518E+03  0.44875656358E+03  0.57833154232E+03  0.00000000000E+00 0. -1.
         -4    1    6    6    0  503  0.56537859925E+02 -0.73417365775E+01  0.57112909479E+02  0.80698916535E+02  0.00000000000E+00 0.  1.
<mgrwt>
<rscale>  0 0.11528269E+04</rscale>
<asrwt>0</asrwt>
<pdfrwt beam="1">  1        2 0.39613728E+00 0.11528269E+04</pdfrwt>
<pdfrwt beam="2">  1       -1 0.19851613E-01 0.11528269E+04</pdfrwt>
<totfact> 0.74137951E+01</totfact>
</mgrwt>
</event>
<event>
12    6  0.1556619E-007  0.2210779E+04  0.7818608E-02  0.8513955E-01
         -1   -1    0    0    0  501 -0.00000000000E+00  0.00000000000E+00  0.11506703747E+04  0.11506703747E+04  0.00000000000E+00 0.  1.
          2   -1    0    0  501    0  0.00000000000E+00 -0.00000000000E+00 -0.10618902199E+04  0.10618902199E+04  0.00000000000E+00 0. -1.
         24    2    1    2    0    0 -0.73978537872E+03 -0.31063544945E+02  0.58527498396E+03  0.94718703679E+03  0.79806800567E+02 0.  0.
        254    2    1    2    0    0  0.73978537872E+03  0.31063544945E+02 -0.49649482922E+03  0.12653735578E+04  0.89800655615E+03 0.  0.
         23    2    4    4    0    0  0.37460347951E+03  0.29500339094E+03  0.11713752143E+03  0.49869273543E+03  0.87283892656E+02 0.  0.
         23    2    4    4    0    0  0.36518189921E+03 -0.26393984599E+03 -0.61363235066E+03  0.76668082235E+03  0.90734556692E+02 0.  0.
          2    1    3    3  502    0 -0.56204098511E+03 -0.95180116814E+01  0.40279010500E+03  0.69153490886E+03  0.00000000000E+00 0. -1.
         -3    1    3    3    0  502 -0.17774439361E+03 -0.21545533264E+02  0.18248487896E+03  0.25565212793E+03  0.00000000000E+00 0.  1.
         11    1    5    5    0    0  0.25767316695E+03  0.25063265234E+03  0.80398500755E+02  0.36834237648E+03  0.00000000000E+00 0. -1.
        -11    1    5    5    0    0  0.11693031256E+03  0.44370738599E+02  0.36739020677E+02  0.13035035895E+03  0.00000000000E+00 0.  1.
          3    1    6    6  503    0  0.13493640923E+03 -0.92068301660E+02 -0.29817061886E+03  0.33998547713E+03  0.00000000000E+00 0. -1.
         -3    1    6    6    0  503  0.23024548999E+03 -0.17187154433E+03 -0.31546173179E+03  0.42669534522E+03  0.00000000000E+00 0.  1.
<mgrwt>
<rscale>  0 0.22107787E+04</rscale>
<asrwt>0</asrwt>
<pdfrwt beam="1">  1        2 0.16336773E+00 0.22107787E+04</pdfrwt>
<pdfrwt beam="2">  1       -1 0.17702621E+00 0.22107787E+04</pdfrwt>
<totfact> 0.52391653E+00</totfact>
</mgrwt>
</event>
<event>
12    6  0.1556619E-007  0.2202823E+04  0.7818608E-02  0.8517254E-01
          2   -1    0    0  501    0  0.00000000000E+00  0.00000000000E+00  0.39153840089E+04  0.39153840089E+04  0.00000000000E+00 0. -1.
         -1   -1    0    0    0  501 -0.00000000000E+00 -0.00000000000E+00 -0.30983090094E+03  0.30983090094E+03  0.00000000000E+00 0.  1.
         24    2    1    2    0    0 -0.87990228122E+03  0.11491971150E+03  0.19125403360E+04  0.21100119148E+04  0.83097409651E+02 0.  0.
        254    2    1    2    0    0  0.87990228122E+03 -0.11491971150E+03  0.16930127720E+04  0.21152029950E+04  0.90573555707E+03 0.  0.
         23    2    4    4    0    0  0.46451715045E+03 -0.40589763591E+03  0.44951018880E+03  0.76876533017E+03  0.91715043175E+02 0.  0.
         23    2    4    4    0    0  0.41538513077E+03  0.29097792442E+03  0.12435025832E+04  0.13464376648E+04  0.96864603920E+02 0.  0.
          4    1    3    3  502    0 -0.11717769750E+03  0.22827375289E+02  0.19782284303E+03  0.23105319535E+03  0.00000000000E+00 0. -1.
         -3    1    3    3    0  502 -0.76272458372E+03  0.92092336207E+02  0.17147174929E+04  0.18789587195E+04  0.00000000000E+00 0.  1.
         11    1    5    5    0    0  0.91952067116E+01 -0.24982259513E+02  0.38168976925E+02  0.46535319021E+02  0.00000000000E+00 0.  1.
        -11    1    5    5    0    0  0.45532194373E+03 -0.38091537640E+03  0.41134121187E+03  0.72223001115E+03  0.00000000000E+00 0. -1.
          4    1    6    6  503    0  0.27230469587E+03  0.18018963671E+03  0.67498479368E+03  0.74981506004E+03  0.00000000000E+00 0.  1.
         -4    1    6    6    0  503  0.14308043490E+03  0.11078828771E+03  0.56851778949E+03  0.59662260476E+03  0.00000000000E+00 0. -1.
<mgrwt>
<rscale>  0 0.22028227E+04</rscale>
<asrwt>0</asrwt>
<pdfrwt beam="1">  1        2 0.60236674E+00 0.22028227E+04</pdfrwt>
<pdfrwt beam="2">  1       -1 0.47666295E-01 0.22028227E+04</pdfrwt>
<totfact> 0.18387754E+00</totfact>
</mgrwt>
</event>
<event>
12    6  0.1556619E-007  0.1988735E+04  0.7818608E-02  0.8611906E-01
         -1   -1    0    0    0  501 -0.00000000000E+00  0.00000000000E+00  0.50516502488E+03  0.50516502488E+03  0.00000000000E+00 0.  1.
          2   -1    0    0  501    0  0.00000000000E+00 -0.00000000000E+00 -0.19573145528E+04  0.19573145528E+04  0.00000000000E+00 0. -1.
         24    2    1    2    0    0  0.12440465447E+03 -0.18141485283E+02  0.38654937216E+03  0.41414780271E+03  0.79324358379E+02 0.  0.
        254    2    1    2    0    0 -0.12440465447E+03  0.18141485283E+02 -0.18386989001E+04  0.20483317750E+04  0.89389248999E+03 0.  0.
         23    2    4    4    0    0 -0.48209011897E+03  0.74829604209E+02 -0.13111742042E+04  0.14019581029E+04  0.91095422824E+02 0.  0.
         23    2    4    4    0    0  0.35768546450E+03 -0.56688118926E+02 -0.52752469586E+03  0.64637367205E+03  0.91455917444E+02 0.  0.
          2    1    3    3  502    0  0.11750240445E+03 -0.24856427576E+02  0.25097756972E+03  0.27823442912E+03  0.00000000000E+00 0. -1.
         -1    1    3    3    0  502  0.69022500195E+01  0.67149422922E+01  0.13557180244E+03  0.13591337360E+03  0.00000000000E+00 0.  1.
         11    1    5    5    0    0 -0.24680287612E+03 -0.76249911236E+01 -0.64174240541E+03  0.68760680265E+03  0.00000000000E+00 0. -1.
        -11    1    5    5    0    0 -0.23528724285E+03  0.82454595333E+02 -0.66943179881E+03  0.71435130027E+03  0.00000000000E+00 0.  1.
          2    1    6    6  503    0  0.39577722268E+02 -0.35715068053E+02 -0.96734717567E+02  0.11045165354E+03  0.00000000000E+00 0.  1.
         -2    1    6    6    0  503  0.31810774224E+03 -0.20973050872E+02 -0.43078997829E+03  0.53592201852E+03  0.00000000000E+00 0. -1.
<mgrwt>
<rscale>  0 0.19887351E+04</rscale>
<asrwt>0</asrwt>
<pdfrwt beam="1">  1        2 0.30112532E+00 0.19887351E+04</pdfrwt>
<pdfrwt beam="2">  1       -1 0.77717694E-01 0.19887351E+04</pdfrwt>
<totfact> 0.12393382E+01</totfact>
</mgrwt>
</event>
<event>
12    6  0.1556619E-007  0.2942266E+04  0.7818608E-02  0.8260412E-01
         -1   -1    0    0    0  501 -0.00000000000E+00  0.00000000000E+00  0.81555693209E+03  0.81555693209E+03  0.00000000000E+00 0.  1.
          2   -1    0    0  501    0  0.00000000000E+00 -0.00000000000E+00 -0.26536854806E+04  0.26536854806E+04  0.00000000000E+00 0. -1.
         24    2    1    2    0    0  0.12330131038E+04 -0.50423516114E+03 -0.89345981500E+03  0.16059834776E+04  0.79612043360E+02 0.  0.
        254    2    1    2    0    0 -0.12330131038E+04  0.50423516114E+03 -0.94466873346E+03  0.18632589350E+04  0.89708440578E+03 0.  0.
         23    2    4    4    0    0 -0.28860448968E+03 -0.16655073147E+03 -0.52436568122E+03  0.62766150009E+03  0.89263057506E+02 0.  0.
         23    2    4    4    0    0 -0.94440861414E+03  0.67078589261E+03 -0.42030305224E+03  0.12355974349E+04  0.90471107773E+02 0.  0.
          2    1    3    3  502    0  0.27505643041E+03 -0.11362184316E+03 -0.24039585602E+03  0.38256519804E+03  0.00000000000E+00 0. -1.
         -1    1    3    3    0  502  0.95795667340E+03 -0.39061331798E+03 -0.65306395898E+03  0.12234182796E+04  0.00000000000E+00 0.  1.
         11    1    5    5    0    0 -0.18110579002E+03 -0.13422749847E+03 -0.28577441903E+03  0.36398261923E+03  0.00000000000E+00 0. -1.
        -11    1    5    5    0    0 -0.10749869965E+03 -0.32323232993E+02 -0.23859126219E+03  0.26367888086E+03  0.00000000000E+00 0.  1.
          1    1    6    6  503    0 -0.45424409026E+03  0.37268450196E+03 -0.23341725065E+03  0.63223021475E+03  0.00000000000E+00 0. -1.
         -1    1    6    6    0  503 -0.49016452388E+03  0.29810139065E+03 -0.18688580159E+03  0.60336722020E+03  0.00000000000E+00 0.  1.
<mgrwt>
<rscale>  0 0.29422655E+04</rscale>
<asrwt>0</asrwt>
<pdfrwt beam="1">  1        2 0.40825931E+00 0.29422655E+04</pdfrwt>
<pdfrwt beam="2">  1       -1 0.12547030E+00 0.29422655E+04</pdfrwt>
<totfact> 0.15327310E+00</totfact>
</mgrwt>
</event>
<event>
12    6  0.1556619E-007  0.1450319E+04  0.7818608E-02  0.8918180E-01
          2   -1    0    0  501    0  0.00000000000E+00  0.00000000000E+00  0.95841889869E+03  0.95841889869E+03  0.00000000000E+00 0. -1.
         -1   -1    0    0    0  501 -0.00000000000E+00 -0.00000000000E+00 -0.54867028760E+03  0.54867028760E+03  0.00000000000E+00 0.  1.
         24    2    1    2    0    0  0.25572549253E+03  0.36203138097E+03  0.10108440757E+03  0.46115428375E+03  0.77349645315E+02 0.  0.
        254    2    1    2    0    0 -0.25572549253E+03 -0.36203138097E+03  0.30866420352E+03  0.10459349025E+04  0.89568073637E+03 0.  0.
         23    2    4    4    0    0 -0.14266288684E+03 -0.53789272832E+03  0.49564296690E+03  0.75101827126E+03  0.93194456212E+02 0.  0.
         23    2    4    4    0    0 -0.11306260569E+03  0.17586134735E+03 -0.18697876339E+03  0.29491663128E+03  0.91128454128E+02 0.  0.
          4    1    3    3  502    0  0.35127428213E+02  0.92117585757E+02  0.14360621809E+01  0.98598418310E+02  0.00000000000E+00 0. -1.
         -3    1    3    3    0  502  0.22059806431E+03  0.26991379521E+03  0.99648345387E+02  0.36255586544E+03  0.00000000000E+00 0.  1.
         11    1    5    5    0    0 -0.13967234640E+02 -0.64834188487E+02  0.10486632676E+03  0.12407861269E+03  0.00000000000E+00 0. -1.
        -11    1    5    5    0    0 -0.12869565220E+03 -0.47305853983E+03  0.39077664015E+03  0.62693965857E+03  0.00000000000E+00 0.  1.
          1    1    6    6  503    0  0.13544760532E+02  0.15611100848E+02 -0.33830584299E+02  0.39644362040E+02  0.00000000000E+00 0. -1.
         -1    1    6    6    0  503 -0.12660736622E+03  0.16025024650E+03 -0.15314817909E+03  0.25527226924E+03  0.00000000000E+00 0.  1.
<mgrwt>
<rscale>  0 0.14503185E+04</rscale>
<asrwt>0</asrwt>
<pdfrwt beam="1">  1        2 0.14744906E+00 0.14503185E+04</pdfrwt>
<pdfrwt beam="2">  1       -1 0.84410814E-01 0.14503185E+04</pdfrwt>
<totfact> 0.41239082E+01</totfact>
</mgrwt>
</event>
<event>
12    6  0.1556619E-007  0.2363807E+04  0.7818608E-02  0.8453179E-01
         -1   -1    0    0    0  501 -0.00000000000E+00  0.00000000000E+00  0.16181955756E+04  0.16181955756E+04  0.00000000000E+00 0.  1.
          2   -1    0    0  501    0  0.00000000000E+00 -0.00000000000E+00 -0.86324323109E+03  0.86324323109E+03  0.00000000000E+00 0. -1.
         24    2    1    2    0    0 -0.22902456898E+03  0.77507258919E+03 -0.30996661386E+03  0.86907187990E+03  0.77568415028E+02 0.  0.
        254    2    1    2    0    0  0.22902456898E+03 -0.77507258919E+03  0.10649189584E+04  0.16123669268E+04  0.90137946892E+03 0.  0.
         23    2    4    4    0    0 -0.30134554722E+03 -0.67747847700E+02  0.30482948104E+03  0.44292300909E+03  0.88661546192E+02 0.  0.
         23    2    4    4    0    0  0.53037011620E+03 -0.70732474149E+03  0.76008947732E+03  0.11694439177E+04  0.90897266245E+02 0.  0.
          4    1    3    3  502    0 -0.18525822024E+03  0.52466988164E+03 -0.18976312979E+03  0.58788531049E+03  0.00000000000E+00 0. -1.
         -3    1    3    3    0  502 -0.43766348737E+02  0.25040270755E+03 -0.12020348406E+03  0.28118656940E+03  0.00000000000E+00 0.  1.
         11    1    5    5    0    0 -0.18061800522E+03 -0.69758299361E+02  0.14153361040E+03  0.23983504125E+03  0.00000000000E+00 0.  1.
        -11    1    5    5    0    0 -0.12072754200E+03  0.20104516605E+01  0.16329587064E+03  0.20308796784E+03  0.00000000000E+00 0. -1.
          3    1    6    6  503    0  0.15019395251E+03 -0.27161671140E+03  0.25660371319E+03  0.40271494497E+03  0.00000000000E+00 0. -1.
         -3    1    6    6    0  503  0.38017616369E+03 -0.43570803009E+03  0.50348576413E+03  0.76672897272E+03  0.00000000000E+00 0.  1.
<mgrwt>
<rscale>  0 0.23638074E+04</rscale>
<asrwt>0</asrwt>
<pdfrwt beam="1">  1        2 0.13280665E+00 0.23638074E+04</pdfrwt>
<pdfrwt beam="2">  1       -1 0.24895317E+00 0.23638074E+04</pdfrwt>
<totfact> 0.22637836E+00</totfact>
</mgrwt>
</event>
<event>
12    6  0.1556619E-007  0.2840884E+04  0.7818608E-02  0.8290687E-01
         -1   -1    0    0    0  501 -0.00000000000E+00  0.00000000000E+00  0.93251973444E+03  0.93251973444E+03  0.00000000000E+00 0.  1.
          2   -1    0    0  501    0  0.00000000000E+00 -0.00000000000E+00 -0.21636603586E+04  0.21636603586E+04  0.00000000000E+00 0. -1.
         24    2    1    2    0    0 -0.27596220125E+03  0.30004792900E+03  0.76519412848E+03  0.87073660217E+03  0.80475337096E+02 0.  0.
        254    2    1    2    0    0  0.27596220125E+03 -0.30004792900E+03 -0.19963347526E+04  0.22254434909E+04  0.89502088816E+03 0.  0.
         23    2    4    4    0    0 -0.17007767752E+03  0.20171173449E+03 -0.84613540510E+03  0.89067850272E+03  0.88028581851E+02 0.  0.
         23    2    4    4    0    0  0.44603987877E+03 -0.50175966349E+03 -0.11501993475E+04  0.13347649881E+04  0.89020790563E+02 0.  0.
          4    1    3    3  502    0 -0.12605808952E+03  0.16421111044E+03  0.31187842365E+03  0.37433151332E+03  0.00000000000E+00 0. -1.
         -3    1    3    3    0  502 -0.14990411173E+03  0.13583681856E+03  0.45331570483E+03  0.49640508885E+03  0.00000000000E+00 0.  1.
         11    1    5    5    0    0 -0.76955661391E+02  0.15507625971E+03 -0.49346700979E+03  0.52295364030E+03  0.00000000000E+00 0.  1.
        -11    1    5    5    0    0 -0.93122016129E+02  0.46635474781E+02 -0.35266839531E+03  0.36772486243E+03  0.00000000000E+00 0. -1.
          1    1    6    6  503    0  0.97480090293E+01  0.28280383868E+01 -0.15853473720E+02  0.18824295741E+02  0.00000000000E+00 0. -1.
         -1    1    6    6    0  503  0.43629186974E+03 -0.50458770188E+03 -0.11343458738E+04  0.13159406924E+04  0.00000000000E+00 0.  1.
<mgrwt>
<rscale>  0 0.28408844E+04</rscale>
<asrwt>0</asrwt>
<pdfrwt beam="1">  1        2 0.33287083E+00 0.28408844E+04</pdfrwt>
<pdfrwt beam="2">  1       -1 0.14346457E+00 0.28408844E+04</pdfrwt>
<totfact> 0.20980021E+00</totfact>
</mgrwt>
</event>
<event>
12    6  0.1556619E-007  0.1204681E+04  0.7818608E-02  0.9108769E-01
          2   -1    0    0  501    0  0.00000000000E+00  0.00000000000E+00  0.58314777271E+03  0.58314777271E+03  0.00000000000E+00 0. -1.
         -1   -1    0    0    0  501 -0.00000000000E+00 -0.00000000000E+00 -0.62216533749E+03  0.62216533749E+03  0.00000000000E+00 0.  1.
         24    2    1    2    0    0  0.19540414990E+03  0.98625647980E+02 -0.14551193785E+03  0.27466183425E+03  0.79722010140E+02 0.  0.
        254    2    1    2    0    0 -0.19540414990E+03 -0.98625647980E+02  0.10649437306E+03  0.93065127595E+03  0.89825438808E+03 0.  0.
         23    2    4    4    0    0 -0.44696967884E+03 -0.30574590091E+03 -0.60916844697E+02  0.55324994787E+03  0.95457808096E+02 0.  0.
         23    2    4    4    0    0  0.25156552894E+03  0.20712025293E+03  0.16741121776E+03  0.37740132808E+03  0.90671010114E+02 0.  0.
          2    1    3    3  502    0  0.80099295485E+02  0.31659588002E+01 -0.72624195046E+02  0.10816743567E+03  0.00000000000E+00 0. -1.
         -1    1    3    3    0  502  0.11530485441E+03  0.95459689179E+02 -0.72887742802E+02  0.16649439858E+03  0.00000000000E+00 0.  1.
         11    1    5    5    0    0 -0.47778612172E+02 -0.39679254289E+02 -0.38333923898E+02  0.72984441653E+02  0.00000000000E+00 0. -1.
        -11    1    5    5    0    0 -0.39919106667E+03 -0.26606664662E+03 -0.22582920799E+02  0.48026550622E+03  0.00000000000E+00 0.  1.
          1    1    6    6  503    0  0.21386575708E+03  0.12467496498E+03  0.12474454767E+03  0.27720680208E+03  0.00000000000E+00 0.  1.
         -1    1    6    6    0  503  0.37699771864E+02  0.82445287949E+02  0.42666670087E+02  0.10019452600E+03  0.00000000000E+00 0. -1.
<mgrwt>
<rscale>  0 0.12046814E+04</rscale>
<asrwt>0</asrwt>
<pdfrwt beam="1">  1        2 0.89715043E-01 0.12046814E+04</pdfrwt>
<pdfrwt beam="2">  1       -1 0.95717743E-01 0.12046814E+04</pdfrwt>
<totfact> 0.60963493E+01</totfact>
</mgrwt>
</event>
<event>
12    6  0.1556619E-007  0.2025810E+04  0.7818608E-02  0.8594648E-01
          2   -1    0    0  501    0  0.00000000000E+00  0.00000000000E+00  0.12426268056E+04  0.12426268056E+04  0.00000000000E+00 0. -1.
         -1   -1    0    0    0  501 -0.00000000000E+00 -0.00000000000E+00 -0.82565163160E+03  0.82565163160E+03  0.00000000000E+00 0.  1.
         24    2    1    2    0    0 -0.47471276134E+03  0.33896669731E+03 -0.40320285840E+03  0.71353842971E+03  0.79460166049E+02 0.  0.
        254    2    1    2    0    0  0.47471276134E+03 -0.33896669731E+03  0.82017803242E+03  0.13547400075E+04  0.90685051438E+03 0.  0.
         23    2    4    4    0    0 -0.32274907407E+02 -0.51542536960E+03  0.49123567086E+03  0.71856637517E+03  0.91214965504E+02 0.  0.
         23    2    4    4    0    0  0.50698766875E+03  0.17645867228E+03  0.32894236156E+03  0.63617363235E+03  0.91321705961E+02 0.  0.
          2    1    3    3  502    0 -0.11338851278E+03  0.11104912808E+03 -0.14093885850E+03  0.21225603763E+03  0.00000000000E+00 0. -1.
         -1    1    3    3    0  502 -0.36132424856E+03  0.22791756924E+03 -0.26226399990E+03  0.50128239208E+03  0.00000000000E+00 0.  1.
         11    1    5    5    0    0  0.90495826246E+01 -0.54333014559E+02  0.92123169691E+02  0.10733429000E+03  0.00000000000E+00 0. -1.
        -11    1    5    5    0    0 -0.41324490032E+02 -0.46109235504E+03  0.39911250117E+03  0.61123208517E+03  0.00000000000E+00 0.  1.
          3    1    6    6  503    0  0.10000808457E+03  0.39158684273E+01  0.84863413260E+02  0.13122023440E+03  0.00000000000E+00 0. -1.
         -3    1    6    6    0  503  0.40697958417E+03  0.17254280385E+03  0.24407894830E+03  0.50495339795E+03  0.00000000000E+00 0.  1.
<mgrwt>
<rscale>  0 0.20258103E+04</rscale>
<asrwt>0</asrwt>
<pdfrwt beam="1">  1        2 0.19117335E+00 0.20258103E+04</pdfrwt>
<pdfrwt beam="2">  1       -1 0.12702333E+00 0.20258103E+04</pdfrwt>
<totfact> 0.10152751E+01</totfact>
</mgrwt>
</event>
<event>
12    6  0.1556619E-007  0.1419306E+04  0.7818608E-02  0.8939962E-01
         -1   -1    0    0    0  501 -0.00000000000E+00  0.00000000000E+00  0.35541306866E+03  0.35541306866E+03  0.00000000000E+00 0.  1.
          2   -1    0    0  501    0  0.00000000000E+00 -0.00000000000E+00 -0.14169626315E+04  0.14169626315E+04  0.00000000000E+00 0. -1.
         24    2    1    2    0    0  0.25395993497E+03  0.23772191749E+02  0.85837844736E+02  0.27916071537E+03  0.74174144740E+02 0.  0.
        254    2    1    2    0    0 -0.25395993497E+03 -0.23772191749E+02 -0.11473874076E+04  0.14932149848E+04  0.92094101987E+03 0.  0.
         23    2    4    4    0    0 -0.38834097833E+03 -0.38701366031E+03 -0.70181711054E+03  0.89525569078E+03  0.91363047875E+02 0.  0.
         23    2    4    4    0    0  0.13438104336E+03  0.36324146856E+03 -0.44557029708E+03  0.59795929404E+03  0.94972619198E+02 0.  0.
          4    1    3    3  502    0  0.63556155438E+02  0.19989739688E+01 -0.10850645762E+02  0.64506722940E+02  0.00000000000E+00 0. -1.
         -3    1    3    3    0  502  0.19040377953E+03  0.21773217781E+02  0.96688490498E+02  0.21465399243E+03  0.00000000000E+00 0.  1.
         11    1    5    5    0    0 -0.15170449730E+03 -0.20687381492E+03 -0.28848828880E+03  0.38605248681E+03  0.00000000000E+00 0.  1.
        -11    1    5    5    0    0 -0.23663648103E+03 -0.18013984539E+03 -0.41332882175E+03  0.50920320397E+03  0.00000000000E+00 0. -1.
          3    1    6    6  503    0  0.13091442896E+03  0.28658515752E+03 -0.30898654233E+03  0.44129618575E+03  0.00000000000E+00 0. -1.
         -3    1    6    6    0  503  0.34666144029E+01  0.76656311040E+02 -0.13658375475E+03  0.15666310829E+03  0.00000000000E+00 0.  1.
<mgrwt>
<rscale>  0 0.14193055E+04</rscale>
<asrwt>0</asrwt>
<pdfrwt beam="1">  1        2 0.21799426E+00 0.14193055E+04</pdfrwt>
<pdfrwt beam="2">  1       -1 0.54678932E-01 0.14193055E+04</pdfrwt>
<totfact> 0.52963738E+01</totfact>
</mgrwt>
</event>
<event>
12    6  0.1759076E-007  0.1718510E+04  0.7818608E-02  0.8750877E-01
          2   -1    0    0  501    0  0.00000000000E+00  0.00000000000E+00  0.17283187082E+04  0.17283187082E+04  0.00000000000E+00 0. -1.
         -1   -1    0    0    0  501 -0.00000000000E+00 -0.00000000000E+00 -0.42718918845E+03  0.42718918845E+03  0.00000000000E+00 0.  1.
         24    2    1    2    0    0  0.96502100835E+02 -0.26379295722E+03 -0.22185073591E+03  0.36659956486E+03  0.79234539141E+02 0.  0.
        254    2    1    2    0    0 -0.96502100835E+02  0.26379295722E+03  0.15229802557E+04  0.17889083318E+04  0.89544669338E+03 0.  0.
         23    2    4    4    0    0 -0.24143232699E+03 -0.24817318675E+03  0.36689877867E+03  0.51280874362E+03  0.92079284355E+02 0.  0.
         23    2    4    4    0    0  0.14493022616E+03  0.51196614397E+03  0.11560814770E+04  0.12760995882E+04  0.93763929424E+02 0.  0.
          4    1    3    3  502    0 -0.89237407373E+01 -0.58968107977E+01 -0.19560549845E+02  0.22293959644E+02  0.00000000000E+00 0. -1.
         -3    1    3    3    0  502  0.10542584157E+03 -0.25789614642E+03 -0.20229018606E+03  0.34430560522E+03  0.00000000000E+00 0.  1.
         11    1    5    5    0    0 -0.18455353264E+03 -0.12647946723E+03  0.22077101465E+03  0.31431974635E+03  0.00000000000E+00 0. -1.
        -11    1    5    5    0    0 -0.56878794357E+02 -0.12169371953E+03  0.14612776402E+03  0.19848899727E+03  0.00000000000E+00 0.  1.
          1    1    6    6  503    0 -0.35234132538E+01  0.38711517524E+01  0.76422231715E+00  0.52900182038E+01  0.00000000000E+00 0. -1.
         -1    1    6    6    0  503  0.14845363941E+03  0.50809499221E+03  0.11553172547E+04  0.12708095700E+04  0.00000000000E+00 0.  1.
<mgrwt>
<rscale>  0 0.17185099E+04</rscale>
<asrwt>0</asrwt>
<pdfrwt beam="1">  1        2 0.26589518E+00 0.17185099E+04</pdfrwt>
<pdfrwt beam="2">  1       -1 0.65721415E-01 0.17185099E+04</pdfrwt>
<totfact> 0.24020882E+01</totfact>
</mgrwt>
</event>
<event>
12    6  0.1556619E-007  0.1534388E+04  0.7818608E-02  0.8861902E-01
         -1   -1    0    0    0  501 -0.00000000000E+00  0.00000000000E+00  0.83078831154E+03  0.83078831154E+03  0.00000000000E+00 0.  1.
          2   -1    0    0  501    0  0.00000000000E+00 -0.00000000000E+00 -0.70846770808E+03  0.70846770808E+03  0.00000000000E+00 0. -1.
         24    2    1    2    0    0 -0.14219748235E+03  0.39460388657E+03  0.31125963488E+03  0.52838811386E+03  0.79869188539E+02 0.  0.
        254    2    1    2    0    0  0.14219748235E+03 -0.39460388657E+03 -0.18893903142E+03  0.10108679058E+04  0.90012422144E+03 0.  0.
         23    2    4    4    0    0 -0.15185712964E+03  0.17803192999E+03 -0.25513570070E+03  0.35740738474E+03  0.88824866895E+02 0.  0.
         23    2    4    4    0    0  0.29405461199E+03 -0.57263581656E+03  0.66196669279E+02  0.65346052102E+03  0.90822685822E+02 0.  0.
          2    1    3    3  502    0 -0.87290880123E+02  0.15585684086E+03  0.98945496985E+02  0.20420887338E+03  0.00000000000E+00 0. -1.
         -1    1    3    3    0  502 -0.54906602222E+02  0.23874704571E+03  0.21231413789E+03  0.32417924047E+03  0.00000000000E+00 0.  1.
         11    1    5    5    0    0 -0.10318411801E+03  0.17207462265E+03 -0.21460640119E+03  0.29378996817E+03  0.00000000000E+00 0. -1.
        -11    1    5    5    0    0 -0.48673011634E+02  0.59573073448E+01 -0.40529299508E+02  0.63617416569E+02  0.00000000000E+00 0.  1.
          1    1    6    6  503    0  0.16361117083E+03 -0.39965308656E+03  0.65642973450E+02  0.43680682777E+03  0.00000000000E+00 0. -1.
         -1    1    6    6    0  503  0.13044344116E+03 -0.17298273000E+03  0.55369582941E+00  0.21665369325E+03  0.00000000000E+00 0.  1.
<mgrwt>
<rscale>  0 0.15343881E+04</rscale>
<asrwt>0</asrwt>
<pdfrwt beam="1">  1        2 0.10899503E+00 0.15343881E+04</pdfrwt>
<pdfrwt beam="2">  1       -1 0.12781359E+00 0.15343881E+04</pdfrwt>
<totfact> 0.23513537E+01</totfact>
</mgrwt>
</event>
<event>
12    6  0.1556619E-007  0.2723790E+04  0.7818608E-02  0.8327327E-01
         -1   -1    0    0    0  501 -0.00000000000E+00  0.00000000000E+00  0.23253548442E+04  0.23253548442E+04  0.00000000000E+00 0.  1.
          2   -1    0    0  501    0  0.00000000000E+00 -0.00000000000E+00 -0.79762379994E+03  0.79762379994E+03  0.00000000000E+00 0. -1.
         24    2    1    2    0    0  0.86474450250E+03  0.30045451499E+03 -0.22559897551E+03  0.94621787536E+03  0.79858623335E+02 0.  0.
        254    2    1    2    0    0 -0.86474450250E+03 -0.30045451499E+03  0.17533300198E+04  0.21767607688E+04  0.90888135425E+03 0.  0.
         23    2    4    4    0    0 -0.64121658091E+03 -0.41252605790E+03  0.55041459890E+03  0.94475064145E+03  0.90890548240E+02 0.  0.
         23    2    4    4    0    0 -0.22352792159E+03  0.11207154290E+03  0.12029154209E+04  0.12320101274E+04  0.91206806787E+02 0.  0.
          2    1    3    3  502    0  0.46045615866E+03  0.18131327548E+03 -0.86437685545E+02  0.50236028048E+03  0.00000000000E+00 0. -1.
         -1    1    3    3    0  502  0.40428834384E+03  0.11914123951E+03 -0.13916128996E+03  0.44385759489E+03  0.00000000000E+00 0.  1.
         11    1    5    5    0    0 -0.54893363713E+03 -0.33320056830E+03  0.49624449424E+03  0.81154750616E+03  0.00000000000E+00 0. -1.
        -11    1    5    5    0    0 -0.92282943780E+02 -0.79325489594E+02  0.54170104656E+02  0.13320313529E+03  0.00000000000E+00 0.  1.
          4    1    6    6  503    0 -0.21277105886E+03  0.12028954368E+03  0.10315783749E+04  0.10601391613E+04  0.00000000000E+00 0. -1.
         -4    1    6    6    0  503 -0.10756862734E+02 -0.82180007775E+01  0.17133704604E+03  0.17187096607E+03  0.00000000000E+00 0.  1.
<mgrwt>
<rscale>  0 0.27237903E+04</rscale>
<asrwt>0</asrwt>
<pdfrwt beam="1">  1        2 0.12271135E+00 0.27237903E+04</pdfrwt>
<pdfrwt beam="2">  1       -1 0.35774690E+00 0.27237903E+04</pdfrwt>
<totfact> 0.47646977E-01</totfact>
</mgrwt>
</event>
<event>
12    6  0.1556619E-007  0.1303667E+04  0.7818608E-02  0.9026662E-01
          2   -1    0    0  501    0  0.00000000000E+00  0.00000000000E+00  0.55955598930E+03  0.55955598930E+03  0.00000000000E+00 0. -1.
         -1   -1    0    0    0  501 -0.00000000000E+00 -0.00000000000E+00 -0.75932865622E+03  0.75932865622E+03  0.00000000000E+00 0.  1.
         24    2    1    2    0    0 -0.96422262721E+02 -0.32875333144E+03 -0.14960277581E+03  0.38234802083E+03  0.80206064703E+02 0.  0.
        254    2    1    2    0    0  0.96422262721E+02  0.32875333144E+03 -0.50169891116E+02  0.93653662470E+03  0.87017689336E+03 0.  0.
         23    2    4    4    0    0  0.42379182713E+03 -0.89557687652E+01 -0.12644369035E+03  0.45155370516E+03  0.90736008718E+02 0.  0.
         23    2    4    4    0    0 -0.32736956441E+03  0.33770910021E+03  0.76273799235E+02  0.48498291953E+03  0.90401724095E+02 0.  0.
          2    1    3    3  502    0 -0.68158783834E+01 -0.43064283426E+01 -0.20178355402E+02  0.21729416696E+02  0.00000000000E+00 0. -1.
         -1    1    3    3    0  502 -0.89606384337E+02 -0.32444690310E+03 -0.12942442041E+03  0.36061860413E+03  0.00000000000E+00 0.  1.
         11    1    5    5    0    0  0.66723708519E+02 -0.28472663732E+02 -0.43052893980E+02  0.84358150398E+02  0.00000000000E+00 0.  1.
        -11    1    5    5    0    0  0.35706811861E+03  0.19516894967E+02 -0.83390796371E+02  0.36719555477E+03  0.00000000000E+00 0. -1.
          1    1    6    6  503    0 -0.11598246598E+03  0.97996193813E+02 -0.15060603604E+02  0.15258442974E+03  0.00000000000E+00 0.  1.
         -1    1    6    6    0  503 -0.21138709843E+03  0.23971290640E+03  0.91334402839E+02  0.33239848980E+03  0.00000000000E+00 0. -1.
<mgrwt>
<rscale>  0 0.13036670E+04</rscale>
<asrwt>0</asrwt>
<pdfrwt beam="1">  1        2 0.86085537E-01 0.13036670E+04</pdfrwt>
<pdfrwt beam="2">  1       -1 0.11681979E+00 0.13036670E+04</pdfrwt>
<totfact> 0.39946490E+01</totfact>
</mgrwt>
</event>
<event>
12    6  0.1556619E-007  0.2142667E+04  0.7818608E-02  0.8542678E-01
          2   -1    0    0  501    0  0.00000000000E+00  0.00000000000E+00  0.14215250624E+04  0.14215250624E+04  0.00000000000E+00 0. -1.
         -1   -1    0    0    0  501 -0.00000000000E+00 -0.00000000000E+00 -0.80741110727E+03  0.80741110727E+03  0.00000000000E+00 0.  1.
         24    2    1    2    0    0  0.11685331831E+03 -0.79824035019E+03 -0.11364314338E+03  0.81846800512E+03  0.78311919294E+02 0.  0.
        254    2    1    2    0    0 -0.11685331831E+03  0.79824035019E+03  0.72775709851E+03  0.14104681646E+04  0.89941519562E+03 0.  0.
         23    2    4    4    0    0 -0.37812584329E+03  0.66189249738E+03  0.78449001735E+03  0.10976008706E+04  0.90676636350E+02 0.  0.
         23    2    4    4    0    0  0.26127252498E+03  0.13634785281E+03 -0.56732918840E+02  0.31286729394E+03  0.88392591687E+02 0.  0.
          4    1    3    3  502    0  0.32624383278E+02 -0.14861052817E+03 -0.50741362066E+02  0.16038742249E+03  0.00000000000E+00 0. -1.
         -3    1    3    3    0  502  0.84228935031E+02 -0.64962982201E+03 -0.62901781319E+02  0.65808058263E+03  0.00000000000E+00 0.  1.
         11    1    5    5    0    0 -0.92207950294E+02  0.12631773310E+03  0.11704063190E+03  0.19533813071E+03  0.00000000000E+00 0. -1.
        -11    1    5    5    0    0 -0.28591789300E+03  0.53557476428E+03  0.66744938545E+03  0.90226273990E+03  0.00000000000E+00 0.  1.
          3    1    6    6  503    0  0.22012693893E+02  0.40461151555E+02  0.88319541579E+01  0.46900606518E+02  0.00000000000E+00 0. -1.
         -3    1    6    6    0  503  0.23925983109E+03  0.95886701252E+02 -0.65564872998E+02  0.26596668743E+03  0.00000000000E+00 0.  1.
<mgrwt>
<rscale>  0 0.21426667E+04</rscale>
<asrwt>0</asrwt>
<pdfrwt beam="1">  1        2 0.21869616E+00 0.21426667E+04</pdfrwt>
<pdfrwt beam="2">  1       -1 0.12421709E+00 0.21426667E+04</pdfrwt>
<totfact> 0.83674710E+00</totfact>
</mgrwt>
</event>
<event>
12    6  0.1556619E-007  0.1851348E+04  0.7818608E-02  0.8679460E-01
         -1   -1    0    0    0  501 -0.00000000000E+00  0.00000000000E+00  0.48346318654E+03  0.48346318654E+03  0.00000000000E+00 0.  1.
          2   -1    0    0  501    0  0.00000000000E+00 -0.00000000000E+00 -0.17723638379E+04  0.17723638379E+04  0.00000000000E+00 0. -1.
         24    2    1    2    0    0  0.40661881554E+03 -0.16790365169E+03  0.17141364712E+03  0.47888415354E+03  0.80105534699E+02 0.  0.
        254    2    1    2    0    0 -0.40661881554E+03  0.16790365169E+03 -0.14603142984E+04  0.17769428709E+04  0.91185394591E+03 0.  0.
         23    2    4    4    0    0  0.25647173442E+03  0.10824627314E+03 -0.71934813427E+03  0.77674852963E+03  0.91550717105E+02 0.  0.
         23    2    4    4    0    0 -0.66309054997E+03  0.59657378553E+02 -0.74096616417E+03  0.10001943412E+04  0.90054336449E+02 0.  0.
          4    1    3    3  502    0  0.14912750200E+03 -0.61873634335E+02  0.10504053702E+03  0.19261586875E+03  0.00000000000E+00 0. -1.
         -3    1    3    3    0  502  0.25749131355E+03 -0.10603001735E+03  0.66373110101E+02  0.28626828479E+03  0.00000000000E+00 0.  1.
         11    1    5    5    0    0  0.23294712377E+03  0.99280941205E+02 -0.54941957056E+03  0.60496523228E+03  0.00000000000E+00 0.  1.
        -11    1    5    5    0    0  0.23524610654E+02  0.89653319314E+01 -0.16992856371E+03  0.17178329735E+03  0.00000000000E+00 0. -1.
          3    1    6    6  503    0 -0.18987649879E+03  0.41522344248E+02 -0.16843113630E+03  0.25718910852E+03  0.00000000000E+00 0. -1.
         -3    1    6    6    0  503 -0.47321405118E+03  0.18135034305E+02 -0.57253502787E+03  0.74300523271E+03  0.00000000000E+00 0.  1.
<mgrwt>
<rscale>  0 0.18513483E+04</rscale>
<asrwt>0</asrwt>
<pdfrwt beam="1">  1        2 0.27267136E+00 0.18513483E+04</pdfrwt>
<pdfrwt beam="2">  1       -1 0.74378953E-01 0.18513483E+04</pdfrwt>
<totfact> 0.17414294E+01</totfact>
</mgrwt>
</event>
<event>
12    6  0.1556619E-007  0.1562101E+04  0.7818608E-02  0.8844175E-01
         -1   -1    0    0    0  501 -0.00000000000E+00  0.00000000000E+00  0.97828830776E+03  0.97828830776E+03  0.00000000000E+00 0.  1.
          2   -1    0    0  501    0  0.00000000000E+00 -0.00000000000E+00 -0.62357892358E+03  0.62357892358E+03  0.00000000000E+00 0. -1.
         24    2    1    2    0    0  0.10672564990E+03  0.33210228377E+02 -0.40118931789E+03  0.42425166920E+03  0.80890830246E+02 0.  0.
        254    2    1    2    0    0 -0.10672564990E+03 -0.33210228377E+02  0.75589870207E+03  0.11776155621E+04  0.89604814647E+03 0.  0.
         23    2    4    4    0    0 -0.32389170421E+02  0.41821133548E+03  0.28828462439E+03  0.51683424741E+03  0.89776584623E+02 0.  0.
         23    2    4    4    0    0 -0.74336479477E+02 -0.45142156386E+03  0.46761407768E+03  0.66078131473E+03  0.93068145790E+02 0.  0.
          4    1    3    3  502    0  0.31092988338E+02  0.57702765531E+01 -0.25862469416E+03  0.26055095940E+03  0.00000000000E+00 0. -1.
         -3    1    3    3    0  502  0.75632661561E+02  0.27439951824E+02 -0.14256462373E+03  0.16370070981E+03  0.00000000000E+00 0.  1.
         11    1    5    5    0    0 -0.12415992196E+01  0.36442246870E+03  0.22584928609E+03  0.42873439015E+03  0.00000000000E+00 0. -1.
        -11    1    5    5    0    0 -0.31147571202E+02  0.53788866776E+02  0.62435338299E+02  0.88099857260E+02  0.00000000000E+00 0.  1.
          3    1    6    6  503    0 -0.34530698634E+02 -0.38353130167E+03  0.41485933369E+03  0.56603612540E+03  0.00000000000E+00 0. -1.
         -3    1    6    6    0  503 -0.39805780843E+02 -0.67890262185E+02  0.52754743989E+02  0.94745189332E+02  0.00000000000E+00 0.  1.
<mgrwt>
<rscale>  0 0.15621011E+04</rscale>
<asrwt>0</asrwt>
<pdfrwt beam="1">  1        2 0.95935219E-01 0.15621011E+04</pdfrwt>
<pdfrwt beam="2">  1       -1 0.15050589E+00 0.15621011E+04</pdfrwt>
<totfact> 0.17977078E+01</totfact>
</mgrwt>
</event>
<event>
12    6  0.1556619E-007  0.2239916E+04  0.7818608E-02  0.8501995E-01
          2   -1    0    0  501    0  0.00000000000E+00  0.00000000000E+00  0.31534722507E+04  0.31534722507E+04  0.00000000000E+00 0. -1.
         -1   -1    0    0    0  501 -0.00000000000E+00 -0.00000000000E+00 -0.39775406452E+03  0.39775406452E+03  0.00000000000E+00 0.  1.
         24    2    1    2    0    0  0.88795074288E+03  0.29131890515E+03  0.11680703296E+04  0.14981815321E+04  0.82682416070E+02 0.  0.
        254    2    1    2    0    0 -0.88795074288E+03 -0.29131890515E+03  0.15876478565E+04  0.20530447831E+04  0.90611474920E+03 0.  0.
         23    2    4    4    0    0 -0.76454417736E+03 -0.46186713229E+03  0.70592233994E+03  0.11413467938E+04  0.80604631335E+02 0.  0.
         23    2    4    4    0    0 -0.12340656552E+03  0.17054822714E+03  0.88172551656E+03  0.91169798930E+03  0.97146584773E+02 0.  0.
          4    1    3    3  502    0  0.49893190277E+03  0.15699375866E+03  0.71793708720E+03  0.88826445670E+03  0.00000000000E+00 0. -1.
         -3    1    3    3    0  502  0.38901884011E+03  0.13432514649E+03  0.45013324242E+03  0.60991707541E+03  0.00000000000E+00 0.  1.
         11    1    5    5    0    0 -0.36156824421E+03 -0.26285075373E+03  0.36900414028E+03  0.57964313979E+03  0.00000000000E+00 0. -1.
        -11    1    5    5    0    0 -0.40297593315E+03 -0.19901637855E+03  0.33691819966E+03  0.56170365398E+03  0.00000000000E+00 0.  1.
          1    1    6    6  503    0 -0.95171325784E+02  0.14301070484E+03  0.51581154129E+03  0.54366459245E+03  0.00000000000E+00 0. -1.
         -1    1    6    6    0  503 -0.28235239736E+02  0.27537522299E+02  0.36591397527E+03  0.36803339685E+03  0.00000000000E+00 0.  1.
<mgrwt>
<rscale>  0 0.22399164E+04</rscale>
<asrwt>0</asrwt>
<pdfrwt beam="1">  1        2 0.48514956E+00 0.22399164E+04</pdfrwt>
<pdfrwt beam="2">  1       -1 0.61192935E-01 0.22399164E+04</pdfrwt>
<totfact> 0.39094094E+00</totfact>
</mgrwt>
</event>
<event>
12    6  0.1556619E-007  0.1896742E+04  0.7818608E-02  0.8656480E-01
         -1   -1    0    0    0  501 -0.00000000000E+00  0.00000000000E+00  0.42994327409E+03  0.42994327409E+03  0.00000000000E+00 0.  1.
          2   -1    0    0  501    0  0.00000000000E+00 -0.00000000000E+00 -0.20919214606E+04  0.20919214606E+04  0.00000000000E+00 0. -1.
         24    2    1    2    0    0 -0.69190747792E+03  0.19584723307E+03 -0.75768061575E+03  0.10476491184E+04  0.79979141906E+02 0.  0.
        254    2    1    2    0    0  0.69190747792E+03 -0.19584723307E+03 -0.90429757074E+03  0.14742156163E+04  0.91567761251E+03 0.  0.
         23    2    4    4    0    0 -0.10810926422E+02 -0.34657826399E+03 -0.57654233034E+03  0.67911163922E+03  0.92510489403E+02 0.  0.
         23    2    4    4    0    0  0.70271840434E+03  0.15073103092E+03 -0.32775524040E+03  0.79510397704E+03  0.90740493732E+02 0.  0.
          4    1    3    3  502    0 -0.61503067793E+03  0.19399931240E+03 -0.69792796347E+03  0.95026412655E+03  0.00000000000E+00 0. -1.
         -3    1    3    3    0  502 -0.76876799995E+02  0.18479206656E+01 -0.59752652279E+02  0.97384991876E+02  0.00000000000E+00 0.  1.
         11    1    5    5    0    0  0.15389263661E+02 -0.32364417591E+03 -0.51732812463E+03  0.61041852083E+03  0.00000000000E+00 0. -1.
        -11    1    5    5    0    0 -0.26200190083E+02 -0.22934088075E+02 -0.59214205705E+02  0.68693118385E+02  0.00000000000E+00 0.  1.
          2    1    6    6  503    0  0.64777062188E+03  0.11457454918E+03 -0.28685930807E+03  0.71765058943E+03  0.00000000000E+00 0. -1.
         -2    1    6    6    0  503  0.54947782469E+02  0.36156481743E+02 -0.40895932338E+02  0.77453387609E+02  0.00000000000E+00 0.  1.
<mgrwt>
<rscale>  0 0.18967420E+04</rscale>
<asrwt>0</asrwt>
<pdfrwt beam="1">  1        2 0.32183407E+00 0.18967420E+04</pdfrwt>
<pdfrwt beam="2">  1       -1 0.66145120E-01 0.18967420E+04</pdfrwt>
<totfact> 0.14670482E+01</totfact>
</mgrwt>
</event>
<event>
12    6  0.1556619E-007  0.1752618E+04  0.7818608E-02  0.8731911E-01
         -1   -1    0    0    0  501 -0.00000000000E+00  0.00000000000E+00  0.39052697438E+03  0.39052697438E+03  0.00000000000E+00 0.  1.
          2   -1    0    0  501    0  0.00000000000E+00 -0.00000000000E+00 -0.19663618187E+04  0.19663618187E+04  0.00000000000E+00 0. -1.
         24    2    1    2    0    0  0.36683954943E+03 -0.16089785382E+03 -0.12542599640E+04  0.13190757542E+04  0.79582747252E+02 0.  0.
        254    2    1    2    0    0 -0.36683954943E+03  0.16089785382E+03 -0.32157488030E+03  0.10378130388E+04  0.90176833254E+03 0.  0.
         23    2    4    4    0    0  0.21808806579E+03 -0.17521697972E+03 -0.25440177471E+02  0.29545172555E+03  0.91548484843E+02 0.  0.
         23    2    4    4    0    0 -0.58492761522E+03  0.33611483355E+03 -0.29613470283E+03  0.74236131329E+03  0.91055262762E+02 0.  0.
          2    1    3    3  502    0  0.34707932407E+03 -0.16719509157E+03 -0.11512734855E+04  0.12140217849E+04  0.00000000000E+00 0. -1.
         -1    1    3    3    0  502  0.19760225353E+02  0.62972377475E+01 -0.10298647855E+03  0.10505396934E+03  0.00000000000E+00 0.  1.
         11    1    5    5    0    0  0.98009375100E+02 -0.80422031505E+02 -0.57387345234E+02  0.13916482369E+03  0.00000000000E+00 0. -1.
        -11    1    5    5    0    0  0.12007869069E+03 -0.94794948217E+02  0.31947167764E+02  0.15628690186E+03  0.00000000000E+00 0.  1.
          3    1    6    6  503    0 -0.13363340183E+03  0.99210432458E+02 -0.36680909561E+02  0.17042912051E+03  0.00000000000E+00 0. -1.
         -3    1    6    6    0  503 -0.45129421339E+03  0.23690440109E+03 -0.25945379327E+03  0.57193219278E+03  0.00000000000E+00 0.  1.
<mgrwt>
<rscale>  0 0.17526178E+04</rscale>
<asrwt>0</asrwt>
<pdfrwt beam="1">  1        2 0.30251721E+00 0.17526178E+04</pdfrwt>
<pdfrwt beam="2">  1       -1 0.60081072E-01 0.17526178E+04</pdfrwt>
<totfact> 0.21147461E+01</totfact>
</mgrwt>
</event>
<event>
12    6  0.1556619E-007  0.1877189E+04  0.7818608E-02  0.8666295E-01
          2   -1    0    0  501    0  0.00000000000E+00  0.00000000000E+00  0.18516207982E+04  0.18516207982E+04  0.00000000000E+00 0. -1.
         -1   -1    0    0    0  501 -0.00000000000E+00 -0.00000000000E+00 -0.47577741156E+03  0.47577741156E+03  0.00000000000E+00 0.  1.
         24    2    1    2    0    0 -0.19646189245E+03 -0.59220792145E+03  0.97530929981E+03  0.11604841695E+04  0.78662443347E+02 0.  0.
        254    2    1    2    0    0  0.19646189245E+03  0.59220792145E+03  0.40053408686E+03  0.11669140403E+04  0.90108452724E+03 0.  0.
         23    2    4    4    0    0 -0.10546908576E+03  0.99681711090E+02  0.53959852452E+03  0.56583903417E+03  0.89146359194E+02 0.  0.
         23    2    4    4    0    0  0.30193097821E+03  0.49252621036E+03 -0.13906443765E+03  0.60107500609E+03  0.90597249608E+02 0.  0.
          2    1    3    3  502    0 -0.12959383187E+03 -0.48896906287E+03  0.78905629112E+03  0.93728071369E+03  0.00000000000E+00 0. -1.
         -1    1    3    3    0  502 -0.66868060582E+02 -0.10323885858E+03  0.18625300869E+03  0.22320345583E+03  0.00000000000E+00 0.  1.
         11    1    5    5    0    0  0.13202741581E+02  0.98328342266E-01  0.73297647273E+02  0.74477292845E+02  0.00000000000E+00 0.  1.
        -11    1    5    5    0    0 -0.11867182734E+03  0.99583382748E+02  0.46630087724E+03  0.49136174133E+03  0.00000000000E+00 0. -1.
          1    1    6    6  503    0  0.21852217091E+03  0.27383110450E+03 -0.93820011577E+02  0.36268113756E+03  0.00000000000E+00 0. -1.
         -1    1    6    6    0  503  0.83408807301E+02  0.21869510586E+03 -0.45244426075E+02  0.23839386854E+03  0.00000000000E+00 0.  1.
<mgrwt>
<rscale>  0 0.18771887E+04</rscale>
<asrwt>0</asrwt>
<pdfrwt beam="1">  1        2 0.28486473E+00 0.18771887E+04</pdfrwt>
<pdfrwt beam="2">  1       -1 0.73196526E-01 0.18771887E+04</pdfrwt>
<totfact> 0.16236177E+01</totfact>
</mgrwt>
</event>
<event>
12    6  0.1556619E-007  0.1300416E+04  0.7818608E-02  0.9029235E-01
          2   -1    0    0  501    0  0.00000000000E+00  0.00000000000E+00  0.32565241595E+04  0.32565241595E+04  0.00000000000E+00 0. -1.
         -1   -1    0    0    0  501 -0.00000000000E+00 -0.00000000000E+00 -0.12982269249E+03  0.12982269249E+03  0.00000000000E+00 0.  1.
         24    2    1    2    0    0  0.27719456666E+03 -0.17089405731E+03  0.18933493995E+04  0.19227633566E+04  0.78774173858E+02 0.  0.
        254    2    1    2    0    0 -0.27719456666E+03  0.17089405731E+03  0.12333520676E+04  0.14635834954E+04  0.71754980232E+03 0.  0.
         23    2    4    4    0    0  0.21161256538E+03  0.12714028602E+03  0.26243423307E+03  0.37202876973E+03  0.92677660018E+02 0.  0.
         23    2    4    4    0    0 -0.48880713204E+03  0.43753771289E+02  0.97091783449E+03  0.10915547257E+04  0.89238293005E+02 0.  0.
          4    1    3    3  502    0  0.22337790250E+03 -0.14285650467E+03  0.13313348718E+04  0.13574823052E+04  0.00000000000E+00 0. -1.
         -3    1    3    3    0  502  0.53816664166E+02 -0.28037552637E+02  0.56201452770E+03  0.56528105138E+03  0.00000000000E+00 0.  1.
         11    1    5    5    0    0  0.52409822258E+02  0.75336438994E+02  0.12699661081E+03  0.15668601618E+03  0.00000000000E+00 0.  1.
        -11    1    5    5    0    0  0.15920274312E+03  0.51803847024E+02  0.13543762226E+03  0.21534275355E+03  0.00000000000E+00 0. -1.
          1    1    6    6  503    0 -0.40884358765E+03  0.19760650006E+02  0.73484216852E+03  0.84115193341E+03  0.00000000000E+00 0. -1.
         -1    1    6    6    0  503 -0.79963544394E+02  0.23993121283E+02  0.23607566597E+03  0.25040279224E+03  0.00000000000E+00 0.  1.
<mgrwt>
<rscale>  0 0.13004164E+04</rscale>
<asrwt>0</asrwt>
<pdfrwt beam="1">  1        2 0.50100365E+00 0.13004164E+04</pdfrwt>
<pdfrwt beam="2">  1       -1 0.19972724E-01 0.13004164E+04</pdfrwt>
<totfact> 0.27681280E+01</totfact>
</mgrwt>
</event>
<event>
12    6  0.1556619E-007  0.1709208E+04  0.7818608E-02  0.8756130E-01
          2   -1    0    0  501    0  0.00000000000E+00  0.00000000000E+00  0.14355918877E+04  0.14355918877E+04  0.00000000000E+00 0. -1.
         -1   -1    0    0    0  501 -0.00000000000E+00 -0.00000000000E+00 -0.50874370322E+03  0.50874370322E+03  0.00000000000E+00 0.  1.
         24    2    1    2    0    0  0.41199500789E+03  0.49973247410E+00  0.84218329371E+03  0.94162561294E+03  0.87441171527E+02 0.  0.
        254    2    1    2    0    0 -0.41199500789E+03 -0.49973247410E+00  0.84664890739E+02  0.10027099780E+04  0.91023020161E+03 0.  0.
         23    2    4    4    0    0  0.24135534894E+03 -0.17630370320E+03 -0.20066933466E+02  0.31167781116E+03  0.86052169792E+02 0.  0.
         23    2    4    4    0    0 -0.65335035683E+03  0.17580397072E+03  0.10473182420E+03  0.69103216680E+03  0.93717531246E+02 0.  0.
          2    1    3    3  502    0  0.11452335788E+03  0.27275699185E+02  0.30604138697E+03  0.32790378742E+03  0.00000000000E+00 0. -1.
         -3    1    3    3    0  502  0.29747165001E+03 -0.26775966711E+02  0.53614190674E+03  0.61372182552E+03  0.00000000000E+00 0.  1.
         11    1    5    5    0    0  0.24325243279E+02  0.86575490190E+01 -0.17671306284E-01  0.25819971492E+02  0.00000000000E+00 0. -1.
        -11    1    5    5    0    0  0.21703010566E+03 -0.18496125222E+03 -0.20049262159E+02  0.28585783966E+03  0.00000000000E+00 0.  1.
          4    1    6    6  503    0 -0.16415485417E+03  0.29883226581E+02  0.64742885903E+02  0.17897336297E+03  0.00000000000E+00 0. -1.
         -4    1    6    6    0  503 -0.48919550266E+03  0.14592074414E+03  0.39988938301E+02  0.51205880383E+03  0.00000000000E+00 0.  1.
<mgrwt>
<rscale>  0 0.17092084E+04</rscale>
<asrwt>0</asrwt>
<pdfrwt beam="1">  1        2 0.22086029E+00 0.17092084E+04</pdfrwt>
<pdfrwt beam="2">  1       -1 0.78268263E-01 0.17092084E+04</pdfrwt>
<totfact> 0.24453818E+01</totfact>
</mgrwt>
</event>
<event>
12    6  0.1556619E-007  0.1182957E+04  0.7818608E-02  0.9127906E-01
          2   -1    0    0  501    0  0.00000000000E+00  0.00000000000E+00  0.12227799292E+04  0.12227799292E+04  0.00000000000E+00 0. -1.
         -1   -1    0    0    0  501 -0.00000000000E+00 -0.00000000000E+00 -0.28610783725E+03  0.28610783725E+03  0.00000000000E+00 0.  1.
         24    2    1    2    0    0  0.10350988515E+03  0.13740499638E+03  0.41902075111E+03  0.45994934727E+03  0.79878550538E+02 0.  0.
        254    2    1    2    0    0 -0.10350988515E+03 -0.13740499638E+03  0.51765134088E+03  0.10489384192E+04  0.89594333931E+03 0.  0.
         23    2    4    4    0    0 -0.31933491969E+01 -0.39345799149E+03 -0.54862187434E+02  0.40751414201E+03  0.90766336175E+02 0.  0.
         23    2    4    4    0    0 -0.10031653595E+03  0.25605299510E+03  0.57251352832E+03  0.64142427722E+03  0.89592519866E+02 0.  0.
          2    1    3    3  502    0  0.11017300140E+03  0.13619558334E+03  0.41783932269E+03  0.45307507849E+03  0.00000000000E+00 0. -1.
         -1    1    3    3    0  502 -0.66631162526E+01  0.12094130443E+01  0.11814284141E+01  0.68742687760E+01  0.00000000000E+00 0.  1.
         11    1    5    5    0    0  0.26313232050E+02 -0.34199012175E+02 -0.20686302348E+01  0.43199975066E+02  0.00000000000E+00 0.  1.
        -11    1    5    5    0    0 -0.29506581246E+02 -0.35925897931E+03 -0.52793557200E+02  0.36431416694E+03  0.00000000000E+00 0. -1.
          3    1    6    6  503    0 -0.77628894881E+02  0.23779216294E+03  0.55129618118E+03  0.60539147455E+03  0.00000000000E+00 0. -1.
         -3    1    6    6    0  503 -0.22687641074E+02  0.18260832159E+02  0.21217347139E+02  0.36032802670E+02  0.00000000000E+00 0.  1.
<mgrwt>
<rscale>  0 0.11829572E+04</rscale>
<asrwt>0</asrwt>
<pdfrwt beam="1">  1        2 0.18811999E+00 0.11829572E+04</pdfrwt>
<pdfrwt beam="2">  1       -1 0.44016591E-01 0.11829572E+04</pdfrwt>
<totfact> 0.10544293E+02</totfact>
</mgrwt>
</event>
<event>
12    6  0.1556619E-007  0.1154479E+04  0.7818608E-02  0.9153661E-01
         -1   -1    0    0    0  501 -0.00000000000E+00  0.00000000000E+00  0.24065804735E+03  0.24065804735E+03  0.00000000000E+00 0.  1.
          2   -1    0    0  501    0  0.00000000000E+00 -0.00000000000E+00 -0.13845596635E+04  0.13845596635E+04  0.00000000000E+00 0. -1.
         24    2    1    2    0    0 -0.55338012802E+02 -0.91733818626E+02  0.36459292339E+02  0.13891413646E+03  0.80563441897E+02 0.  0.
        254    2    1    2    0    0  0.55338012802E+02  0.91733818626E+02 -0.11803609085E+04  0.14863035744E+04  0.89686623964E+03 0.  0.
         23    2    4    4    0    0 -0.24049160738E+03 -0.17481014921E+03 -0.98499955807E+03  0.10330812976E+04  0.92941037969E+02 0.  0.
         23    2    4    4    0    0  0.29582962019E+03  0.26654396784E+03 -0.19536135042E+03  0.45322227680E+03  0.93185427923E+02 0.  0.
          2    1    3    3  502    0 -0.29882226506E+02 -0.19115464608E+01 -0.13705015979E+02  0.32930668590E+02  0.00000000000E+00 0. -1.
         -1    1    3    3    0  502 -0.25455786297E+02 -0.89822272166E+02  0.50164308318E+02  0.10598346787E+03  0.00000000000E+00 0.  1.
         11    1    5    5    0    0 -0.23603444468E+03 -0.16011742630E+03 -0.83646661556E+03  0.88375689430E+03  0.00000000000E+00 0. -1.
        -11    1    5    5    0    0 -0.44571627054E+01 -0.14692722908E+02 -0.14853294252E+03  0.14932440329E+03  0.00000000000E+00 0.  1.
          1    1    6    6  503    0  0.19836711473E+03  0.14252618866E+03 -0.15869209484E+03  0.29128406689E+03  0.00000000000E+00 0. -1.
         -1    1    6    6    0  503  0.97462505459E+02  0.12401777918E+03 -0.36669255576E+02  0.16193820991E+03  0.00000000000E+00 0.  1.
<mgrwt>
<rscale>  0 0.11544790E+04</rscale>
<asrwt>0</asrwt>
<pdfrwt beam="1">  1        2 0.21300918E+00 0.11544790E+04</pdfrwt>
<pdfrwt beam="2">  1       -1 0.37024315E-01 0.11544790E+04</pdfrwt>
<totfact> 0.11669993E+02</totfact>
</mgrwt>
</event>
<event>
12    6  0.1556619E-007  0.1931356E+04  0.7818608E-02  0.8639404E-01
         -1   -1    0    0    0  501 -0.00000000000E+00  0.00000000000E+00  0.33267261053E+03  0.33267261053E+03  0.00000000000E+00 0.  1.
          2   -1    0    0  501    0  0.00000000000E+00 -0.00000000000E+00 -0.28031590841E+04  0.28031590841E+04  0.00000000000E+00 0. -1.
         24    2    1    2    0    0 -0.33327160840E+03  0.58094403120E+03 -0.15305846467E+04  0.16725895996E+04  0.79376794982E+02 0.  0.
        254    2    1    2    0    0  0.33327160840E+03 -0.58094403120E+03 -0.93990182692E+03  0.14632420951E+04  0.89949766661E+03 0.  0.
         23    2    4    4    0    0  0.23537225332E+03  0.20230393789E+03 -0.33368916330E+03  0.46407964806E+03  0.87718191501E+02 0.  0.
         23    2    4    4    0    0  0.97899355084E+02 -0.78324796909E+03 -0.60621266362E+03  0.99916244703E+03  0.88148381838E+02 0.  0.
          4    1    3    3  502    0 -0.25704342867E+03  0.50543161340E+03 -0.12762609290E+04  0.13965580542E+04  0.00000000000E+00 0. -1.
         -3    1    3    3    0  502 -0.76228179735E+02  0.75512417802E+02 -0.25432371770E+03  0.27603154532E+03  0.00000000000E+00 0.  1.
         11    1    5    5    0    0  0.20951616394E+02  0.48380249513E+01 -0.67918067010E+00  0.21513670104E+02  0.00000000000E+00 0. -1.
        -11    1    5    5    0    0  0.21442063693E+03  0.19746591294E+03 -0.33300998263E+03  0.44256597796E+03  0.00000000000E+00 0.  1.
          2    1    6    6  503    0 -0.10914514535E+02 -0.16324634635E+02 -0.15675536584E+02  0.25126535191E+02  0.00000000000E+00 0. -1.
         -2    1    6    6    0  503  0.10881386962E+03 -0.76692333445E+03 -0.59053712704E+03  0.97403591184E+03  0.00000000000E+00 0.  1.
<mgrwt>
<rscale>  0 0.19313563E+04</rscale>
<asrwt>0</asrwt>
<pdfrwt beam="1">  1        2 0.43125525E+00 0.19313563E+04</pdfrwt>
<pdfrwt beam="2">  1       -1 0.51180400E-01 0.19313563E+04</pdfrwt>
<totfact> 0.94161974E+00</totfact>
</mgrwt>
</event>
<event>
12    6  0.1556619E-007  0.2846070E+04  0.7818608E-02  0.8289106E-01
          2   -1    0    0  501    0  0.00000000000E+00  0.00000000000E+00  0.89430329440E+03  0.89430329440E+03  0.00000000000E+00 0. -1.
         -1   -1    0    0    0  501 -0.00000000000E+00 -0.00000000000E+00 -0.22643649260E+04  0.22643649260E+04  0.00000000000E+00 0.  1.
         24    2    1    2    0    0  0.74991270384E+03  0.96036567010E+03 -0.10543926300E+04  0.16135089798E+04  0.83642847653E+02 0.  0.
        254    2    1    2    0    0 -0.74991270384E+03 -0.96036567010E+03 -0.31566900166E+03  0.15451592407E+04  0.89621363339E+03 0.  0.
         23    2    4    4    0    0  0.14318691511E+03 -0.25694991904E+03  0.11106562998E+03  0.32750198554E+03  0.91630905361E+02 0.  0.
         23    2    4    4    0    0 -0.89309961896E+03 -0.70341575106E+03 -0.42673463164E+03  0.12176572551E+04  0.90366458784E+02 0.  0.
          2    1    3    3  502    0  0.35651052965E+02  0.26315670748E+02 -0.25898821572E+02  0.51325052978E+02  0.00000000000E+00 0. -1.
         -1    1    3    3    0  502  0.71426165088E+03  0.93404999935E+03 -0.10284938084E+04  0.15621839268E+04  0.00000000000E+00 0.  1.
         11    1    5    5    0    0  0.14854798615E+03 -0.19401813333E+03  0.96247024426E+02  0.26262716912E+03  0.00000000000E+00 0.  1.
        -11    1    5    5    0    0 -0.53610710365E+01 -0.62931785705E+02  0.14818605554E+02  0.64874816418E+02  0.00000000000E+00 0. -1.
          4    1    6    6  503    0 -0.33776656063E+03 -0.32172156024E+03 -0.16634193724E+03  0.49523797500E+03  0.00000000000E+00 0.  1.
         -4    1    6    6    0  503 -0.55533305833E+03 -0.38169419082E+03 -0.26039269440E+03  0.72241928011E+03  0.00000000000E+00 0. -1.
<mgrwt>
<rscale>  0 0.28460703E+04</rscale>
<asrwt>0</asrwt>
<pdfrwt beam="1">  1        2 0.13758512E+00 0.28460703E+04</pdfrwt>
<pdfrwt beam="2">  1       -1 0.34836383E+00 0.28460703E+04</pdfrwt>
<totfact> 0.46566415E-01</totfact>
</mgrwt>
</event>
<event>
12    6  0.1556619E-007  0.1497182E+04  0.7818608E-02  0.8886329E-01
          2   -1    0    0  501    0  0.00000000000E+00  0.00000000000E+00  0.20111328259E+04  0.20111328259E+04  0.00000000000E+00 0. -1.
         -1   -1    0    0    0  501 -0.00000000000E+00 -0.00000000000E+00 -0.27864337944E+03  0.27864337944E+03  0.00000000000E+00 0.  1.
         24    2    1    2    0    0  0.30646161438E+03  0.26802940369E+03  0.19547876467E+03  0.45880944225E+03  0.80843518769E+02 0.  0.
        254    2    1    2    0    0 -0.30646161438E+03 -0.26802940369E+03  0.15370106818E+04  0.18309667631E+04  0.90789810511E+03 0.  0.
         23    2    4    4    0    0 -0.44816523255E+03 -0.10447535257E+03  0.15244883564E+04  0.15954320606E+04  0.97834228394E+02 0.  0.
         23    2    4    4    0    0  0.14170361816E+03 -0.16355405113E+03  0.12522325359E+02  0.23553470246E+03  0.92140894219E+02 0.  0.
          4    1    3    3  502    0  0.15943433401E+02  0.14084854217E+02 -0.78234366581E+01  0.22666767482E+02  0.00000000000E+00 0. -1.
         -3    1    3    3    0  502  0.29051818098E+03  0.25394454948E+03  0.20330220133E+03  0.43614267477E+03  0.00000000000E+00 0.  1.
         11    1    5    5    0    0 -0.14692983278E+03 -0.29661594691E+02  0.35265326650E+03  0.38318730711E+03  0.00000000000E+00 0. -1.
        -11    1    5    5    0    0 -0.30123539976E+03 -0.74813757874E+02  0.11718350899E+04  0.12122447535E+04  0.00000000000E+00 0.  1.
          1    1    6    6  503    0  0.55257132895E+02 -0.16844588601E+02  0.28662499129E+02  0.64487438755E+02  0.00000000000E+00 0. -1.
         -1    1    6    6    0  503  0.86446485270E+02 -0.14670946253E+03 -0.16140173770E+02  0.17104726370E+03  0.00000000000E+00 0.  1.
<mgrwt>
<rscale>  0 0.14971825E+04</rscale>
<asrwt>0</asrwt>
<pdfrwt beam="1">  1        2 0.30940504E+00 0.14971825E+04</pdfrwt>
<pdfrwt beam="2">  1       -1 0.42868213E-01 0.14971825E+04</pdfrwt>
<totfact> 0.38884068E+01</totfact>
</mgrwt>
</event>
<event>
12    6  0.1556619E-007  0.1356144E+04  0.7818608E-02  0.8986190E-01
         -1   -1    0    0    0  501 -0.00000000000E+00  0.00000000000E+00  0.22578556179E+03  0.22578556179E+03  0.00000000000E+00 0.  1.
          2   -1    0    0  501    0  0.00000000000E+00 -0.00000000000E+00 -0.20363631125E+04  0.20363631125E+04  0.00000000000E+00 0. -1.
         24    2    1    2    0    0 -0.33444061364E+02 -0.23430544729E+03 -0.90331966477E+03  0.93710407547E+03  0.78486200225E+02 0.  0.
        254    2    1    2    0    0  0.33444061364E+02  0.23430544729E+03 -0.90725788598E+03  0.13250445989E+04  0.93627387523E+03 0.  0.
         23    2    4    4    0    0 -0.25056234574E+03  0.83145232401E+01  0.72223997965E+02  0.27638389208E+03  0.91220225383E+02 0.  0.
         23    2    4    4    0    0  0.28400640711E+03  0.22599092405E+03 -0.97948188395E+03  0.10486607068E+04  0.92590388003E+02 0.  0.
          4    1    3    3  502    0 -0.45958669332E+02 -0.19287316702E+03 -0.81470393062E+03  0.83848360295E+03  0.00000000000E+00 0. -1.
         -1    1    3    3    0  502  0.12514607969E+02 -0.41432280273E+02 -0.88615734152E+02  0.98620472522E+02  0.00000000000E+00 0.  1.
         11    1    5    5    0    0 -0.15485549635E+03  0.49177948317E+02  0.49707472666E+02  0.16991035339E+03  0.00000000000E+00 0. -1.
        -11    1    5    5    0    0 -0.95706849392E+02 -0.40863425077E+02  0.22516525299E+02  0.10647353869E+03  0.00000000000E+00 0.  1.
          3    1    6    6  503    0  0.16713155629E+03  0.73924464923E+02 -0.47123813028E+03  0.50543363467E+03  0.00000000000E+00 0. -1.
         -3    1    6    6    0  503  0.11687485082E+03  0.15206645913E+03 -0.50824375367E+03  0.54322707212E+03  0.00000000000E+00 0.  1.
<mgrwt>
<rscale>  0 0.13561436E+04</rscale>
<asrwt>0</asrwt>
<pdfrwt beam="1">  1        2 0.31328664E+00 0.13561436E+04</pdfrwt>
<pdfrwt beam="2">  1       -1 0.34736240E-01 0.13561436E+04</pdfrwt>
<totfact> 0.55834475E+01</totfact>
</mgrwt>
</event>
<event>
12    6  0.1556619E-007  0.1825483E+04  0.7818608E-02  0.8692864E-01
          2   -1    0    0  501    0  0.00000000000E+00  0.00000000000E+00  0.13661821786E+04  0.13661821786E+04  0.00000000000E+00 0. -1.
         -1   -1    0    0    0  501 -0.00000000000E+00 -0.00000000000E+00 -0.60979969214E+03  0.60979969214E+03  0.00000000000E+00 0.  1.
         24    2    1    2    0    0 -0.39177159130E+03 -0.28226814536E+03 -0.22960865205E+03  0.54057590944E+03  0.79636016612E+02 0.  0.
        254    2    1    2    0    0  0.39177159130E+03  0.28226814536E+03  0.98599113848E+03  0.14354059613E+04  0.92468992797E+03 0.  0.
         23    2    4    4    0    0 -0.25242922492E+03  0.23476605637E+03  0.53377555278E+03  0.64183525827E+03  0.90556850629E+02 0.  0.
         23    2    4    4    0    0  0.64420081622E+03  0.47502088988E+02  0.45221558570E+03  0.79357070301E+03  0.89467226705E+02 0.  0.
          4    1    3    3  502    0 -0.15164800707E+02  0.19255235129E+01  0.12149712639E+01  0.15334763658E+02  0.00000000000E+00 0. -1.
         -3    1    3    3    0  502 -0.37660679059E+03 -0.28419366887E+03 -0.23082362331E+03  0.52524114578E+03  0.00000000000E+00 0.  1.
         11    1    5    5    0    0 -0.17169648841E+03  0.20195369017E+03  0.44111308406E+03  0.51463164500E+03  0.00000000000E+00 0. -1.
        -11    1    5    5    0    0 -0.80732736510E+02  0.32812366201E+02  0.92662468724E+02  0.12720361327E+03  0.00000000000E+00 0.  1.
          3    1    6    6  503    0  0.57027236002E+03  0.12739509348E+02  0.39685224397E+03  0.69488456829E+03  0.00000000000E+00 0. -1.
         -3    1    6    6    0  503  0.73928456196E+02  0.34762579641E+02  0.55363341726E+02  0.98686134720E+02  0.00000000000E+00 0.  1.
<mgrwt>
<rscale>  0 0.18254835E+04</rscale>
<asrwt>0</asrwt>
<pdfrwt beam="1">  1        2 0.21018187E+00 0.18254835E+04</pdfrwt>
<pdfrwt beam="2">  1       -1 0.93815338E-01 0.18254835E+04</pdfrwt>
<totfact> 0.17898225E+01</totfact>
</mgrwt>
</event>
<event>
12    6  0.1556619E-007  0.1282939E+04  0.7818608E-02  0.9043205E-01
          2   -1    0    0  501    0  0.00000000000E+00  0.00000000000E+00  0.35801703002E+04  0.35801703002E+04  0.00000000000E+00 0. -1.
         -1   -1    0    0    0  501 -0.00000000000E+00 -0.00000000000E+00 -0.11493403759E+03  0.11493403759E+03  0.00000000000E+00 0.  1.
         24    2    1    2    0    0 -0.21552447515E+03  0.13245710978E+03  0.14132842001E+04  0.14379525553E+04  0.79621829002E+02 0.  0.
        254    2    1    2    0    0  0.21552447515E+03 -0.13245710978E+03  0.20519520625E+04  0.22571517825E+04  0.90566617311E+03 0.  0.
         23    2    4    4    0    0  0.19169822076E+03  0.36543193134E+03  0.11068091383E+04  0.11847050411E+04  0.90613803399E+02 0.  0.
         23    2    4    4    0    0  0.23826254387E+02 -0.49788904112E+03  0.94514292417E+03  0.10724467414E+04  0.91573349931E+02 0.  0.
          2    1    3    3  502    0 -0.11930848128E+03  0.39517440536E+02  0.83441228704E+03  0.84382463022E+03  0.00000000000E+00 0. -1.
         -1    1    3    3    0  502 -0.96215993875E+02  0.92939669243E+02  0.57887191307E+03  0.59412792506E+03  0.00000000000E+00 0.  1.
         11    1    5    5    0    0  0.14771387249E+03  0.33554996980E+03  0.91658594694E+03  0.98718942887E+03  0.00000000000E+00 0.  1.
        -11    1    5    5    0    0  0.43984348275E+02  0.29881961542E+02  0.19022319140E+03  0.19751561220E+03  0.00000000000E+00 0. -1.
          3    1    6    6  503    0  0.58823070501E+01 -0.64242619904E+01  0.22352806764E+01  0.89927280652E+01  0.00000000000E+00 0. -1.
         -3    1    6    6    0  503  0.17943947337E+02 -0.49146477913E+03  0.94290764350E+03  0.10634540134E+04  0.00000000000E+00 0.  1.
<mgrwt>
<rscale>  0 0.12829395E+04</rscale>
<asrwt>0</asrwt>
<pdfrwt beam="1">  1        2 0.55079535E+00 0.12829395E+04</pdfrwt>
<pdfrwt beam="2">  1       -1 0.17682162E-01 0.12829395E+04</pdfrwt>
<totfact> 0.20498010E+01</totfact>
</mgrwt>
</event>
<event>
12    6  0.1556619E-007  0.2912475E+04  0.7818608E-02  0.8269176E-01
         -1   -1    0    0    0  501 -0.00000000000E+00  0.00000000000E+00  0.70750175637E+03  0.70750175637E+03  0.00000000000E+00 0.  1.
          2   -1    0    0  501    0  0.00000000000E+00 -0.00000000000E+00 -0.29973456495E+04  0.29973456495E+04  0.00000000000E+00 0. -1.
         24    2    1    2    0    0  0.99262696678E+03  0.24750901074E+03  0.13034709505E+02  0.10261887582E+04  0.79526462505E+02 0.  0.
        254    2    1    2    0    0 -0.99262696678E+03 -0.24750901074E+03 -0.23028786026E+04  0.26786586477E+04  0.90851157765E+03 0.  0.
         23    2    4    4    0    0 -0.95212747961E+02 -0.81331719329E+02 -0.13408293511E+04  0.13495052607E+04  0.87525903730E+02 0.  0.
         23    2    4    4    0    0 -0.89741421882E+03 -0.16617729141E+03 -0.96204925155E+03  0.13291533870E+04  0.90237417604E+02 0.  0.
          2    1    3    3  502    0  0.75444861009E+03  0.19290514877E+03  0.43530118294E+02  0.77993587742E+03  0.00000000000E+00 0. -1.
         -1    1    3    3    0  502  0.23817835669E+03  0.54603861967E+02 -0.30495408789E+02  0.24625288078E+03  0.00000000000E+00 0.  1.
         11    1    5    5    0    0 -0.69515386535E+02 -0.62471994208E+02 -0.53903635410E+03  0.54707890662E+03  0.00000000000E+00 0.  1.
        -11    1    5    5    0    0 -0.25697361426E+02 -0.18859725121E+02 -0.80179299700E+03  0.80242635404E+03  0.00000000000E+00 0. -1.
          1    1    6    6  503    0 -0.11076395559E+03 -0.42290153777E+02 -0.15746419018E+03  0.19710931524E+03  0.00000000000E+00 0. -1.
         -1    1    6    6    0  503 -0.78665026323E+03 -0.12388713764E+03 -0.80458506137E+03  0.11320440718E+04  0.00000000000E+00 0.  1.
<mgrwt>
<rscale>  0 0.29124748E+04</rscale>
<asrwt>0</asrwt>
<pdfrwt beam="1">  1        2 0.46113011E+00 0.29124748E+04</pdfrwt>
<pdfrwt beam="2">  1       -1 0.10884642E+00 0.29124748E+04</pdfrwt>
<totfact> 0.13391396E+00</totfact>
</mgrwt>
</event>
<event>
12    6  0.1556619E-007  0.2072061E+04  0.7818608E-02  0.8573652E-01
         -1   -1    0    0    0  501 -0.00000000000E+00  0.00000000000E+00  0.55092599123E+03  0.55092599123E+03  0.00000000000E+00 0.  1.
          2   -1    0    0  501    0  0.00000000000E+00 -0.00000000000E+00 -0.19482816625E+04  0.19482816625E+04  0.00000000000E+00 0. -1.
         24    2    1    2    0    0 -0.56422295453E+03 -0.55280245031E+03 -0.55986079278E+03  0.97146822327E+03  0.79801692002E+02 0.  0.
        254    2    1    2    0    0  0.56422295453E+03  0.55280245031E+03 -0.83749487848E+03  0.15277394305E+04  0.10043166853E+04 0.  0.
         23    2    4    4    0    0 -0.15851502800E+02  0.39809131384E+03  0.90954082879E+02  0.41836539463E+03  0.89604653537E+02 0.  0.
         23    2    4    4    0    0  0.58007445733E+03  0.15471113647E+03 -0.92844896136E+03  0.11093740358E+04  0.90947049006E+02 0.  0.
          4    1    3    3  502    0 -0.30537275461E+03 -0.33093718117E+03 -0.35797066038E+03  0.57525205852E+03  0.00000000000E+00 0. -1.
         -3    1    3    3    0  502 -0.25885019992E+03 -0.22186526914E+03 -0.20189013240E+03  0.39621616475E+03  0.00000000000E+00 0.  1.
         11    1    5    5    0    0 -0.57672319070E+01  0.39402864769E+03  0.78464097315E+02  0.40180648418E+03  0.00000000000E+00 0.  1.
        -11    1    5    5    0    0 -0.10084270893E+02  0.40626661457E+01  0.12489985564E+02  0.16558910442E+02  0.00000000000E+00 0. -1.
          2    1    6    6  503    0  0.45798909077E+02  0.38086653910E+02 -0.75397232283E+02  0.96087855188E+02  0.00000000000E+00 0. -1.
         -2    1    6    6    0  503  0.53427554825E+03  0.11662448256E+03 -0.85305172908E+03  0.10132861806E+04  0.00000000000E+00 0.  1.
<mgrwt>
<rscale>  0 0.20720608E+04</rscale>
<asrwt>0</asrwt>
<pdfrwt beam="1">  1        2 0.29973564E+00 0.20720608E+04</pdfrwt>
<pdfrwt beam="2">  1       -1 0.84757844E-01 0.20720608E+04</pdfrwt>
<totfact> 0.10340842E+01</totfact>
</mgrwt>
</event>
<event>
12    6  0.1556619E-007  0.2672085E+04  0.7818608E-02  0.8344119E-01
          2   -1    0    0  501    0  0.00000000000E+00  0.00000000000E+00  0.72787795133E+03  0.72787795133E+03  0.00000000000E+00 0. -1.
         -1   -1    0    0    0  501 -0.00000000000E+00 -0.00000000000E+00 -0.24523482499E+04  0.24523482499E+04  0.00000000000E+00 0.  1.
         24    2    1    2    0    0  0.93087824341E+03 -0.11299367466E+03 -0.16171217205E+04  0.18719854680E+04  0.99724915223E+02 0.  0.
        254    2    1    2    0    0 -0.93087824341E+03  0.11299367466E+03 -0.10734857806E+03  0.13082407333E+04  0.90590740387E+03 0.  0.
         23    2    4    4    0    0 -0.12477681983E+03  0.12465970433E+03 -0.39975222736E+03  0.44590434474E+03  0.88991823901E+02 0.  0.
         23    2    4    4    0    0 -0.80610142358E+03 -0.11666029668E+02  0.29240364930E+03  0.86233638853E+03  0.90490615597E+02 0.  0.
          4    1    3    3  502    0  0.29807947521E+03 -0.56948858663E+02 -0.44223228777E+03  0.53634312002E+03  0.00000000000E+00 0. -1.
         -3    1    3    3    0  502  0.63279876821E+03 -0.56044816002E+02 -0.11748894327E+04  0.13356423479E+04  0.00000000000E+00 0.  1.
         11    1    5    5    0    0 -0.12475475480E+03  0.12561500040E+03 -0.31652760243E+03  0.36267423436E+03  0.00000000000E+00 0. -1.
        -11    1    5    5    0    0 -0.22065036320E-01 -0.95529607200E+00 -0.83224624935E+02  0.83230110375E+02  0.00000000000E+00 0.  1.
          2    1    6    6  503    0 -0.63646833340E+03  0.16332771882E+02  0.20118482152E+03  0.66770804344E+03  0.00000000000E+00 0. -1.
         -2    1    6    6    0  503 -0.16963309018E+03 -0.27998801550E+02  0.91218827781E+02  0.19462834509E+03  0.00000000000E+00 0.  1.
<mgrwt>
<rscale>  0 0.26720855E+04</rscale>
<asrwt>0</asrwt>
<pdfrwt beam="1">  1        2 0.11198122E+00 0.26720855E+04</pdfrwt>
<pdfrwt beam="2">  1       -1 0.37728435E+00 0.26720855E+04</pdfrwt>
<totfact> 0.39891848E-01</totfact>
</mgrwt>
</event>
<event>
12    6  0.1556619E-007  0.1228418E+04  0.7818608E-02  0.9088340E-01
         -1   -1    0    0    0  501 -0.00000000000E+00  0.00000000000E+00  0.20022542474E+03  0.20022542474E+03  0.00000000000E+00 0.  1.
          2   -1    0    0  501    0  0.00000000000E+00 -0.00000000000E+00 -0.18841401820E+04  0.18841401820E+04  0.00000000000E+00 0. -1.
         24    2    1    2    0    0 -0.74553264633E+02  0.24996714473E+03 -0.50391900811E+03  0.57287639093E+03  0.78811356062E+02 0.  0.
        254    2    1    2    0    0  0.74553264633E+02 -0.24996714473E+03 -0.11799957492E+04  0.15114892158E+04  0.90783694503E+03 0.  0.
         23    2    4    4    0    0 -0.40205603303E+03 -0.13842795118E+03 -0.66761611477E+03  0.79678847531E+03  0.91374210404E+02 0.  0.
         23    2    4    4    0    0  0.47660929766E+03 -0.11153919354E+03 -0.51237963440E+03  0.71470074051E+03  0.93095888308E+02 0.  0.
          2    1    3    3  502    0 -0.14747650709E+02  0.13527857386E+03 -0.32282475953E+03  0.35033357120E+03  0.00000000000E+00 0. -1.
         -1    1    3    3    0  502 -0.59805613923E+02  0.11468857087E+03 -0.18109424858E+03  0.22254281973E+03  0.00000000000E+00 0.  1.
         11    1    5    5    0    0 -0.26530314503E+03 -0.11627658859E+03 -0.38256674481E+03  0.47985760184E+03  0.00000000000E+00 0.  1.
        -11    1    5    5    0    0 -0.13675288800E+03 -0.22151362594E+02 -0.28504936996E+03  0.31693087347E+03  0.00000000000E+00 0. -1.
          3    1    6    6  503    0  0.10802596627E+03 -0.46521134275E+02 -0.77091859601E+02  0.14063065149E+03  0.00000000000E+00 0. -1.
         -3    1    6    6    0  503  0.36858333140E+03 -0.65018059267E+02 -0.43528777480E+03  0.57407008902E+03  0.00000000000E+00 0.  1.
<mgrwt>
<rscale>  0 0.12284181E+04</rscale>
<asrwt>0</asrwt>
<pdfrwt beam="1">  1        2 0.28986772E+00 0.12284181E+04</pdfrwt>
<pdfrwt beam="2">  1       -1 0.30803912E-01 0.12284181E+04</pdfrwt>
<totfact> 0.84726759E+01</totfact>
</mgrwt>
</event>
<event>
12    6  0.1556619E-007  0.1367189E+04  0.7818608E-02  0.8977917E-01
         -1   -1    0    0    0  501 -0.00000000000E+00  0.00000000000E+00  0.52961883219E+03  0.52961883219E+03  0.00000000000E+00 0.  1.
          2   -1    0    0  501    0  0.00000000000E+00 -0.00000000000E+00 -0.88233530121E+03  0.88233530121E+03  0.00000000000E+00 0. -1.
         24    2    1    2    0    0 -0.34738199106E+03  0.37249487220E+02 -0.25239834751E+03  0.43711475810E+03  0.72819049104E+02 0.  0.
        254    2    1    2    0    0  0.34738199106E+03 -0.37249487220E+02 -0.10031812151E+03  0.97483937530E+03  0.90453651674E+03 0.  0.
         23    2    4    4    0    0  0.45291803050E+03  0.22216359067E+02  0.29667401363E+03  0.54961328880E+03  0.91820411144E+02 0.  0.
         23    2    4    4    0    0 -0.10553603944E+03 -0.59465846286E+02 -0.39699213514E+03  0.42522608650E+03  0.92414429497E+02 0.  0.
          4    1    3    3  502    0 -0.27585088216E+03  0.45697992952E+02 -0.22888643985E+03  0.36134611952E+03  0.00000000000E+00 0. -1.
         -3    1    3    3    0  502 -0.71531108907E+02 -0.84485057321E+01 -0.23511907659E+02  0.75768638580E+02  0.00000000000E+00 0.  1.
         11    1    5    5    0    0  0.30671225585E+03  0.34146197908E+02  0.24517761463E+03  0.39414519334E+03  0.00000000000E+00 0. -1.
        -11    1    5    5    0    0  0.14620577465E+03 -0.11929838841E+02  0.51496399002E+02  0.15546809546E+03  0.00000000000E+00 0.  1.
          1    1    6    6  503    0  0.16638688959E+02 -0.94099687899E+01 -0.34563476832E+02  0.39497182350E+02  0.00000000000E+00 0. -1.
         -1    1    6    6    0  503 -0.12217472839E+03 -0.50055877496E+02 -0.36242865831E+03  0.38572890415E+03  0.00000000000E+00 0.  1.
<mgrwt>
<rscale>  0 0.13671889E+04</rscale>
<asrwt>0</asrwt>
<pdfrwt beam="1">  1        2 0.13574389E+00 0.13671889E+04</pdfrwt>
<pdfrwt beam="2">  1       -1 0.81479823E-01 0.13671889E+04</pdfrwt>
<totfact> 0.50364932E+01</totfact>
</mgrwt>
</event>
<event>
12    6  0.1556619E-007  0.1742701E+04  0.7818608E-02  0.8737378E-01
         -1   -1    0    0    0  501 -0.00000000000E+00  0.00000000000E+00  0.31618136914E+03  0.31618136914E+03  0.00000000000E+00 0.  1.
          2   -1    0    0  501    0  0.00000000000E+00 -0.00000000000E+00 -0.24013159413E+04  0.24013159413E+04  0.00000000000E+00 0. -1.
         24    2    1    2    0    0  0.13561362585E+03  0.60740735630E+03 -0.97974507320E+03  0.11633211608E+04  0.77980528501E+02 0.  0.
        254    2    1    2    0    0 -0.13561362585E+03 -0.60740735630E+03 -0.11053894990E+04  0.15541761496E+04  0.89791024470E+03 0.  0.
         23    2    4    4    0    0  0.62406759498E+02  0.20699366933E+03 -0.14417739598E+03  0.27557222298E+03  0.91716660387E+02 0.  0.
         23    2    4    4    0    0 -0.19802038535E+03 -0.81440102563E+03 -0.96121210299E+03  0.12786039266E+04  0.91859624762E+02 0.  0.
          2    1    3    3  502    0  0.85711092636E+02  0.50971394318E+03 -0.78728653831E+03  0.94179338959E+03  0.00000000000E+00 0. -1.
         -1    1    3    3    0  502  0.49902533215E+02  0.97693413117E+02 -0.19245853489E+03  0.22152777126E+03  0.00000000000E+00 0.  1.
         11    1    5    5    0    0 -0.23477338151E+01  0.90918248211E+01  0.12034105338E+02  0.15264102460E+02  0.00000000000E+00 0. -1.
        -11    1    5    5    0    0  0.64754493313E+02  0.19790184451E+03 -0.15621150132E+03  0.26030812052E+03  0.00000000000E+00 0.  1.
          2    1    6    6  503    0 -0.60933206904E+02 -0.11511262918E+03 -0.16120044946E+03  0.20724226887E+03  0.00000000000E+00 0. -1.
         -2    1    6    6    0  503 -0.13708717844E+03 -0.69928839645E+03 -0.80001165353E+03  0.10713616577E+04  0.00000000000E+00 0.  1.
<mgrwt>
<rscale>  0 0.17427006E+04</rscale>
<asrwt>0</asrwt>
<pdfrwt beam="1">  1        2 0.36943323E+00 0.17427006E+04</pdfrwt>
<pdfrwt beam="2">  1       -1 0.48643287E-01 0.17427006E+04</pdfrwt>
<totfact> 0.18145067E+01</totfact>
</mgrwt>
</event>
<event>
12    6  0.1556619E-007  0.1209491E+04  0.7818608E-02  0.9104590E-01
         -1   -1    0    0    0  501 -0.00000000000E+00  0.00000000000E+00  0.73982897300E+03  0.73982897300E+03  0.00000000000E+00 0.  1.
          2   -1    0    0  501    0  0.00000000000E+00 -0.00000000000E+00 -0.49432627454E+03  0.49432627454E+03  0.00000000000E+00 0. -1.
         24    2    1    2    0    0  0.21595016510E+03 -0.11269451813E+03  0.13961653986E+03  0.29169134433E+03  0.79098254895E+02 0.  0.
        254    2    1    2    0    0 -0.21595016510E+03  0.11269451813E+03  0.10588615861E+03  0.94246390322E+03  0.90426312656E+03 0.  0.
         23    2    4    4    0    0 -0.44431085149E+03 -0.29881229051E+01  0.35278642512E+03  0.57505210972E+03  0.93838187889E+02 0.  0.
         23    2    4    4    0    0  0.22836068638E+03  0.11568264104E+03 -0.24690026652E+03  0.36741179350E+03  0.92198741189E+02 0.  0.
          2    1    3    3  502    0  0.13748527389E+03 -0.80021257815E+02  0.13134553863E+03  0.20629409288E+03  0.00000000000E+00 0. -1.
         -1    1    3    3    0  502  0.78464891215E+02 -0.32673260315E+02  0.82710012235E+01  0.85397251444E+02  0.00000000000E+00 0.  1.
         11    1    5    5    0    0 -0.39067375313E+03  0.23364071085E+02  0.32685356639E+03  0.50990696707E+03  0.00000000000E+00 0.  1.
        -11    1    5    5    0    0 -0.53637098360E+02 -0.26352193990E+02  0.25932858737E+02  0.65145142650E+02  0.00000000000E+00 0. -1.
          2    1    6    6  503    0  0.12933805838E+03  0.10577126737E+03 -0.11791981265E+03  0.20450177643E+03  0.00000000000E+00 0. -1.
         -2    1    6    6    0  503  0.99022628005E+02  0.99113736682E+01 -0.12898045386E+03  0.16291001708E+03  0.00000000000E+00 0.  1.
<mgrwt>
<rscale>  0 0.12094906E+04</rscale>
<asrwt>0</asrwt>
<pdfrwt beam="1">  1        2 0.76050197E-01 0.12094906E+04</pdfrwt>
<pdfrwt beam="2">  1       -1 0.11381984E+00 0.12094906E+04</pdfrwt>
<totfact> 0.49540534E+01</totfact>
</mgrwt>
</event>
<event>
12    6  0.1556619E-007  0.2764494E+04  0.7818608E-02  0.8314377E-01
          2   -1    0    0  501    0  0.00000000000E+00  0.00000000000E+00  0.51297247131E+03  0.51297247131E+03  0.00000000000E+00 0. -1.
         -1   -1    0    0    0  501 -0.00000000000E+00 -0.00000000000E+00 -0.37245804923E+04  0.37245804923E+04  0.00000000000E+00 0.  1.
         24    2    1    2    0    0  0.50377337214E+03  0.37973779637E+03 -0.30618646995E+04  0.31272124618E+04  0.80336408964E+02 0.  0.
        254    2    1    2    0    0 -0.50377337214E+03 -0.37973779637E+03 -0.14974332143E+03  0.11103405018E+04  0.90135706748E+03 0.  0.
         23    2    4    4    0    0  0.17393090846E+03 -0.54734108302E+01  0.17632418034E+03  0.26438915090E+03  0.92355223968E+02 0.  0.
         23    2    4    4    0    0 -0.67770428060E+03 -0.37426438554E+03 -0.32606750177E+03  0.84595135088E+03  0.99783516233E+02 0.  0.
          2    1    3    3  502    0  0.10483693761E+03  0.41769213289E+02 -0.57822019852E+03  0.58912990812E+03  0.00000000000E+00 0. -1.
         -1    1    3    3    0  502  0.39893643453E+03  0.33796858308E+03 -0.24836445010E+04  0.25380825537E+04  0.00000000000E+00 0.  1.
         11    1    5    5    0    0  0.81978326515E+02  0.13715031265E+02  0.14169833047E+03  0.16427709810E+03  0.00000000000E+00 0.  1.
        -11    1    5    5    0    0  0.91952581944E+02 -0.19188442095E+02  0.34625849872E+02  0.10011205280E+03  0.00000000000E+00 0. -1.
          1    1    6    6  503    0 -0.55742581169E+03 -0.27675869180E+03 -0.22867509958E+03  0.66303183196E+03  0.00000000000E+00 0. -1.
         -1    1    6    6    0  503 -0.12027846890E+03 -0.97505693740E+02 -0.97392402197E+02  0.18291951891E+03  0.00000000000E+00 0.  1.
<mgrwt>
<rscale>  0 0.27644944E+04</rscale>
<asrwt>0</asrwt>
<pdfrwt beam="1">  1        2 0.78918839E-01 0.27644944E+04</pdfrwt>
<pdfrwt beam="2">  1       -1 0.57301240E+00 0.27644944E+04</pdfrwt>
<totfact> 0.33886793E-02</totfact>
</mgrwt>
</event>
<event>
12    6  0.1556619E-007  0.2283833E+04  0.7818608E-02  0.8484323E-01
          2   -1    0    0  501    0  0.00000000000E+00  0.00000000000E+00  0.14680929976E+04  0.14680929976E+04  0.00000000000E+00 0. -1.
         -1   -1    0    0    0  501 -0.00000000000E+00 -0.00000000000E+00 -0.88820888909E+03  0.88820888909E+03  0.00000000000E+00 0.  1.
         24    2    1    2    0    0 -0.85062597479E+03 -0.41460438008E+03  0.39869414463E+02  0.94977314592E+03  0.70838672649E+02 0.  0.
        254    2    1    2    0    0  0.85062597479E+03  0.41460438008E+03  0.54001469402E+03  0.14065287407E+04  0.88952003228E+03 0.  0.
         23    2    4    4    0    0  0.72000362335E+03  0.12076229908E+03 -0.39764469144E+02  0.73715098453E+03  0.93923428775E+02 0.  0.
         23    2    4    4    0    0  0.13062235144E+03  0.29384208100E+03  0.57977916317E+03  0.66937775622E+03  0.92289410098E+02 0.  0.
          4    1    3    3  502    0 -0.57976195945E+03 -0.28379335718E+03 -0.58553559146E+01  0.64552063050E+03  0.00000000000E+00 0. -1.
         -3    1    3    3    0  502 -0.27086401533E+03 -0.13081102289E+03  0.45724770377E+02  0.30425251542E+03  0.00000000000E+00 0.  1.
         11    1    5    5    0    0  0.79619189052E+02  0.33573030435E+02 -0.27721814963E+02  0.90746144065E+02  0.00000000000E+00 0. -1.
        -11    1    5    5    0    0  0.64038443430E+03  0.87189268646E+02 -0.12042654181E+02  0.64640484047E+03  0.00000000000E+00 0.  1.
          2    1    6    6  503    0  0.11200653533E+03  0.23203075393E+03  0.52459440289E+03  0.58445104352E+03  0.00000000000E+00 0. -1.
         -2    1    6    6    0  503  0.18615816111E+02  0.61811327065E+02  0.55184760277E+02  0.84926712699E+02  0.00000000000E+00 0.  1.
<mgrwt>
<rscale>  0 0.22838330E+04</rscale>
<asrwt>0</asrwt>
<pdfrwt beam="1">  1        2 0.22586046E+00 0.22838330E+04</pdfrwt>
<pdfrwt beam="2">  1       -1 0.13664752E+00 0.22838330E+04</pdfrwt>
<totfact> 0.61107671E+00</totfact>
</mgrwt>
</event>
<event>
12    6  0.1556619E-007  0.2323554E+04  0.7818608E-02  0.8468692E-01
         -1   -1    0    0    0  501 -0.00000000000E+00  0.00000000000E+00  0.18143870999E+04  0.18143870999E+04  0.00000000000E+00 0.  1.
          2   -1    0    0  501    0  0.00000000000E+00 -0.00000000000E+00 -0.74390162708E+03  0.74390162708E+03  0.00000000000E+00 0. -1.
         24    2    1    2    0    0  0.25535256075E+03  0.93061873433E+03  0.67825707484E+03  0.11824571204E+04  0.83162630201E+02 0.  0.
        254    2    1    2    0    0 -0.25535256075E+03 -0.93061873433E+03  0.39222839795E+03  0.13758316065E+04  0.89878436483E+03 0.  0.
         23    2    4    4    0    0 -0.38865196144E+03 -0.76146343454E+03 -0.64056120635E+02  0.86221576354E+03  0.91847302783E+02 0.  0.
         23    2    4    4    0    0  0.13329940069E+03 -0.16915529978E+03  0.45628451859E+03  0.51361584301E+03  0.96038672516E+02 0.  0.
          4    1    3    3  502    0  0.50437256853E+02  0.88498828493E+02  0.74555371297E+02  0.12623178250E+03  0.00000000000E+00 0. -1.
         -3    1    3    3    0  502  0.20491530389E+03  0.84211990583E+03  0.60370170354E+03  0.10562253379E+04  0.00000000000E+00 0.  1.
         11    1    5    5    0    0 -0.27229267428E+03 -0.60364783916E+03 -0.27692929257E+02  0.66279779158E+03  0.00000000000E+00 0. -1.
        -11    1    5    5    0    0 -0.11635928716E+03 -0.15781559538E+03 -0.36363191378E+02  0.19941797196E+03  0.00000000000E+00 0.  1.
          2    1    6    6  503    0 -0.67745136866E+01  0.38767126366E+01  0.47549176465E+02  0.48185548862E+02  0.00000000000E+00 0.  1.
         -2    1    6    6    0  503  0.14007391438E+03 -0.17303201242E+03  0.40873534212E+03  0.46543029415E+03  0.00000000000E+00 0. -1.
<mgrwt>
<rscale>  0 0.23235538E+04</rscale>
<asrwt>0</asrwt>
<pdfrwt beam="1">  1        2 0.11444640E+00 0.23235538E+04</pdfrwt>
<pdfrwt beam="2">  1       -1 0.27913648E+00 0.23235538E+04</pdfrwt>
<totfact> 0.17641600E+00</totfact>
</mgrwt>
</event>
<event>
12    6  0.1556619E-007  0.1510323E+04  0.7818608E-02  0.8877617E-01
         -1   -1    0    0    0  501 -0.00000000000E+00  0.00000000000E+00  0.21800545835E+03  0.21800545835E+03  0.00000000000E+00 0.  1.
          2   -1    0    0  501    0  0.00000000000E+00 -0.00000000000E+00 -0.26158451624E+04  0.26158451624E+04  0.00000000000E+00 0. -1.
         24    2    1    2    0    0 -0.15131313977E+03 -0.22742166364E+03 -0.27125069816E+02  0.28567690813E+03  0.79115403444E+02 0.  0.
        254    2    1    2    0    0  0.15131313977E+03  0.22742166364E+03 -0.23707146343E+04  0.25481737127E+04  0.89346802597E+03 0.  0.
         23    2    4    4    0    0  0.38054346575E+03 -0.20545938701E+01 -0.43910173827E+03  0.58712252430E+03  0.84172271652E+02 0.  0.
         23    2    4    4    0    0 -0.22923032598E+03  0.22947625751E+03 -0.19316128960E+04  0.19610511884E+04  0.96889051383E+02 0.  0.
          4    1    3    3  502    0 -0.49084393271E+01 -0.53277734779E+02 -0.22713354509E+02  0.58124919552E+02  0.00000000000E+00 0. -1.
         -3    1    3    3    0  502 -0.14640470044E+03 -0.17414392886E+03 -0.44117153078E+01  0.22755198857E+03  0.00000000000E+00 0.  1.
         11    1    5    5    0    0  0.36464188997E+03 -0.55415407715E+01 -0.43916660483E+03  0.57084299364E+03  0.00000000000E+00 0. -1.
        -11    1    5    5    0    0  0.15901575774E+02  0.34869469014E+01  0.64866559315E-01  0.16279530659E+02  0.00000000000E+00 0.  1.
          1    1    6    6  503    0 -0.13152477544E+03  0.13517292963E+03 -0.13870223317E+04  0.13997862108E+04  0.00000000000E+00 0. -1.
         -1    1    6    6    0  503 -0.97705550540E+02  0.94303327887E+02 -0.54459056434E+03  0.56126497755E+03  0.00000000000E+00 0.  1.
<mgrwt>
<rscale>  0 0.15103225E+04</rscale>
<asrwt>0</asrwt>
<pdfrwt beam="1">  1        2 0.40243770E+00 0.15103225E+04</pdfrwt>
<pdfrwt beam="2">  1       -1 0.33539303E-01 0.15103225E+04</pdfrwt>
<totfact> 0.27525126E+01</totfact>
</mgrwt>
</event>
<event>
12    6  0.1556619E-007  0.1212685E+04  0.7818608E-02  0.9101825E-01
          2   -1    0    0  501    0  0.00000000000E+00  0.00000000000E+00  0.75492097446E+03  0.75492097446E+03  0.00000000000E+00 0. -1.
         -1   -1    0    0    0  501 -0.00000000000E+00 -0.00000000000E+00 -0.48700619712E+03  0.48700619712E+03  0.00000000000E+00 0.  1.
         24    2    1    2    0    0 -0.20226255737E+03  0.14566472301E+03 -0.58623407749E+02  0.26779108316E+03  0.78402848419E+02 0.  0.
        254    2    1    2    0    0  0.20226255737E+03 -0.14566472301E+03  0.32653818509E+03  0.97413608842E+03  0.88328114369E+03 0.  0.
         23    2    4    4    0    0 -0.30573149134E+03 -0.10481688442E+03  0.30524380306E+03  0.45511472635E+03  0.97454147027E+02 0.  0.
         23    2    4    4    0    0  0.50799404872E+03 -0.40847838588E+02  0.21294382024E+02  0.51902136207E+03  0.95933435948E+02 0.  0.
          4    1    3    3  502    0 -0.57646094975E+02  0.87764272426E+02 -0.15378696184E+02  0.10612324946E+03  0.00000000000E+00 0. -1.
         -3    1    3    3    0  502 -0.14461646240E+03  0.57900450583E+02 -0.43244711565E+02  0.16166783370E+03  0.00000000000E+00 0.  1.
         11    1    5    5    0    0 -0.15970621153E+03 -0.45154708458E+02  0.91664178594E+02  0.18959784633E+03  0.00000000000E+00 0.  1.
        -11    1    5    5    0    0 -0.14602527982E+03 -0.59662175963E+02  0.21357962447E+03  0.26551688002E+03  0.00000000000E+00 0. -1.
          2    1    6    6  503    0  0.16199725459E+03 -0.43639284950E+02 -0.26073338294E+02  0.16978609088E+03  0.00000000000E+00 0. -1.
         -2    1    6    6    0  503  0.34599679412E+03  0.27914463617E+01  0.47367720317E+02  0.34923527119E+03  0.00000000000E+00 0.  1.
<mgrwt>
<rscale>  0 0.12126849E+04</rscale>
<asrwt>0</asrwt>
<pdfrwt beam="1">  1        2 0.11614169E+00 0.12126849E+04</pdfrwt>
<pdfrwt beam="2">  1       -1 0.74924031E-01 0.12126849E+04</pdfrwt>
<totfact> 0.75031461E+01</totfact>
</mgrwt>
</event>
<event>
12    6  0.1556619E-007  0.2121262E+04  0.7818608E-02  0.8551935E-01
         -1   -1    0    0    0  501 -0.00000000000E+00  0.00000000000E+00  0.34572934494E+03  0.34572934494E+03  0.00000000000E+00 0.  1.
          2   -1    0    0  501    0  0.00000000000E+00 -0.00000000000E+00 -0.32538112292E+04  0.32538112292E+04  0.00000000000E+00 0. -1.
         24    2    1    2    0    0 -0.65328026925E+03 -0.41557655699E+03 -0.18556335363E+04  0.20118442241E+04  0.68281595116E+02 0.  0.
        254    2    1    2    0    0  0.65328026925E+03  0.41557655699E+03 -0.10524483481E+04  0.15876963501E+04  0.90202726670E+03 0.  0.
         23    2    4    4    0    0  0.77395262967E+03  0.53373575710E+02 -0.82668678072E+03  0.11365895677E+04  0.81076509948E+02 0.  0.
         23    2    4    4    0    0 -0.12067236043E+03  0.36220298128E+03 -0.22576156734E+03  0.45110678238E+03  0.82317832813E+02 0.  0.
          4    1    3    3  502    0 -0.16243395876E+03 -0.83882021208E+02 -0.50206124667E+03  0.53430934846E+03  0.00000000000E+00 0. -1.
         -3    1    3    3    0  502 -0.49084631049E+03 -0.33169453579E+03 -0.13535722896E+04  0.14775348756E+04  0.00000000000E+00 0.  1.
         11    1    5    5    0    0  0.70552220714E+03  0.33208503845E+02 -0.77452391090E+03  0.10482135651E+04  0.00000000000E+00 0. -1.
        -11    1    5    5    0    0  0.68430422530E+02  0.20165071866E+02 -0.52162869813E+02  0.88376002614E+02  0.00000000000E+00 0.  1.
          2    1    6    6  503    0 -0.12946066692E+03  0.30446863514E+03 -0.17818478396E+03  0.37578056269E+03  0.00000000000E+00 0. -1.
         -2    1    6    6    0  503  0.87883064901E+01  0.57734346145E+02 -0.47576783376E+02  0.75326219686E+02  0.00000000000E+00 0.  1.
<mgrwt>
<rscale>  0 0.21212619E+04</rscale>
<asrwt>0</asrwt>
<pdfrwt beam="1">  1        2 0.50058632E+00 0.21212619E+04</pdfrwt>
<pdfrwt beam="2">  1       -1 0.53189132E-01 0.21212619E+04</pdfrwt>
<totfact> 0.44740204E+00</totfact>
</mgrwt>
</event>
<event>
12    6  0.1556619E-007  0.1312584E+04  0.7818608E-02  0.9019645E-01
          2   -1    0    0  501    0  0.00000000000E+00  0.00000000000E+00  0.11491633814E+04  0.11491633814E+04  0.00000000000E+00 0. -1.
         -1   -1    0    0    0  501 -0.00000000000E+00 -0.00000000000E+00 -0.37481127571E+03  0.37481127571E+03  0.00000000000E+00 0.  1.
         24    2    1    2    0    0 -0.13499116262E+02  0.19985380172E+03  0.64969604290E+03  0.68461797576E+03  0.80455306684E+02 0.  0.
        254    2    1    2    0    0  0.13499116262E+02 -0.19985380172E+03  0.12465606279E+03  0.83935668135E+03  0.80551644076E+03 0.  0.
         23    2    4    4    0    0  0.28322027338E+03 -0.31717693138E+03 -0.11557278926E+03  0.44905596657E+03  0.86482729108E+02 0.  0.
         23    2    4    4    0    0 -0.26972115712E+03  0.11732312966E+03  0.24022885206E+03  0.39030071478E+03  0.90058465711E+02 0.  0.
          2    1    3    3  502    0  0.27311803585E+02  0.14348067403E+03  0.45395307163E+03  0.47687108287E+03  0.00000000000E+00 0. -1.
         -1    1    3    3    0  502 -0.40810919847E+02  0.56373127686E+02  0.19574297127E+03  0.20774689289E+03  0.00000000000E+00 0.  1.
         11    1    5    5    0    0  0.23017089143E+03 -0.27232534594E+03 -0.12729011194E+03  0.37860600352E+03  0.00000000000E+00 0. -1.
        -11    1    5    5    0    0  0.53049381956E+02 -0.44851585446E+02  0.11717322680E+02  0.70449963050E+02  0.00000000000E+00 0.  1.
          2    1    6    6  503    0 -0.62939527094E+02  0.63814346943E+02  0.42341310107E+02  0.99128409087E+02  0.00000000000E+00 0. -1.
         -2    1    6    6    0  503 -0.20678163003E+03  0.53508782720E+02  0.19788754195E+03  0.29117230570E+03  0.00000000000E+00 0.  1.
<mgrwt>
<rscale>  0 0.13125843E+04</rscale>
<asrwt>0</asrwt>
<pdfrwt beam="1">  1        2 0.17679436E+00 0.13125843E+04</pdfrwt>
<pdfrwt beam="2">  1       -1 0.57663274E-01 0.13125843E+04</pdfrwt>
<totfact> 0.69140988E+01</totfact>
</mgrwt>
</event>
<event>
12    6  0.1556619E-007  0.1235104E+04  0.7818608E-02  0.9082673E-01
          2   -1    0    0  501    0  0.00000000000E+00  0.00000000000E+00  0.15918606183E+04  0.15918606183E+04  0.00000000000E+00 0. -1.
         -1   -1    0    0    0  501 -0.00000000000E+00 -0.00000000000E+00 -0.23957521140E+03  0.23957521140E+03  0.00000000000E+00 0.  1.
         24    2    1    2    0    0  0.11882995033E+02  0.26267235326E+03  0.46274326612E+03  0.53748781206E+03  0.74992313163E+02 0.  0.
        254    2    1    2    0    0 -0.11882995033E+02 -0.26267235326E+03  0.88954214082E+03  0.12939480177E+04  0.90215202788E+03 0.  0.
         23    2    4    4    0    0  0.29331090281E+02  0.29961466664E+03  0.12448962612E+03  0.33924632468E+03  0.94663300567E+02 0.  0.
         23    2    4    4    0    0 -0.41214085314E+02 -0.56228701989E+03  0.76505251469E+03  0.95470169300E+03  0.91020210965E+02 0.  0.
          4    1    3    3  502    0 -0.29119152639E+02  0.13633980689E+03  0.26198300044E+03  0.29676853019E+03  0.00000000000E+00 0. -1.
         -3    1    3    3    0  502  0.41002147672E+02  0.12633254637E+03  0.20076026568E+03  0.24071928187E+03  0.00000000000E+00 0.  1.
         11    1    5    5    0    0  0.58474109209E+02  0.20912350778E+03  0.10885254302E+03  0.24290067739E+03  0.00000000000E+00 0.  1.
        -11    1    5    5    0    0 -0.29143018927E+02  0.90491158860E+02  0.15637083101E+02  0.96345647291E+02  0.00000000000E+00 0. -1.
          2    1    6    6  503    0  0.14495048775E+02 -0.29996726315E+02  0.69517481689E+02  0.77088198117E+02  0.00000000000E+00 0. -1.
         -2    1    6    6    0  503 -0.55709134089E+02 -0.53229029358E+03  0.69553503300E+03  0.87761349488E+03  0.00000000000E+00 0.  1.
<mgrwt>
<rscale>  0 0.12351038E+04</rscale>
<asrwt>0</asrwt>
<pdfrwt beam="1">  1        2 0.24490163E+00 0.12351038E+04</pdfrwt>
<pdfrwt beam="2">  1       -1 0.36857726E-01 0.12351038E+04</pdfrwt>
<totfact> 0.89331073E+01</totfact>
</mgrwt>
</event>
<event>
12    6  0.1556619E-007  0.2084362E+04  0.7818608E-02  0.8568164E-01
         -1   -1    0    0    0  501 -0.00000000000E+00  0.00000000000E+00  0.30766311680E+03  0.30766311680E+03  0.00000000000E+00 0.  1.
          2   -1    0    0  501    0  0.00000000000E+00 -0.00000000000E+00 -0.35302934600E+04  0.35302934600E+04  0.00000000000E+00 0. -1.
         24    2    1    2    0    0  0.60316022584E+03 -0.26076299624E+02 -0.22495689232E+03  0.64944678603E+03  0.81812548234E+02 0.  0.
        254    2    1    2    0    0 -0.60316022584E+03  0.26076299624E+02 -0.29976734508E+04  0.31885097907E+04  0.90336390023E+03 0.  0.
         23    2    4    4    0    0 -0.62141332201E+03 -0.25531711800E+03 -0.26288769251E+04  0.27149045400E+04  0.91495501122E+02 0.  0.
         23    2    4    4    0    0  0.18253096174E+02  0.28139341762E+03 -0.36879652578E+03  0.47360525072E+03  0.93678306338E+02 0.  0.
          2    1    3    3  502    0  0.83221781984E+01 -0.17117041238E+01 -0.16696961766E+02  0.18734383182E+02  0.00000000000E+00 0. -1.
         -1    1    3    3    0  502  0.59483804764E+03 -0.24364595501E+02 -0.20825993056E+03  0.63071240285E+03  0.00000000000E+00 0.  1.
         11    1    5    5    0    0 -0.49938552527E+03 -0.22672125176E+03 -0.22480755856E+04  0.23140078365E+04  0.00000000000E+00 0.  1.
        -11    1    5    5    0    0 -0.12202779674E+03 -0.28595866234E+02 -0.38080133951E+03  0.40089670355E+03  0.00000000000E+00 0. -1.
          3    1    6    6  503    0 -0.23999412639E+02  0.94836838095E+02 -0.17987450317E+03  0.20475554829E+03  0.00000000000E+00 0. -1.
         -3    1    6    6    0  503  0.42252508812E+02  0.18655657953E+03 -0.18892202261E+03  0.26884970243E+03  0.00000000000E+00 0.  1.
<mgrwt>
<rscale>  0 0.20843619E+04</rscale>
<asrwt>0</asrwt>
<pdfrwt beam="1">  1        2 0.54312211E+00 0.20843619E+04</pdfrwt>
<pdfrwt beam="2">  1       -1 0.47332784E-01 0.20843619E+04</pdfrwt>
<totfact> 0.36380836E+00</totfact>
</mgrwt>
</event>
<event>
12    6  0.1556619E-007  0.1261734E+04  0.7818608E-02  0.9060473E-01
         -1   -1    0    0    0  501 -0.00000000000E+00  0.00000000000E+00  0.21494884708E+03  0.21494884708E+03  0.00000000000E+00 0.  1.
          2   -1    0    0  501    0  0.00000000000E+00 -0.00000000000E+00 -0.18515722760E+04  0.18515722760E+04  0.00000000000E+00 0. -1.
         24    2    1    2    0    0 -0.23398348883E+03  0.16975476892E+03 -0.59008816747E+03  0.66303875512E+03  0.88608074027E+02 0.  0.
        254    2    1    2    0    0  0.23398348883E+03 -0.16975476892E+03 -0.10465352615E+04  0.14034823680E+04  0.88936030333E+03 0.  0.
         23    2    4    4    0    0 -0.24998704810E+03 -0.18079731828E+03 -0.10075941343E+03  0.33719512581E+03  0.91470754687E+02 0.  0.
         23    2    4    4    0    0  0.48397053694E+03  0.11042549354E+02 -0.94577584805E+03  0.10662872422E+04  0.90150482880E+02 0.  0.
          2    1    3    3  502    0 -0.87469091108E+02  0.37356411194E+02 -0.27702356884E+03  0.29289657057E+03  0.00000000000E+00 0. -1.
         -1    1    3    3    0  502 -0.14651439772E+03  0.13239835773E+03 -0.31306459863E+03  0.37014218455E+03  0.00000000000E+00 0.  1.
         11    1    5    5    0    0 -0.15400138304E+03 -0.69488136602E+02 -0.21812117114E+02  0.17035491059E+03  0.00000000000E+00 0. -1.
        -11    1    5    5    0    0 -0.95985665059E+02 -0.11130918167E+03 -0.78947296313E+02  0.16684021523E+03  0.00000000000E+00 0.  1.
          4    1    6    6  503    0  0.32230771420E+03 -0.34889146106E+02 -0.63595061547E+03  0.71381559276E+03  0.00000000000E+00 0. -1.
         -4    1    6    6    0  503  0.16166282273E+03  0.45931695459E+02 -0.30982523258E+03  0.35247164942E+03  0.00000000000E+00 0.  1.
<mgrwt>
<rscale>  0 0.12617342E+04</rscale>
<asrwt>0</asrwt>
<pdfrwt beam="1">  1        2 0.28485728E+00 0.12617342E+04</pdfrwt>
<pdfrwt beam="2">  1       -1 0.33069053E-01 0.12617342E+04</pdfrwt>
<totfact> 0.77699380E+01</totfact>
</mgrwt>
</event>
<event>
12    6  0.1556619E-007  0.1108788E+04  0.7818608E-02  0.9196669E-01
         -1   -1    0    0    0  501 -0.00000000000E+00  0.00000000000E+00  0.24136038535E+03  0.24136038535E+03  0.00000000000E+00 0.  1.
          2   -1    0    0  501    0  0.00000000000E+00 -0.00000000000E+00 -0.12734182383E+04  0.12734182383E+04  0.00000000000E+00 0. -1.
         24    2    1    2    0    0 -0.14166204598E+03 -0.53789961217E+02 -0.65407888370E+02  0.18459697358E+03  0.82682256840E+02 0.  0.
        254    2    1    2    0    0  0.14166204598E+03  0.53789961217E+02 -0.96664996456E+03  0.13301816501E+04  0.90111573783E+03 0.  0.
         23    2    4    4    0    0 -0.15578587589E+02  0.43571095588E+03 -0.28735582364E+03  0.53017148454E+03  0.91769843510E+02 0.  0.
         23    2    4    4    0    0  0.15724063357E+03 -0.38192099466E+03 -0.67929414092E+03  0.80001016551E+03  0.89372658149E+02 0.  0.
          2    1    3    3  502    0 -0.24044667798E+02  0.26490570248E+01  0.17648557308E+02  0.29943866278E+02  0.00000000000E+00 0. -1.
         -1    1    3    3    0  502 -0.11761737818E+03 -0.56439018241E+02 -0.83056445678E+02  0.15465310730E+03  0.00000000000E+00 0.  1.
         11    1    5    5    0    0  0.27237267299E+01  0.16936457134E+03 -0.16509582924E+03  0.23653416148E+03  0.00000000000E+00 0. -1.
        -11    1    5    5    0    0 -0.18302314319E+02  0.26634638454E+03 -0.12225999439E+03  0.29363732306E+03  0.00000000000E+00 0.  1.
          3    1    6    6  503    0  0.14856123584E+03 -0.38522710337E+03 -0.65846756810E+03  0.77720647206E+03  0.00000000000E+00 0. -1.
         -3    1    6    6    0  503  0.86793977326E+01  0.33061087100E+01 -0.20826572819E+02  0.22803693455E+02  0.00000000000E+00 0.  1.
<mgrwt>
<rscale>  0 0.11087880E+04</rscale>
<asrwt>0</asrwt>
<pdfrwt beam="1">  1        2 0.19591050E+00 0.11087880E+04</pdfrwt>
<pdfrwt beam="2">  1       -1 0.37132367E-01 0.11087880E+04</pdfrwt>
<totfact> 0.13505148E+02</totfact>
</mgrwt>
</event>
<event>
12    6  0.1556619E-007  0.3789971E+04  0.7818608E-02  0.8048310E-01
         -1   -1    0    0    0  501 -0.00000000000E+00  0.00000000000E+00  0.18678579778E+04  0.18678579778E+04  0.00000000000E+00 0.  1.
          2   -1    0    0  501    0  0.00000000000E+00 -0.00000000000E+00 -0.19225071355E+04  0.19225071355E+04  0.00000000000E+00 0. -1.
         24    2    1    2    0    0 -0.54986482265E+02 -0.16020639415E+04  0.76449399923E+03  0.17777986273E+04  0.80526384874E+02 0.  0.
        254    2    1    2    0    0  0.54986482265E+02  0.16020639415E+04 -0.81914315690E+03  0.20125664860E+04  0.89988663908E+03 0.  0.
         23    2    4    4    0    0 -0.36767973355E+03  0.77716161604E+03 -0.60950284507E+03  0.10579996771E+04  0.93279337074E+02 0.  0.
         23    2    4    4    0    0  0.42266621581E+03  0.82490232545E+03 -0.20964031183E+03  0.95456680887E+03  0.90211727274E+02 0.  0.
          4    1    3    3  502    0 -0.73881977349E+02 -0.14249754937E+04  0.68384783636E+03  0.15822962957E+04  0.00000000000E+00 0. -1.
         -3    1    3    3    0  502  0.18895495084E+02 -0.17708844778E+03  0.80646162879E+02  0.19550233160E+03  0.00000000000E+00 0.  1.
         11    1    5    5    0    0 -0.24712708582E+03  0.53940991473E+03 -0.47131583900E+03  0.75774235249E+03  0.00000000000E+00 0.  1.
        -11    1    5    5    0    0 -0.12055264773E+03  0.23775170131E+03 -0.13818700607E+03  0.30025732463E+03  0.00000000000E+00 0. -1.
          2    1    6    6  503    0  0.12256099798E+03  0.33441726930E+03 -0.74059590174E+02  0.36378693095E+03  0.00000000000E+00 0. -1.
         -2    1    6    6    0  503  0.30010521784E+03  0.49048505615E+03 -0.13558072165E+03  0.59077987792E+03  0.00000000000E+00 0.  1.
<mgrwt>
<rscale>  0 0.37899711E+04</rscale>
<asrwt>0</asrwt>
<pdfrwt beam="1">  1        2 0.29577033E+00 0.37899711E+04</pdfrwt>
<pdfrwt beam="2">  1       -1 0.28736277E+00 0.37899711E+04</pdfrwt>
<totfact> 0.26863136E-01</totfact>
</mgrwt>
</event>
<event>
12    6  0.1556619E-007  0.1957584E+04  0.7818608E-02  0.8626712E-01
          2   -1    0    0  501    0  0.00000000000E+00  0.00000000000E+00  0.33165942683E+04  0.33165942683E+04  0.00000000000E+00 0. -1.
         -1   -1    0    0    0  501 -0.00000000000E+00 -0.00000000000E+00 -0.28886061790E+03  0.28886061790E+03  0.00000000000E+00 0.  1.
         24    2    1    2    0    0 -0.72378767155E+03 -0.26744529123E+02  0.16885778849E+04  0.18390285848E+04  0.78402800578E+02 0.  0.
        254    2    1    2    0    0  0.72378767155E+03  0.26744529123E+02  0.13391557656E+04  0.17664263014E+04  0.89573425223E+03 0.  0.
         23    2    4    4    0    0  0.72887235675E+03  0.33143082424E+03  0.11204718941E+04  0.13802857804E+04  0.92899227464E+02 0.  0.
         23    2    4    4    0    0 -0.50846852037E+01 -0.30468629511E+03  0.21868387150E+03  0.38614052104E+03  0.91772947458E+02 0.  0.
          4    1    3    3  502    0 -0.18732411246E+02  0.25711831857E+01  0.84566419242E+02  0.86654448688E+02  0.00000000000E+00 0. -1.
         -3    1    3    3    0  502 -0.70505526030E+03 -0.29315712309E+02  0.16040114656E+04  0.17523741361E+04  0.00000000000E+00 0.  1.
         11    1    5    5    0    0  0.24456987791E+03  0.15267983882E+03  0.36165775715E+03  0.46251690960E+03  0.00000000000E+00 0. -1.
        -11    1    5    5    0    0  0.48430247884E+03  0.17875098542E+03  0.75881413692E+03  0.91776887079E+03  0.00000000000E+00 0.  1.
          3    1    6    6  503    0  0.38630260661E+02 -0.20044393399E+03  0.15574855073E+03  0.25676385798E+03  0.00000000000E+00 0. -1.
         -3    1    6    6    0  503 -0.43714945864E+02 -0.10424236113E+03  0.62935320769E+02  0.12937666306E+03  0.00000000000E+00 0.  1.
<mgrwt>
<rscale>  0 0.19575837E+04</rscale>
<asrwt>0</asrwt>
<pdfrwt beam="1">  1        2 0.51024525E+00 0.19575837E+04</pdfrwt>
<pdfrwt beam="2">  1       -1 0.44440097E-01 0.19575837E+04</pdfrwt>
<totfact> 0.58030543E+00</totfact>
</mgrwt>
</event>
<event>
12    6  0.1556619E-007  0.2613753E+04  0.7818608E-02  0.8363545E-01
         -1   -1    0    0    0  501 -0.00000000000E+00  0.00000000000E+00  0.90348783790E+03  0.90348783790E+03  0.00000000000E+00 0.  1.
          2   -1    0    0  501    0  0.00000000000E+00 -0.00000000000E+00 -0.18903702041E+04  0.18903702041E+04  0.00000000000E+00 0. -1.
         24    2    1    2    0    0  0.91073092019E+03  0.37049474912E+03 -0.10836439240E+04  0.14654880998E+04  0.81694850128E+02 0.  0.
        254    2    1    2    0    0 -0.91073092019E+03 -0.37049474912E+03  0.96761557846E+02  0.13283699422E+04  0.88797901779E+03 0.  0.
         23    2    4    4    0    0 -0.89146747831E+03 -0.59676870772E+03  0.11635255057E+03  0.10829184059E+04  0.91253506446E+02 0.  0.
         23    2    4    4    0    0 -0.19263441873E+02  0.22627395860E+03 -0.19590992725E+02  0.24545153624E+03  0.91058580684E+02 0.  0.
          2    1    3    3  502    0  0.16163725949E+03  0.54551764039E+02 -0.23348037735E+03  0.28916359595E+03  0.00000000000E+00 0. -1.
         -1    1    3    3    0  502  0.74909366070E+03  0.31594298509E+03 -0.85016354669E+03  0.11763245039E+04  0.00000000000E+00 0.  1.
         11    1    5    5    0    0 -0.89227604390E+03 -0.59815118055E+03  0.11792985113E+03  0.10806705433E+04  0.00000000000E+00 0.  1.
        -11    1    5    5    0    0  0.80856558293E+00  0.13824728268E+01 -0.15773005592E+01  0.22478626454E+01  0.00000000000E+00 0. -1.
          1    1    6    6  503    0 -0.22781679819E+02  0.19229357855E+03 -0.49700006386E+02  0.19991477164E+03  0.00000000000E+00 0. -1.
         -1    1    6    6    0  503  0.35182379461E+01  0.33980380045E+02  0.30109013662E+02  0.45536764597E+02  0.00000000000E+00 0.  1.
<mgrwt>
<rscale>  0 0.26137532E+04</rscale>
<asrwt>0</asrwt>
<pdfrwt beam="1">  1        2 0.29082618E+00 0.26137532E+04</pdfrwt>
<pdfrwt beam="2">  1       -1 0.13899813E+00 0.26137532E+04</pdfrwt>
<totfact> 0.33013846E+00</totfact>
</mgrwt>
</event>
<event>
12    6  0.1556619E-007  0.1263487E+04  0.7818608E-02  0.9059033E-01
         -1   -1    0    0    0  501 -0.00000000000E+00  0.00000000000E+00  0.20455590224E+03  0.20455590224E+03  0.00000000000E+00 0.  1.
          2   -1    0    0  501    0  0.00000000000E+00 -0.00000000000E+00 -0.19510536358E+04  0.19510536358E+04  0.00000000000E+00 0. -1.
         24    2    1    2    0    0 -0.84020891255E+02  0.25542547645E+03 -0.55208151576E+03  0.61943410082E+03  0.81258359741E+02 0.  0.
        254    2    1    2    0    0  0.84020891255E+02 -0.25542547645E+03 -0.11944162178E+04  0.15361754372E+04  0.92784868832E+03 0.  0.
         23    2    4    4    0    0  0.45997483719E+03  0.18642604154E+02 -0.75976702191E+03  0.89280654460E+03  0.89068518379E+02 0.  0.
         23    2    4    4    0    0 -0.37595394594E+03 -0.27406808060E+03 -0.43464919590E+03  0.64336889264E+03  0.92460403656E+02 0.  0.
          2    1    3    3  502    0 -0.51438153415E+02  0.23888113353E+03 -0.47978348403E+03  0.53842573410E+03  0.00000000000E+00 0. -1.
         -1    1    3    3    0  502 -0.32582737841E+02  0.16544342913E+02 -0.72298031732E+02  0.81008366728E+02  0.00000000000E+00 0.  1.
         11    1    5    5    0    0  0.35434855166E+03  0.39323149417E+02 -0.52586920667E+03  0.63533269132E+03  0.00000000000E+00 0. -1.
        -11    1    5    5    0    0  0.10562628553E+03 -0.20680545263E+02 -0.23389781524E+03  0.25747385328E+03  0.00000000000E+00 0.  1.
          4    1    6    6  503    0 -0.11906801768E+03 -0.54346924344E+02 -0.16714735040E+03  0.21229464847E+03  0.00000000000E+00 0. -1.
         -4    1    6    6    0  503 -0.25688592825E+03 -0.21972115626E+03 -0.26750184550E+03  0.43107424417E+03  0.00000000000E+00 0.  1.
<mgrwt>
<rscale>  0 0.12634865E+04</rscale>
<asrwt>0</asrwt>
<pdfrwt beam="1">  1        2 0.30016211E+00 0.12634865E+04</pdfrwt>
<pdfrwt beam="2">  1       -1 0.31470137E-01 0.12634865E+04</pdfrwt>
<totfact> 0.74730437E+01</totfact>
</mgrwt>
</event>
<event>
12    6  0.1556619E-007  0.1712270E+04  0.7818608E-02  0.8754397E-01
         -1   -1    0    0    0  501 -0.00000000000E+00  0.00000000000E+00  0.76387458069E+03  0.76387458069E+03  0.00000000000E+00 0.  1.
          2   -1    0    0  501    0  0.00000000000E+00 -0.00000000000E+00 -0.95953882943E+03  0.95953882943E+03  0.00000000000E+00 0. -1.
         24    2    1    2    0    0  0.23073830021E+03 -0.14990688462E+03 -0.61676825867E+03  0.68000863154E+03  0.79349964261E+02 0.  0.
        254    2    1    2    0    0 -0.23073830021E+03  0.14990688462E+03  0.42110400993E+03  0.10434047786E+04  0.91414042002E+03 0.  0.
         23    2    4    4    0    0  0.12090737805E+03 -0.30853257610E+03  0.27557781660E+03  0.44065538059E+03  0.91777376642E+02 0.  0.
         23    2    4    4    0    0 -0.35164567826E+03  0.45843946072E+03  0.14552619334E+03  0.60274939798E+03  0.91145716500E+02 0.  0.
          4    1    3    3  502    0  0.18776551208E+03 -0.15429918773E+03 -0.51575625776E+03  0.57014791438E+03  0.00000000000E+00 0. -1.
         -3    1    3    3    0  502  0.42972788129E+02  0.43923031057E+01 -0.10101200091E+03  0.10986071716E+03  0.00000000000E+00 0.  1.
         11    1    5    5    0    0  0.11157468153E+03 -0.16019790024E+03  0.15627585355E+03  0.25006882893E+03  0.00000000000E+00 0. -1.
        -11    1    5    5    0    0  0.93326965116E+01 -0.14833467586E+03  0.11930196305E+03  0.19058655166E+03  0.00000000000E+00 0.  1.
          1    1    6    6  503    0 -0.29329696602E+03  0.31700115280E+03  0.10415134512E+03  0.44425256763E+03  0.00000000000E+00 0. -1.
         -1    1    6    6    0  503 -0.58348712238E+02  0.14143830792E+03  0.41374848216E+02  0.15849683035E+03  0.00000000000E+00 0.  1.
<mgrwt>
<rscale>  0 0.17122702E+04</rscale>
<asrwt>0</asrwt>
<pdfrwt beam="1">  1        2 0.14762136E+00 0.17122702E+04</pdfrwt>
<pdfrwt beam="2">  1       -1 0.11751917E+00 0.17122702E+04</pdfrwt>
<totfact> 0.18913269E+01</totfact>
</mgrwt>
</event>
<event>
12    6  0.1556619E-007  0.2260808E+04  0.7818608E-02  0.8493536E-01
         -1   -1    0    0    0  501 -0.00000000000E+00  0.00000000000E+00  0.74569923513E+03  0.74569923513E+03  0.00000000000E+00 0.  1.
          2   -1    0    0  501    0  0.00000000000E+00 -0.00000000000E+00 -0.17135764915E+04  0.17135764915E+04  0.00000000000E+00 0. -1.
         24    2    1    2    0    0  0.63380246710E+03 -0.26634626028E+03  0.29707049771E+03  0.75233617731E+03  0.71504862813E+02 0.  0.
        254    2    1    2    0    0 -0.63380246710E+03  0.26634626028E+03 -0.12649477541E+04  0.17069395493E+04  0.91700812802E+03 0.  0.
         23    2    4    4    0    0  0.11173541832E+03  0.43180939635E+02 -0.76012563591E+03  0.77495412276E+03  0.91725202440E+02 0.  0.
         23    2    4    4    0    0 -0.74553788543E+03  0.22316532064E+03 -0.50482211817E+03  0.93198542657E+03  0.90121947417E+02 0.  0.
          2    1    3    3  502    0  0.39636122090E+03 -0.18164970695E+03  0.15355908154E+03  0.46225450241E+03  0.00000000000E+00 0. -1.
         -1    1    3    3    0  502  0.23744124620E+03 -0.84696553324E+02  0.14351141617E+03  0.29008167490E+03  0.00000000000E+00 0.  1.
         11    1    5    5    0    0 -0.12769036177E+02  0.11535922152E+02 -0.17760314298E+03  0.17843486818E+03  0.00000000000E+00 0.  1.
        -11    1    5    5    0    0  0.12450445450E+03  0.31645017483E+02 -0.58252249293E+03  0.59651925458E+03  0.00000000000E+00 0. -1.
          2    1    6    6  503    0 -0.40228384075E+03  0.97090751456E+02 -0.31428234346E+03  0.51964631622E+03  0.00000000000E+00 0. -1.
         -2    1    6    6    0  503 -0.34325404468E+03  0.12607456918E+03 -0.19053977471E+03  0.41233911036E+03  0.00000000000E+00 0.  1.
<mgrwt>
<rscale>  0 0.22608075E+04</rscale>
<asrwt>0</asrwt>
<pdfrwt beam="1">  1        2 0.26362715E+00 0.22608075E+04</pdfrwt>
<pdfrwt beam="2">  1       -1 0.11472296E+00 0.22608075E+04</pdfrwt>
<totfact> 0.68908921E+00</totfact>
</mgrwt>
</event>
<event>
12    6  0.1556619E-007  0.1434300E+04  0.7818608E-02  0.8929358E-01
          2   -1    0    0  501    0  0.00000000000E+00  0.00000000000E+00  0.10696003904E+04  0.10696003904E+04  0.00000000000E+00 0. -1.
         -1   -1    0    0    0  501 -0.00000000000E+00 -0.00000000000E+00 -0.48083784997E+03  0.48083784997E+03  0.00000000000E+00 0.  1.
         24    2    1    2    0    0 -0.35618364212E+03  0.16352645719E+03  0.39251057226E+03  0.55995030386E+03  0.76629657029E+02 0.  0.
        254    2    1    2    0    0  0.35618364212E+03 -0.16352645719E+03  0.19625196818E+03  0.99048793653E+03  0.88822510001E+03 0.  0.
         23    2    4    4    0    0  0.20287615557E+03 -0.24939547385E+03  0.51610045403E+03  0.61481353604E+03  0.90989936607E+02 0.  0.
         23    2    4    4    0    0  0.15330748655E+03  0.85869016660E+02 -0.31984848586E+03  0.37567440049E+03  0.89171339711E+02 0.  0.
          4    1    3    3  502    0 -0.25069310678E+03  0.83552294697E+02  0.22982546461E+03  0.35021102769E+03  0.00000000000E+00 0. -1.
         -3    1    3    3    0  502 -0.10549053534E+03  0.79974162498E+02  0.16268510766E+03  0.20973927617E+03  0.00000000000E+00 0.  1.
         11    1    5    5    0    0  0.36101201469E+02 -0.40907987157E+02  0.35678406712E+02  0.65189791120E+02  0.00000000000E+00 0. -1.
        -11    1    5    5    0    0  0.16677495410E+03 -0.20848748670E+03  0.48042204732E+03  0.54962374492E+03  0.00000000000E+00 0.  1.
          4    1    6    6  503    0  0.63914216339E+02  0.76818564025E+02 -0.21828180870E+03  0.24006887936E+03  0.00000000000E+00 0.  1.
         -4    1    6    6    0  503  0.89393270215E+02  0.90504526353E+01 -0.10156667716E+03  0.13560552113E+03  0.00000000000E+00 0. -1.
<mgrwt>
<rscale>  0 0.14343003E+04</rscale>
<asrwt>0</asrwt>
<pdfrwt beam="1">  1        2 0.16455391E+00 0.14343003E+04</pdfrwt>
<pdfrwt beam="2">  1       -1 0.73975054E-01 0.14343003E+04</pdfrwt>
<totfact> 0.46377793E+01</totfact>
</mgrwt>
</event>
<event>
12    6  0.1556619E-007  0.1211213E+04  0.7818608E-02  0.9103098E-01
         -1   -1    0    0    0  501 -0.00000000000E+00  0.00000000000E+00  0.36581993161E+03  0.36581993161E+03  0.00000000000E+00 0.  1.
          2   -1    0    0  501    0  0.00000000000E+00 -0.00000000000E+00 -0.10025680432E+04  0.10025680432E+04  0.00000000000E+00 0. -1.
         24    2    1    2    0    0  0.46280723760E+02  0.11391121551E+03 -0.40555420118E+03  0.43150618281E+03  0.81275490165E+02 0.  0.
        254    2    1    2    0    0 -0.46280723760E+02 -0.11391121551E+03 -0.23119391039E+03  0.93688179198E+03  0.89954388305E+03 0.  0.
         23    2    4    4    0    0  0.92331503114E+02 -0.45564271217E+03 -0.28541846033E+03  0.55377471128E+03  0.95222611502E+02 0.  0.
         23    2    4    4    0    0 -0.13861222687E+03  0.34173149666E+03  0.54224549941E+02  0.38310708070E+03  0.88526652573E+02 0.  0.
          4    1    3    3  502    0  0.41134202277E+02  0.57258738107E+02 -0.32702275432E+03  0.33453619764E+03  0.00000000000E+00 0. -1.
         -3    1    3    3    0  502  0.51465214828E+01  0.56652477403E+02 -0.78531446857E+02  0.96969985174E+02  0.00000000000E+00 0.  1.
         11    1    5    5    0    0  0.10653253980E+03 -0.30838373210E+03 -0.20610468266E+03  0.38591300635E+03  0.00000000000E+00 0. -1.
        -11    1    5    5    0    0 -0.14201036681E+02 -0.14725898007E+03 -0.79313777670E+02  0.16786170493E+03  0.00000000000E+00 0.  1.
          2    1    6    6  503    0  0.58310598633E+01  0.47184496028E+02 -0.10588658098E+02  0.48708290925E+02  0.00000000000E+00 0.  1.
         -2    1    6    6    0  503 -0.14444328674E+03  0.29454700063E+03  0.64813208039E+02  0.33439878977E+03  0.00000000000E+00 0. -1.
<mgrwt>
<rscale>  0 0.12112132E+04</rscale>
<asrwt>0</asrwt>
<pdfrwt beam="1">  1        2 0.15424124E+00 0.12112132E+04</pdfrwt>
<pdfrwt beam="2">  1       -1 0.56279989E-01 0.12112132E+04</pdfrwt>
<totfact> 0.90154826E+01</totfact>
</mgrwt>
</event>
<event>
12    6  0.1556619E-007  0.1925851E+04  0.7818608E-02  0.8642094E-01
          2   -1    0    0  501    0  0.00000000000E+00  0.00000000000E+00  0.12434563259E+04  0.12434563259E+04  0.00000000000E+00 0. -1.
         -1   -1    0    0    0  501 -0.00000000000E+00 -0.00000000000E+00 -0.74568431224E+03  0.74568431224E+03  0.00000000000E+00 0.  1.
         24    2    1    2    0    0  0.45911034055E+03 -0.31312097094E+03 -0.33322686120E+03  0.65154837038E+03  0.68176907208E+02 0.  0.
        254    2    1    2    0    0 -0.45911034055E+03  0.31312097094E+03  0.83099887482E+03  0.13375922677E+04  0.88868830164E+03 0.  0.
         23    2    4    4    0    0  0.65938413113E+02 -0.10263508025E+03  0.60525995951E+03  0.62499708698E+03  0.96953113007E+02 0.  0.
         23    2    4    4    0    0 -0.52504875366E+03  0.41575605119E+03  0.22573891531E+03  0.71259518074E+03  0.91129281301E+02 0.  0.
          2    1    3    3  502    0  0.26782065739E+03 -0.14241766642E+03 -0.18868699155E+03  0.35723028569E+03  0.00000000000E+00 0. -1.
         -1    1    3    3    0  502  0.19128968316E+03 -0.17070330452E+03 -0.14453986965E+03  0.29431808469E+03  0.00000000000E+00 0.  1.
         11    1    5    5    0    0  0.43552680341E+02 -0.74302180444E+02  0.19526701995E+03  0.21341710115E+03  0.00000000000E+00 0. -1.
        -11    1    5    5    0    0  0.22385732772E+02 -0.28332899802E+02  0.40999293956E+03  0.41157998582E+03  0.00000000000E+00 0.  1.
          4    1    6    6  503    0 -0.24392637831E+03  0.21348321211E+03  0.64220096093E+02  0.33045329569E+03  0.00000000000E+00 0.  1.
         -4    1    6    6    0  503 -0.28112237536E+03  0.20227283907E+03  0.16151881921E+03  0.38214188506E+03  0.00000000000E+00 0. -1.
<mgrwt>
<rscale>  0 0.19258514E+04</rscale>
<asrwt>0</asrwt>
<pdfrwt beam="1">  1        2 0.19130097E+00 0.19258514E+04</pdfrwt>
<pdfrwt beam="2">  1       -1 0.11472066E+00 0.19258514E+04</pdfrwt>
<totfact> 0.13130089E+01</totfact>
</mgrwt>
</event>
<event>
12    6  0.1556619E-007  0.1413275E+04  0.7818608E-02  0.8944265E-01
          2   -1    0    0  501    0  0.00000000000E+00  0.00000000000E+00  0.15894659405E+04  0.15894659405E+04  0.00000000000E+00 0. -1.
         -1   -1    0    0    0  501 -0.00000000000E+00 -0.00000000000E+00 -0.31415353273E+03  0.31415353273E+03  0.00000000000E+00 0.  1.
         24    2    1    2    0    0  0.35178914892E+03 -0.18505479092E+03  0.62425757026E+03  0.74436419342E+03  0.79872758022E+02 0.  0.
        254    2    1    2    0    0 -0.35178914892E+03  0.18505479092E+03  0.65105483748E+03  0.11592552798E+04  0.87292583954E+03 0.  0.
         23    2    4    4    0    0  0.12877269224E+03  0.33572761821E+03  0.56995047115E+02  0.37532411622E+03  0.91237694643E+02 0.  0.
         23    2    4    4    0    0 -0.48056184116E+03 -0.15067282729E+03  0.59405979037E+03  0.78393116356E+03  0.89437411682E+02 0.  0.
          4    1    3    3  502    0  0.87682483216E+02 -0.39725042981E+02  0.21953729045E+03  0.23971424405E+03  0.00000000000E+00 0. -1.
         -3    1    3    3    0  502  0.26410666571E+03 -0.14532974794E+03  0.40472027981E+03  0.50464994937E+03  0.00000000000E+00 0.  1.
         11    1    5    5    0    0 -0.13103850115E+02  0.45974288759E+02  0.14232222572E+02  0.49878876030E+02  0.00000000000E+00 0.  1.
        -11    1    5    5    0    0  0.14187654235E+03  0.28975332945E+03  0.42762824543E+02  0.32544524018E+03  0.00000000000E+00 0. -1.
          4    1    6    6  503    0 -0.18355470401E+03 -0.96912159839E+02  0.20757978894E+03  0.29355351278E+03  0.00000000000E+00 0. -1.
         -4    1    6    6    0  503 -0.29700713715E+03 -0.53760667448E+02  0.38648000142E+03  0.49037765078E+03  0.00000000000E+00 0.  1.
<mgrwt>
<rscale>  0 0.14132747E+04</rscale>
<asrwt>0</asrwt>
<pdfrwt beam="1">  1        2 0.24453322E+00 0.14132747E+04</pdfrwt>
<pdfrwt beam="2">  1       -1 0.48331314E-01 0.14132747E+04</pdfrwt>
<totfact> 0.53614917E+01</totfact>
</mgrwt>
</event>
<event>
12    6  0.1556619E-007  0.2423496E+04  0.7818608E-02  0.8430759E-01
         -1   -1    0    0    0  501 -0.00000000000E+00  0.00000000000E+00  0.66082275297E+03  0.66082275297E+03  0.00000000000E+00 0.  1.
          2   -1    0    0  501    0  0.00000000000E+00 -0.00000000000E+00 -0.22219778282E+04  0.22219778282E+04  0.00000000000E+00 0. -1.
         24    2    1    2    0    0 -0.28136289908E+03  0.50927589273E+03 -0.17077036920E+04  0.18057255980E+04  0.76589945820E+02 0.  0.
        254    2    1    2    0    0  0.28136289908E+03 -0.50927589273E+03  0.14654861681E+03  0.10770749831E+04  0.89447582764E+03 0.  0.
         23    2    4    4    0    0  0.46106526189E+03 -0.37746906938E+03  0.40367748263E+03  0.72562099319E+03  0.92229288834E+02 0.  0.
         23    2    4    4    0    0 -0.17970236281E+03 -0.13180682335E+03 -0.25712886581E+03  0.35145398991E+03  0.87969742007E+02 0.  0.
          4    1    3    3  502    0 -0.27963539208E+03  0.50482597318E+03 -0.17054521010E+04  0.18004477456E+04  0.00000000000E+00 0. -1.
         -3    1    3    3    0  502 -0.17275069984E+01  0.44499195430E+01 -0.22515909661E+01  0.52778524276E+01  0.00000000000E+00 0.  1.
         11    1    5    5    0    0  0.11905446393E+02 -0.76702102450E+01  0.32624589427E+02  0.35565933339E+02  0.00000000000E+00 0.  1.
        -11    1    5    5    0    0  0.44915981549E+03 -0.36979885914E+03  0.37105289320E+03  0.69005505985E+03  0.00000000000E+00 0. -1.
          1    1    6    6  503    0 -0.55620641353E+02 -0.34788171576E+01 -0.95889020753E+02  0.11090744887E+03  0.00000000000E+00 0. -1.
         -1    1    6    6    0  503 -0.12408172145E+03 -0.12832800619E+03 -0.16123984506E+03  0.24054654104E+03  0.00000000000E+00 0.  1.
<mgrwt>
<rscale>  0 0.24234962E+04</rscale>
<asrwt>0</asrwt>
<pdfrwt beam="1">  1        2 0.34184275E+00 0.24234962E+04</pdfrwt>
<pdfrwt beam="2">  1       -1 0.10166504E+00 0.24234962E+04</pdfrwt>
<totfact> 0.47014559E+00</totfact>
</mgrwt>
</event>
<event>
12    6  0.1556619E-007  0.1444613E+04  0.7818608E-02  0.8922144E-01
         -3   -1    0    0    0  501 -0.00000000000E+00  0.00000000000E+00  0.32275221489E+03  0.32275221489E+03  0.00000000000E+00 0.  1.
          2   -1    0    0  501    0  0.00000000000E+00 -0.00000000000E+00 -0.16164930402E+04  0.16164930402E+04  0.00000000000E+00 0. -1.
         24    2    1    2    0    0 -0.52815787229E+02  0.41288511115E+03 -0.30611978126E+03  0.52286014352E+03  0.80061144237E+02 0.  0.
        254    2    1    2    0    0  0.52815787229E+02 -0.41288511115E+03 -0.98762104408E+03  0.14163851116E+04  0.92600639049E+03 0.  0.
         23    2    4    4    0    0  0.26213531621E+03  0.72831775248E+02  0.50971396867E+01  0.28738036690E+03  0.92423497879E+02 0.  0.
         23    2    4    4    0    0 -0.20931952898E+03 -0.48571688640E+03 -0.99271818376E+03  0.11290047447E+04  0.97091514530E+02 0.  0.
          4    1    3    3  502    0 -0.20578623756E+02  0.27555976324E+02 -0.99783315295E+01  0.35810315371E+02  0.00000000000E+00 0. -1.
         -1    1    3    3    0  502 -0.32237163473E+02  0.38532913483E+03 -0.29614144973E+03  0.48704982815E+03  0.00000000000E+00 0.  1.
         11    1    5    5    0    0  0.20031647735E+02  0.25569981441E+02  0.23393250236E+02  0.40029177090E+02  0.00000000000E+00 0. -1.
        -11    1    5    5    0    0  0.24210366847E+03  0.47261793807E+02 -0.18296110549E+02  0.24735118982E+03  0.00000000000E+00 0.  1.
          3    1    6    6  503    0 -0.32344132725E+02 -0.12098715266E+03 -0.31923080420E+03  0.34291739586E+03  0.00000000000E+00 0. -1.
         -3    1    6    6    0  503 -0.17697539625E+03 -0.36472973374E+03 -0.67348737956E+03  0.78608734882E+03  0.00000000000E+00 0.  1.
<mgrwt>
<rscale>  0 0.14446130E+04</rscale>
<asrwt>0</asrwt>
<pdfrwt beam="1">  1        2 0.24869124E+00 0.14446130E+04</pdfrwt>
<pdfrwt beam="2">  1       -3 0.49654187E-01 0.14446130E+04</pdfrwt>
<totfact> 0.27320682E+01</totfact>
</mgrwt>
</event>
<event>
12    6  0.1556619E-007  0.1181492E+04  0.7818608E-02  0.9129213E-01
          2   -1    0    0  501    0  0.00000000000E+00  0.00000000000E+00  0.16517725928E+04  0.16517725928E+04  0.00000000000E+00 0. -1.
         -1   -1    0    0    0  501 -0.00000000000E+00 -0.00000000000E+00 -0.21127655225E+03  0.21127655225E+03  0.00000000000E+00 0.  1.
         24    2    1    2    0    0 -0.92447562935E+01  0.76977581794E+02 -0.53008045068E+02  0.12218665087E+03  0.78158244542E+02 0.  0.
        254    2    1    2    0    0  0.92447562935E+01 -0.76977581794E+02  0.14935040856E+04  0.17408624942E+04  0.89108740102E+03 0.  0.
         23    2    4    4    0    0 -0.26996949191E+03 -0.19919115672E+03  0.13447425031E+04  0.13889513253E+04  0.91064487725E+02 0.  0.
         23    2    4    4    0    0  0.27921424820E+03  0.12221357492E+03  0.14876158248E+03  0.35191116885E+03  0.93886676594E+02 0.  0.
          2    1    3    3  502    0 -0.63878340212E+01  0.11651776053E+02  0.20104921364E+02  0.24099298158E+02  0.00000000000E+00 0. -1.
         -1    1    3    3    0  502 -0.28569222723E+01  0.65325805741E+02 -0.73112966432E+02  0.98087352707E+02  0.00000000000E+00 0.  1.
         11    1    5    5    0    0 -0.12248824907E+03 -0.59015876856E+02  0.69203813426E+03  0.70526805127E+03  0.00000000000E+00 0. -1.
        -11    1    5    5    0    0 -0.14748124284E+03 -0.14017527986E+03  0.65270436888E+03  0.68368327406E+03  0.00000000000E+00 0.  1.
          2    1    6    6  503    0  0.39188562404E+02  0.18352989215E+02  0.63477765595E+02  0.76824490635E+02  0.00000000000E+00 0. -1.
         -2    1    6    6    0  503  0.24002568580E+03  0.10386058571E+03  0.85283816887E+02  0.27508667821E+03  0.00000000000E+00 0.  1.
<mgrwt>
<rscale>  0 0.11814920E+04</rscale>
<asrwt>0</asrwt>
<pdfrwt beam="1">  1        2 0.25411885E+00 0.11814920E+04</pdfrwt>
<pdfrwt beam="2">  1       -1 0.32504086E-01 0.11814920E+04</pdfrwt>
<totfact> 0.10396671E+02</totfact>
</mgrwt>
</event>
<event>
12    6  0.1556619E-007  0.1329271E+04  0.7818608E-02  0.9006670E-01
          2   -1    0    0  501    0  0.00000000000E+00  0.00000000000E+00  0.18546820302E+03  0.18546820302E+03  0.00000000000E+00 0. -1.
         -1   -1    0    0    0  501 -0.00000000000E+00 -0.00000000000E+00 -0.23817564450E+04  0.23817564450E+04  0.00000000000E+00 0.  1.
         24    2    1    2    0    0 -0.25530855464E+02 -0.21983062341E+03 -0.11125068250E+04  0.11373630460E+04  0.83342277280E+02 0.  0.
        254    2    1    2    0    0  0.25530855464E+02  0.21983062341E+03 -0.10837814170E+04  0.14298616021E+04  0.90605999446E+03 0.  0.
         23    2    4    4    0    0 -0.79734656489E+02 -0.41991511977E+02  0.12913235913E+03  0.18138674080E+03  0.90028223580E+02 0.  0.
         23    2    4    4    0    0  0.10526551195E+03  0.26182213539E+03 -0.12129137762E+04  0.12484748612E+04  0.88870648671E+02 0.  0.
          2    1    3    3  502    0  0.14673101558E+02 -0.38470127804E+02 -0.10332029659E+03  0.11122200471E+03  0.00000000000E+00 0. -1.
         -3    1    3    3    0  502 -0.40203957022E+02 -0.18136049561E+03 -0.10091865284E+04  0.10261410413E+04  0.00000000000E+00 0.  1.
         11    1    5    5    0    0 -0.43199027634E+02 -0.47189083072E+02  0.21322932538E+02  0.67436140175E+02  0.00000000000E+00 0. -1.
        -11    1    5    5    0    0 -0.36535628854E+02  0.51975710942E+01  0.10780942659E+03  0.11395060063E+03  0.00000000000E+00 0.  1.
          1    1    6    6  503    0 -0.68329934746E+01 -0.35847544970E+01 -0.34522994233E+02  0.35374813010E+02  0.00000000000E+00 0. -1.
         -1    1    6    6    0  503  0.11209850543E+03  0.26540688989E+03 -0.11783907819E+04  0.12131000482E+04  0.00000000000E+00 0.  1.
<mgrwt>
<rscale>  0 0.13292706E+04</rscale>
<asrwt>0</asrwt>
<pdfrwt beam="1">  1        2 0.28533571E-01 0.13292706E+04</pdfrwt>
<pdfrwt beam="2">  1       -1 0.36642405E+00 0.13292706E+04</pdfrwt>
<totfact> 0.25780338E+00</totfact>
</mgrwt>
</event>
<event>
12    6  0.1556619E-007  0.1444322E+04  0.7818608E-02  0.8922346E-01
         -1   -1    0    0    0  501 -0.00000000000E+00  0.00000000000E+00  0.55289640832E+03  0.55289640832E+03  0.00000000000E+00 0.  1.
          2   -1    0    0  501    0  0.00000000000E+00 -0.00000000000E+00 -0.94324516782E+03  0.94324516782E+03  0.00000000000E+00 0. -1.
         24    2    1    2    0    0 -0.18460879022E+03  0.39069863462E+03 -0.75118480595E+02  0.44597058047E+03  0.80753600549E+02 0.  0.
        254    2    1    2    0    0  0.18460879022E+03 -0.39069863462E+03 -0.31523027891E+03  0.10501709957E+04  0.90374950228E+03 0.  0.
         23    2    4    4    0    0  0.39970229952E+03 -0.54606802422E+03 -0.87803391639E+02  0.68845740261E+03  0.91169865140E+02 0.  0.
         23    2    4    4    0    0 -0.21509350931E+03  0.15536938960E+03 -0.22742688727E+03  0.36171359305E+03  0.93321323262E+02 0.  0.
          4    1    3    3  502    0  0.78879832613E+01  0.81392769563E+01 -0.16276900586E+01  0.11450654314E+02  0.00000000000E+00 0. -1.
         -3    1    3    3    0  502 -0.19249677348E+03  0.38255935766E+03 -0.73490790536E+02  0.43451992616E+03  0.00000000000E+00 0.  1.
         11    1    5    5    0    0  0.18211030285E+03 -0.31225580913E+03 -0.20597529156E+02  0.36206644549E+03  0.00000000000E+00 0. -1.
        -11    1    5    5    0    0  0.21759199667E+03 -0.23381221508E+03 -0.67205862483E+02  0.32639095712E+03  0.00000000000E+00 0.  1.
          1    1    6    6  503    0  0.54144269495E+01 -0.52419435160E+01 -0.11729972208E+02  0.13942246556E+02  0.00000000000E+00 0. -1.
         -1    1    6    6    0  503 -0.22050793626E+03  0.16061133311E+03 -0.21569691506E+03  0.34777134650E+03  0.00000000000E+00 0.  1.
<mgrwt>
<rscale>  0 0.14443225E+04</rscale>
<asrwt>0</asrwt>
<pdfrwt beam="1">  1        2 0.14511464E+00 0.14443225E+04</pdfrwt>
<pdfrwt beam="2">  1       -1 0.85060987E-01 0.14443225E+04</pdfrwt>
<totfact> 0.41524006E+01</totfact>
</mgrwt>
</event>
<event>
12    6  0.1556619E-007  0.1340499E+04  0.7818608E-02  0.8998052E-01
         -1   -1    0    0    0  501 -0.00000000000E+00  0.00000000000E+00  0.31215044038E+03  0.31215044038E+03  0.00000000000E+00 0.  1.
          2   -1    0    0  501    0  0.00000000000E+00 -0.00000000000E+00 -0.14391597052E+04  0.14391597052E+04  0.00000000000E+00 0. -1.
         24    2    1    2    0    0 -0.38217257004E+02 -0.25004548566E+03  0.37728844598E+02  0.26779910119E+03  0.79432922942E+02 0.  0.
        254    2    1    2    0    0  0.38217257004E+02  0.25004548566E+03 -0.11647381094E+04  0.14835110444E+04  0.88329318557E+03 0.  0.
         23    2    4    4    0    0  0.37124223569E+03 -0.37327637241E+02 -0.23412194881E+03  0.45046075425E+03  0.94274355673E+02 0.  0.
         23    2    4    4    0    0 -0.33302497869E+03  0.28737312291E+03 -0.93061616063E+03  0.10330502902E+04  0.87507230502E+02 0.  0.
          2    1    3    3  502    0 -0.43081439744E+02 -0.82246621006E+02  0.36946904303E+02  0.99927928303E+02  0.00000000000E+00 0. -1.
         -1    1    3    3    0  502  0.48641827401E+01 -0.16779886466E+03  0.78194029489E+00  0.16787117288E+03  0.00000000000E+00 0.  1.
         11    1    5    5    0    0  0.14104599578E+02  0.49862695845E+01 -0.37969240201E+02  0.40810119028E+02  0.00000000000E+00 0.  1.
        -11    1    5    5    0    0  0.35713763611E+03 -0.42313906826E+02 -0.19615270861E+03  0.40965063522E+03  0.00000000000E+00 0. -1.
          1    1    6    6  503    0 -0.24989783241E+03  0.23654906924E+03 -0.64154057346E+03  0.72799635727E+03  0.00000000000E+00 0. -1.
         -1    1    6    6    0  503 -0.83127146273E+02  0.50824053670E+02 -0.28907558716E+03  0.30505393289E+03  0.00000000000E+00 0.  1.
<mgrwt>
<rscale>  0 0.13404989E+04</rscale>
<asrwt>0</asrwt>
<pdfrwt beam="1">  1        2 0.22140919E+00 0.13404989E+04</pdfrwt>
<pdfrwt beam="2">  1       -1 0.48023143E-01 0.13404989E+04</pdfrwt>
<totfact> 0.66327567E+01</totfact>
</mgrwt>
</event>
<event>
12    6  0.1556619E-007  0.1260920E+04  0.7818608E-02  0.9061143E-01
         -1   -1    0    0    0  501 -0.00000000000E+00  0.00000000000E+00  0.18588115658E+03  0.18588115658E+03  0.00000000000E+00 0.  1.
          2   -1    0    0  501    0  0.00000000000E+00 -0.00000000000E+00 -0.21383557446E+04  0.21383557446E+04  0.00000000000E+00 0. -1.
         24    2    1    2    0    0  0.57673409000E+01 -0.38095617792E+02 -0.10425451645E+04  0.10463286629E+04  0.80116866318E+02 0.  0.
        254    2    1    2    0    0 -0.57673409000E+01  0.38095617792E+02 -0.90992942346E+03  0.12779082383E+04  0.89643369614E+03 0.  0.
         23    2    4    4    0    0 -0.73235866251E+02  0.45044710828E+02 -0.10719422542E+04  0.10795072326E+04  0.94250468185E+02 0.  0.
         23    2    4    4    0    0  0.67468525351E+02 -0.69490930358E+01  0.16201283078E+03  0.19840100571E+03  0.92274102118E+02 0.  0.
          2    1    3    3  502    0 -0.18594611640E+02 -0.55684240310E+02 -0.66070265611E+03  0.66330573191E+03  0.00000000000E+00 0. -1.
         -1    1    3    3    0  502  0.24361952540E+02  0.17588622518E+02 -0.38184250844E+03  0.38302293094E+03  0.00000000000E+00 0.  1.
         11    1    5    5    0    0 -0.56315765664E+02 -0.80610580655E+01 -0.79377511408E+03  0.79581114459E+03  0.00000000000E+00 0.  1.
        -11    1    5    5    0    0 -0.16920100588E+02  0.53105768893E+02 -0.27816714016E+03  0.28369608802E+03  0.00000000000E+00 0. -1.
          3    1    6    6  503    0  0.17773550116E+02 -0.45971020205E+02  0.89890382845E+02  0.10251592418E+03  0.00000000000E+00 0. -1.
         -3    1    6    6    0  503  0.49694975235E+02  0.39021927170E+02  0.72122447937E+02  0.95885081530E+02  0.00000000000E+00 0.  1.
<mgrwt>
<rscale>  0 0.12609204E+04</rscale>
<asrwt>0</asrwt>
<pdfrwt beam="1">  1        2 0.32897779E+00 0.12609204E+04</pdfrwt>
<pdfrwt beam="2">  1       -1 0.28597103E-01 0.12609204E+04</pdfrwt>
<totfact> 0.69607812E+01</totfact>
</mgrwt>
</event>
<event>
12    6  0.1556619E-007  0.1283895E+04  0.7818608E-02  0.9042435E-01
          2   -1    0    0  501    0  0.00000000000E+00  0.00000000000E+00  0.58101604178E+03  0.58101604178E+03  0.00000000000E+00 0. -1.
         -3   -1    0    0    0  501 -0.00000000000E+00 -0.00000000000E+00 -0.70926863666E+03  0.70926863666E+03  0.00000000000E+00 0.  1.
         24    2    1    2    0    0  0.91990012559E+02  0.63719246376E+02  0.26984077897E+03  0.30278722642E+03  0.79647684956E+02 0.  0.
        254    2    1    2    0    0 -0.91990012559E+02 -0.63719246376E+02 -0.39809337385E+03  0.98749745202E+03  0.89674443331E+03 0.  0.
         23    2    4    4    0    0 -0.41941724733E+03  0.32593579843E+02 -0.45817184824E+03  0.62882587879E+03  0.92343784317E+02 0.  0.
         23    2    4    4    0    0  0.32742723478E+03 -0.96312826219E+02  0.60078474398E+02  0.35867157323E+03  0.92472264970E+02 0.  0.
          2    1    3    3  502    0  0.85675820319E+02  0.53238741961E+02  0.27223324910E+03  0.29031991277E+03  0.00000000000E+00 0. -1.
         -1    1    3    3    0  502  0.63141922397E+01  0.10480504414E+02 -0.23924701300E+01  0.12467313654E+02  0.00000000000E+00 0.  1.
         11    1    5    5    0    0 -0.61497316928E+02  0.11178478066E+02 -0.12316333056E+03  0.13811619875E+03  0.00000000000E+00 0.  1.
        -11    1    5    5    0    0 -0.35791993041E+03  0.21415101777E+02 -0.33500851768E+03  0.49070968004E+03  0.00000000000E+00 0. -1.
          1    1    6    6  503    0  0.16787274554E+03 -0.20909129972E+01  0.19832112819E+02  0.16905307839E+03  0.00000000000E+00 0. -1.
         -1    1    6    6    0  503  0.15955448923E+03 -0.94221913221E+02  0.40246361579E+02  0.18961849484E+03  0.00000000000E+00 0.  1.
<mgrwt>
<rscale>  0 0.12838948E+04</rscale>
<asrwt>0</asrwt>
<pdfrwt beam="1">  1        2 0.89387083E-01 0.12838948E+04</pdfrwt>
<pdfrwt beam="2">  1       -3 0.10911825E+00 0.12838948E+04</pdfrwt>
<totfact> 0.22659894E+01</totfact>
</mgrwt>
</event>
<event>
12    6  0.1556619E-007  0.2532264E+04  0.7818608E-02  0.8391581E-01
          2   -1    0    0  501    0  0.00000000000E+00  0.00000000000E+00  0.25281157052E+04  0.25281157052E+04  0.00000000000E+00 0. -1.
         -1   -1    0    0    0  501 -0.00000000000E+00 -0.00000000000E+00 -0.63410496160E+03  0.63410496160E+03  0.00000000000E+00 0.  1.
         24    2    1    2    0    0 -0.11044856760E+04 -0.15583336814E+02  0.88983554429E+03  0.14206237981E+04  0.78950814230E+02 0.  0.
        254    2    1    2    0    0  0.11044856760E+04  0.15583336814E+02  0.10041751993E+04  0.17415968687E+04  0.89702863577E+03 0.  0.
         23    2    4    4    0    0  0.75170369795E+03 -0.40492644372E+03  0.51717534158E+03  0.10023355775E+04  0.90456628950E+02 0.  0.
         23    2    4    4    0    0  0.35278197802E+03  0.42050978053E+03  0.48699985776E+03  0.73926129119E+03  0.89748513410E+02 0.  0.
          2    1    3    3  502    0 -0.10790856586E+04 -0.10214692638E+02  0.88135845353E+03  0.13933136482E+04  0.00000000000E+00 0. -1.
         -3    1    3    3    0  502 -0.25400017355E+02 -0.53686441759E+01  0.84770907606E+01  0.27310149938E+02  0.00000000000E+00 0.  1.
         11    1    5    5    0    0  0.17972901350E+03 -0.61112750609E+02  0.91089363965E+02  0.21055773272E+03  0.00000000000E+00 0. -1.
        -11    1    5    5    0    0  0.57197468445E+03 -0.34381369311E+03  0.42608597761E+03  0.79177784481E+03  0.00000000000E+00 0.  1.
          1    1    6    6  503    0 -0.30444408840E+01  0.62210443273E+01  0.18380633950E+02  0.19642243182E+02  0.00000000000E+00 0. -1.
         -1    1    6    6    0  503  0.35582641890E+03  0.41428873620E+03  0.46861922381E+03  0.71961904801E+03  0.00000000000E+00 0.  1.
<mgrwt>
<rscale>  0 0.25322644E+04</rscale>
<asrwt>0</asrwt>
<pdfrwt beam="1">  1        2 0.38894087E+00 0.25322644E+04</pdfrwt>
<pdfrwt beam="2">  1       -1 0.97554611E-01 0.25322644E+04</pdfrwt>
<totfact> 0.34196173E+00</totfact>
</mgrwt>
</event>
<event>
12    6  0.1556619E-007  0.1642390E+04  0.7818608E-02  0.8794922E-01
         -1   -1    0    0    0  501 -0.00000000000E+00  0.00000000000E+00  0.47941906316E+03  0.47941906316E+03  0.00000000000E+00 0.  1.
          2   -1    0    0  501    0  0.00000000000E+00 -0.00000000000E+00 -0.14066208194E+04  0.14066208194E+04  0.00000000000E+00 0. -1.
         24    2    1    2    0    0 -0.38811329791E+02 -0.45954130983E+03 -0.70934586572E+03  0.84974440211E+03  0.78800107485E+02 0.  0.
        254    2    1    2    0    0  0.38811329791E+02  0.45954130983E+03 -0.21785589054E+03  0.10362954805E+04  0.90208791093E+03 0.  0.
         23    2    4    4    0    0  0.24395178558E+03  0.56435930144E+03  0.10391696780E+03  0.63013329024E+03  0.90858860120E+02 0.  0.
         23    2    4    4    0    0 -0.20514045579E+03 -0.10481799161E+03 -0.32177285834E+03  0.40616219023E+03  0.91435958150E+02 0.  0.
          4    1    3    3  502    0 -0.46509451206E+02 -0.45087204198E+03 -0.67148884007E+03  0.81015183123E+03  0.00000000000E+00 0. -1.
         -3    1    3    3    0  502  0.76981214147E+01 -0.86692678457E+01 -0.37857025648E+02  0.39592570884E+02  0.00000000000E+00 0.  1.
         11    1    5    5    0    0  0.70560913585E+02  0.19398303319E+03 -0.65538624359E+01  0.20652170056E+03  0.00000000000E+00 0. -1.
        -11    1    5    5    0    0  0.17339087199E+03  0.37037626826E+03  0.11047083024E+03  0.42361158968E+03  0.00000000000E+00 0.  1.
          1    1    6    6  503    0  0.86224475259E+01 -0.11682700399E+02 -0.22475929259E+02  0.26758166716E+02  0.00000000000E+00 0. -1.
         -1    1    6    6    0  503 -0.21376290331E+03 -0.93135291216E+02 -0.29929692908E+03  0.37940402351E+03  0.00000000000E+00 0.  1.
<mgrwt>
<rscale>  0 0.16423895E+04</rscale>
<asrwt>0</asrwt>
<pdfrwt beam="1">  1        2 0.21640320E+00 0.16423895E+04</pdfrwt>
<pdfrwt beam="2">  1       -1 0.73756780E-01 0.16423895E+04</pdfrwt>
<totfact> 0.28932933E+01</totfact>
</mgrwt>
</event>
<event>
12    6  0.1556619E-007  0.1365763E+04  0.7818608E-02  0.8978981E-01
         -1   -1    0    0    0  501 -0.00000000000E+00  0.00000000000E+00  0.87483839790E+03  0.87483839790E+03  0.00000000000E+00 0.  1.
          2   -1    0    0  501    0  0.00000000000E+00 -0.00000000000E+00 -0.53304350647E+03  0.53304350647E+03  0.00000000000E+00 0. -1.
         24    2    1    2    0    0 -0.30074424949E+02  0.13562579067E+03  0.45849875362E+03  0.48618854084E+03  0.82821277689E+02 0.  0.
        254    2    1    2    0    0  0.30074424949E+02 -0.13562579067E+03 -0.11670386220E+03  0.92169336353E+03  0.90365924928E+03 0.  0.
         23    2    4    4    0    0 -0.60510676379E+02 -0.50230750660E+03 -0.13679147175E+03  0.53276086374E+03  0.95644435521E+02 0.  0.
         23    2    4    4    0    0  0.90585101328E+02  0.36668171593E+03  0.20087609556E+02  0.38893249979E+03  0.90575029409E+02 0.  0.
          4    1    3    3  502    0  0.19092690046E+02  0.46631542785E+01  0.34450787352E+02  0.39662735284E+02  0.00000000000E+00 0. -1.
         -3    1    3    3    0  502 -0.49167114995E+02  0.13096263639E+03  0.42404796627E+03  0.44652580556E+03  0.00000000000E+00 0.  1.
         11    1    5    5    0    0  0.86261226533E+01 -0.17618070003E+03 -0.12014816836E+02  0.17680046629E+03  0.00000000000E+00 0.  1.
        -11    1    5    5    0    0 -0.69136799032E+02 -0.32612680657E+03 -0.12477665492E+03  0.35596039746E+03  0.00000000000E+00 0. -1.
          1    1    6    6  503    0  0.60351347868E+02  0.34097676377E+03  0.45253062569E+01  0.34630610307E+03  0.00000000000E+00 0. -1.
         -1    1    6    6    0  503  0.30233753460E+02  0.25704952160E+02  0.15562303299E+02  0.42626396725E+02  0.00000000000E+00 0.  1.
<mgrwt>
<rscale>  0 0.13657627E+04</rscale>
<asrwt>0</asrwt>
<pdfrwt beam="1">  1        2 0.82006693E-01 0.13657627E+04</pdfrwt>
<pdfrwt beam="2">  1       -1 0.13459052E+00 0.13657627E+04</pdfrwt>
<totfact> 0.29590827E+01</totfact>
</mgrwt>
</event>
<event>
12    6  0.1556619E-007  0.1530477E+04  0.7818608E-02  0.8864435E-01
         -1   -1    0    0    0  501 -0.00000000000E+00  0.00000000000E+00  0.64712948698E+03  0.64712948698E+03  0.00000000000E+00 0.  1.
          2   -1    0    0  501    0  0.00000000000E+00 -0.00000000000E+00 -0.90490393772E+03  0.90490393772E+03  0.00000000000E+00 0. -1.
         24    2    1    2    0    0 -0.71994637285E+02  0.61593119296E+02 -0.57833701375E+03  0.59152444933E+03  0.80315207416E+02 0.  0.
        254    2    1    2    0    0  0.71994637285E+02 -0.61593119296E+02  0.32056256301E+03  0.96050897537E+03  0.90046665392E+03 0.  0.
         23    2    4    4    0    0  0.43011815874E+03 -0.59002558042E+02 -0.38331816516E+02  0.44502243028E+03  0.89959451768E+02 0.  0.
         23    2    4    4    0    0 -0.35812352146E+03 -0.25905612540E+01  0.35889437952E+03  0.51548654509E+03  0.93070053634E+02 0.  0.
          2    1    3    3  502    0 -0.72174371781E+02  0.48354991901E+02 -0.56832236220E+03  0.57492404069E+03  0.00000000000E+00 0. -1.
         -1    1    3    3    0  502  0.17973449534E+00  0.13238127396E+02 -0.10014651543E+02  0.16600408639E+02  0.00000000000E+00 0.  1.
         11    1    5    5    0    0  0.19656769588E+03 -0.47399535575E+02  0.22364833094E+02  0.20343490555E+03  0.00000000000E+00 0.  1.
        -11    1    5    5    0    0  0.23355046286E+03 -0.11603022468E+02 -0.60696649609E+02  0.24158752474E+03  0.00000000000E+00 0. -1.
          2    1    6    6  503    0 -0.21552342642E+03  0.25882829084E+02  0.16269765221E+03  0.27127623230E+03  0.00000000000E+00 0. -1.
         -2    1    6    6    0  503 -0.14260009504E+03 -0.28473390338E+02  0.19619672731E+03  0.24421031278E+03  0.00000000000E+00 0.  1.
<mgrwt>
<rscale>  0 0.15304771E+04</rscale>
<asrwt>0</asrwt>
<pdfrwt beam="1">  1        2 0.13921599E+00 0.15304771E+04</pdfrwt>
<pdfrwt beam="2">  1       -1 0.99558383E-01 0.15304771E+04</pdfrwt>
<totfact> 0.30832299E+01</totfact>
</mgrwt>
</event>
<event>
12    6  0.1556619E-007  0.1961093E+04  0.7818608E-02  0.8625030E-01
         -1   -1    0    0    0  501 -0.00000000000E+00  0.00000000000E+00  0.72668456698E+03  0.72668456698E+03  0.00000000000E+00 0.  1.
          2   -1    0    0  501    0  0.00000000000E+00 -0.00000000000E+00 -0.13230933508E+04  0.13230933508E+04  0.00000000000E+00 0. -1.
         24    2    1    2    0    0  0.19481467819E+02  0.73588625123E+03 -0.47749580295E+03  0.88101585833E+03  0.79237607653E+02 0.  0.
        254    2    1    2    0    0 -0.19481467819E+02 -0.73588625123E+03 -0.11891298089E+03  0.11687620595E+04  0.89997575093E+03 0.  0.
         23    2    4    4    0    0  0.11791816777E+03 -0.90465519986E+03 -0.38565232935E+02  0.91777730907E+03  0.92315691658E+02 0.  0.
         23    2    4    4    0    0 -0.13739963559E+03  0.16876894863E+03 -0.80347747950E+02  0.25098475039E+03  0.95791264967E+02 0.  0.
          2    1    3    3  502    0  0.28796388969E+02  0.49408423646E+03 -0.27976331274E+03  0.56852086672E+03  0.00000000000E+00 0. -1.
         -1    1    3    3    0  502 -0.93149211504E+01  0.24180201477E+03 -0.19773249021E+03  0.31249499162E+03  0.00000000000E+00 0.  1.
         11    1    5    5    0    0  0.55039724621E+02 -0.15145984692E+03 -0.72565683613E+01  0.16131371392E+03  0.00000000000E+00 0.  1.
        -11    1    5    5    0    0  0.62878443151E+02 -0.75319535294E+03 -0.31308664574E+02  0.75646359514E+03  0.00000000000E+00 0. -1.
          3    1    6    6  503    0 -0.81962523694E+02  0.14530326383E+03 -0.90722178615E+02  0.18989841353E+03  0.00000000000E+00 0. -1.
         -3    1    6    6    0  503 -0.55437111896E+02  0.23465684799E+02  0.10374430665E+02  0.61086336853E+02  0.00000000000E+00 0.  1.
<mgrwt>
<rscale>  0 0.19610931E+04</rscale>
<asrwt>0</asrwt>
<pdfrwt beam="1">  1        2 0.20355282E+00 0.19610931E+04</pdfrwt>
<pdfrwt beam="2">  1       -1 0.11179763E+00 0.19610931E+04</pdfrwt>
<totfact> 0.12504120E+01</totfact>
</mgrwt>
</event>
<event>
12    6  0.1556619E-007  0.1833237E+04  0.7818608E-02  0.8688821E-01
          2   -1    0    0  501    0  0.00000000000E+00  0.00000000000E+00  0.12423208007E+04  0.12423208007E+04  0.00000000000E+00 0. -1.
         -1   -1    0    0    0  501 -0.00000000000E+00 -0.00000000000E+00 -0.67630664658E+03  0.67630664658E+03  0.00000000000E+00 0.  1.
         24    2    1    2    0    0  0.85245435110E+02 -0.21559095322E+02  0.85155405161E+03  0.85976345734E+03  0.79481576192E+02 0.  0.
        254    2    1    2    0    0 -0.85245435110E+02  0.21559095322E+02 -0.28553989745E+03  0.10588639900E+04  0.10158387360E+04 0.  0.
         23    2    4    4    0    0 -0.35025933318E+03  0.40347826158E+03 -0.10480509002E+03  0.55190578163E+03  0.90219603464E+02 0.  0.
         23    2    4    4    0    0  0.26501389807E+03 -0.38191916626E+03 -0.18073480743E+03  0.50695820837E+03  0.90812657065E+02 0.  0.
          2    1    3    3  502    0  0.78824003415E+02 -0.47251643230E+02  0.67811869616E+03  0.68431784091E+03  0.00000000000E+00 0. -1.
         -1    1    3    3    0  502  0.64214316954E+01  0.25692547908E+02  0.17343535545E+03  0.17544561643E+03  0.00000000000E+00 0.  1.
         11    1    5    5    0    0 -0.22080943939E+02  0.56827410398E+02 -0.32554746653E+02  0.69113921806E+02  0.00000000000E+00 0. -1.
        -11    1    5    5    0    0 -0.32817838925E+03  0.34665085119E+03 -0.72250343370E+02  0.48279185983E+03  0.00000000000E+00 0.  1.
          4    1    6    6  503    0  0.25687455693E+02 -0.44849304605E+01 -0.16301981418E+02  0.30752472735E+02  0.00000000000E+00 0. -1.
         -4    1    6    6    0  503  0.23932644238E+03 -0.37743423580E+03 -0.16443282601E+03  0.47620573563E+03  0.00000000000E+00 0.  1.
<mgrwt>
<rscale>  0 0.18332374E+04</rscale>
<asrwt>0</asrwt>
<pdfrwt beam="1">  1        2 0.19112628E+00 0.18332374E+04</pdfrwt>
<pdfrwt beam="2">  1       -1 0.10404718E+00 0.18332374E+04</pdfrwt>
<totfact> 0.16687401E+01</totfact>
</mgrwt>
</event>
<event>
12    6  0.1556619E-007  0.1920247E+04  0.7818608E-02  0.8644843E-01
         -1   -1    0    0    0  501 -0.00000000000E+00  0.00000000000E+00  0.10780743461E+04  0.10780743461E+04  0.00000000000E+00 0.  1.
          2   -1    0    0  501    0  0.00000000000E+00 -0.00000000000E+00 -0.85507747699E+03  0.85507747699E+03  0.00000000000E+00 0. -1.
         24    2    1    2    0    0  0.26034916388E+03 -0.21568646796E+03 -0.57624450341E+03  0.67300838550E+03  0.81118553013E+02 0.  0.
        254    2    1    2    0    0 -0.26034916388E+03  0.21568646796E+03  0.79924137254E+03  0.12601434376E+04  0.91371350662E+03 0.  0.
         23    2    4    4    0    0 -0.24146074745E+03 -0.32723020410E+03  0.27201263673E+03  0.49776498710E+03  0.91630828914E+02 0.  0.
         23    2    4    4    0    0 -0.18888416436E+02  0.54291667206E+03  0.52722873581E+03  0.76237845051E+03  0.90196878322E+02 0.  0.
          2    1    3    3  502    0  0.20070928776E+03 -0.15929952236E+03 -0.49570019341E+03  0.55801365374E+03  0.00000000000E+00 0. -1.
         -1    1    3    3    0  502  0.59639876118E+02 -0.56386945598E+02 -0.80544310004E+02  0.11499473175E+03  0.00000000000E+00 0.  1.
         11    1    5    5    0    0 -0.12324317292E+03 -0.92795932082E+02  0.10407009509E+03  0.18609285149E+03  0.00000000000E+00 0.  1.
        -11    1    5    5    0    0 -0.11821757452E+03 -0.23443427202E+03  0.16794254164E+03  0.31167213561E+03  0.00000000000E+00 0. -1.
          4    1    6    6  503    0 -0.49544560352E+02  0.43465677090E+03  0.43442192530E+03  0.61652540997E+03  0.00000000000E+00 0. -1.
         -4    1    6    6    0  503  0.30656143916E+02  0.10825990116E+03  0.92806810513E+02  0.14585304055E+03  0.00000000000E+00 0.  1.
<mgrwt>
<rscale>  0 0.19202470E+04</rscale>
<asrwt>0</asrwt>
<pdfrwt beam="1">  1        2 0.13155038E+00 0.19202470E+04</pdfrwt>
<pdfrwt beam="2">  1       -1 0.16585759E+00 0.19202470E+04</pdfrwt>
<totfact> 0.88706207E+00</totfact>
</mgrwt>
</event>
<event>
12    6  0.1556619E-007  0.2030309E+04  0.7818608E-02  0.8592580E-01
          2   -1    0    0  501    0  0.00000000000E+00  0.00000000000E+00  0.21260450918E+04  0.21260450918E+04  0.00000000000E+00 0. -1.
         -1   -1    0    0    0  501 -0.00000000000E+00 -0.00000000000E+00 -0.48472078930E+03  0.48472078930E+03  0.00000000000E+00 0.  1.
         24    2    1    2    0    0  0.69421001765E+03 -0.34380861533E+03  0.95710564285E+03  0.12340125318E+04  0.81263795303E+02 0.  0.
        254    2    1    2    0    0 -0.69421001765E+03  0.34380861533E+03  0.68421865961E+03  0.13767533493E+04  0.90948485309E+03 0.  0.
         23    2    4    4    0    0  0.12068425075E+03  0.53653080078E+02  0.44778102460E+03  0.47529012968E+03  0.89160080748E+02 0.  0.
         23    2    4    4    0    0 -0.81489426840E+03  0.29015553525E+03  0.23643763502E+03  0.90146321960E+03  0.92142703032E+02 0.  0.
          2    1    3    3  502    0  0.31705884350E+02 -0.19550874827E+02  0.78147273272E+02  0.86570757931E+02  0.00000000000E+00 0. -1.
         -1    1    3    3    0  502  0.66250413330E+03 -0.32425774050E+03  0.87895836957E+03  0.11474417738E+04  0.00000000000E+00 0.  1.
         11    1    5    5    0    0  0.26880414223E+01  0.27723000277E+02  0.32546759125E+02  0.42837855229E+02  0.00000000000E+00 0. -1.
        -11    1    5    5    0    0  0.11799620933E+03  0.25930079801E+02  0.41523426547E+03  0.43245227445E+03  0.00000000000E+00 0.  1.
          2    1    6    6  503    0 -0.59028785471E+03  0.19041826864E+03  0.20740196945E+03  0.65399881145E+03  0.00000000000E+00 0. -1.
         -2    1    6    6    0  503 -0.22460641370E+03  0.99737266611E+02  0.29035665561E+02  0.24746440815E+03  0.00000000000E+00 0.  1.
<mgrwt>
<rscale>  0 0.20303086E+04</rscale>
<asrwt>0</asrwt>
<pdfrwt beam="1">  1        2 0.32708385E+00 0.20303086E+04</pdfrwt>
<pdfrwt beam="2">  1       -1 0.74572430E-01 0.20303086E+04</pdfrwt>
<totfact> 0.10847054E+01</totfact>
</mgrwt>
</event>
<event>
12    6  0.1556619E-007  0.2322956E+04  0.7818608E-02  0.8468925E-01
         -1   -1    0    0    0  501 -0.00000000000E+00  0.00000000000E+00  0.36530120673E+03  0.36530120673E+03  0.00000000000E+00 0.  1.
          2   -1    0    0  501    0  0.00000000000E+00 -0.00000000000E+00 -0.36929269449E+04  0.36929269449E+04  0.00000000000E+00 0. -1.
         24    2    1    2    0    0 -0.31602606436E+03 -0.84049628538E+03 -0.69654985445E+03  0.11392540252E+04  0.80072186876E+02 0.  0.
        254    2    1    2    0    0  0.31602606436E+03  0.84049628538E+03 -0.26310758838E+04  0.29189741265E+04  0.88968711683E+03 0.  0.
         23    2    4    4    0    0  0.57799409316E+03  0.72253894751E+03 -0.16663460394E+04  0.19082402380E+04  0.92368721458E+02 0.  0.
         23    2    4    4    0    0 -0.26196802880E+03  0.11795733787E+03 -0.96472984439E+03  0.10107338884E+04  0.91313410500E+02 0.  0.
          2    1    3    3  502    0 -0.79519401657E+02 -0.29498595385E+03 -0.26705088097E+03  0.40577853718E+03  0.00000000000E+00 0. -1.
         -1    1    3    3    0  502 -0.23650666270E+03 -0.54551033153E+03 -0.42949897348E+03  0.73347548802E+03  0.00000000000E+00 0.  1.
         11    1    5    5    0    0  0.53000671462E+03  0.69568901483E+03 -0.15556696098E+04  0.17846563416E+04  0.00000000000E+00 0. -1.
        -11    1    5    5    0    0  0.47987378539E+02  0.26849932680E+02 -0.11067642957E+03  0.12358389638E+03  0.00000000000E+00 0.  1.
          3    1    6    6  503    0 -0.24620989545E+03  0.10052597793E+03 -0.77084857034E+03  0.81543381292E+03  0.00000000000E+00 0. -1.
         -3    1    6    6    0  503 -0.15758133351E+02  0.17431359942E+02 -0.19388127405E+03  0.19530007553E+03  0.00000000000E+00 0.  1.
<mgrwt>
<rscale>  0 0.23229556E+04</rscale>
<asrwt>0</asrwt>
<pdfrwt beam="1">  1        2 0.56814259E+00 0.23229556E+04</pdfrwt>
<pdfrwt beam="2">  1       -1 0.56200187E-01 0.23229556E+04</pdfrwt>
<totfact> 0.19551346E+00</totfact>
</mgrwt>
</event>
<event>
12    6  0.1556619E-007  0.1291309E+04  0.7818608E-02  0.9036486E-01
         -1   -1    0    0    0  501 -0.00000000000E+00  0.00000000000E+00  0.16813437117E+03  0.16813437117E+03  0.00000000000E+00 0.  1.
          2   -1    0    0  501    0  0.00000000000E+00 -0.00000000000E+00 -0.24793825677E+04  0.24793825677E+04  0.00000000000E+00 0. -1.
         24    2    1    2    0    0  0.14378460978E+03  0.91208541165E+02 -0.11882611617E+04  0.12030453416E+04  0.79752703356E+02 0.  0.
        254    2    1    2    0    0 -0.14378460978E+03 -0.91208541165E+02 -0.11229870348E+04  0.14444715972E+04  0.89241543170E+03 0.  0.
         23    2    4    4    0    0  0.32667914905E+03  0.10279716063E+03 -0.26357649794E+03  0.44159954543E+03  0.90835376389E+02 0.  0.
         23    2    4    4    0    0 -0.47046375883E+03 -0.19400570179E+03 -0.85941053689E+03  0.10028720518E+04  0.90507019668E+02 0.  0.
          4    1    3    3  502    0  0.10552883721E+03  0.10339770914E+03 -0.95244425270E+03  0.96383477642E+03  0.00000000000E+00 0. -1.
         -3    1    3    3    0  502  0.38255772570E+02 -0.12189167977E+02 -0.23581690897E+03  0.23921056521E+03  0.00000000000E+00 0.  1.
         11    1    5    5    0    0  0.11409638873E+03  0.80913830442E+02 -0.90512215074E+02  0.16660580709E+03  0.00000000000E+00 0. -1.
        -11    1    5    5    0    0  0.21258276032E+03  0.21883330186E+02 -0.17306428287E+03  0.27499373834E+03  0.00000000000E+00 0.  1.
          4    1    6    6  503    0 -0.31684643150E+03 -0.12328164812E+03 -0.48781950028E+03  0.59460734167E+03  0.00000000000E+00 0.  1.
         -4    1    6    6    0  503 -0.15361732733E+03 -0.70724053668E+02 -0.37159103661E+03  0.40826471010E+03  0.00000000000E+00 0. -1.
<mgrwt>
<rscale>  0 0.12913085E+04</rscale>
<asrwt>0</asrwt>
<pdfrwt beam="1">  1        2 0.38144344E+00 0.12913085E+04</pdfrwt>
<pdfrwt beam="2">  1       -1 0.25866828E-01 0.12913085E+04</pdfrwt>
<totfact> 0.53044154E+01</totfact>
</mgrwt>
</event>
<event>
12    6  0.1556619E-007  0.2525624E+04  0.7818608E-02  0.8393913E-01
         -1   -1    0    0    0  501 -0.00000000000E+00  0.00000000000E+00  0.66251634946E+03  0.66251634946E+03  0.00000000000E+00 0.  1.
          2   -1    0    0  501    0  0.00000000000E+00 -0.00000000000E+00 -0.24070254193E+04  0.24070254193E+04  0.00000000000E+00 0. -1.
         24    2    1    2    0    0 -0.11207242009E+03 -0.97925965440E+03 -0.16987153169E+03  0.10032457952E+04  0.78333199662E+02 0.  0.
        254    2    1    2    0    0  0.11207242009E+03  0.97925965440E+03 -0.15746375381E+04  0.20662959736E+04  0.90475741269E+03 0.  0.
         23    2    4    4    0    0 -0.93146421640E+02 -0.14329191695E+03 -0.25327293473E+03  0.31834818796E+03  0.89384338564E+02 0.  0.
         23    2    4    4    0    0  0.20521884173E+03  0.11225515713E+04 -0.13213646034E+04  0.17479477856E+04  0.84144178493E+02 0.  0.
          4    1    3    3  502    0  0.69710765280E+01 -0.20940054090E+02 -0.10713377960E+02  0.24532799281E+02  0.00000000000E+00 0. -1.
         -3    1    3    3    0  502 -0.11904349662E+03 -0.95831960031E+03 -0.15915815373E+03  0.97871299589E+03  0.00000000000E+00 0.  1.
         11    1    5    5    0    0  0.36655642578E+01 -0.31445421806E+02 -0.92364065406E+01  0.32978206738E+02  0.00000000000E+00 0. -1.
        -11    1    5    5    0    0 -0.96811985898E+02 -0.11184649514E+03 -0.24403652819E+03  0.28536998122E+03  0.00000000000E+00 0.  1.
          1    1    6    6  503    0  0.86154472226E+02  0.53635804620E+03 -0.69069950846E+03  0.87873110665E+03  0.00000000000E+00 0. -1.
         -1    1    6    6    0  503  0.11906436950E+03  0.58619352514E+03 -0.63066509492E+03  0.86921667895E+03  0.00000000000E+00 0.  1.
<mgrwt>
<rscale>  0 0.25256236E+04</rscale>
<asrwt>0</asrwt>
<pdfrwt beam="1">  1        2 0.37031161E+00 0.25256236E+04</pdfrwt>
<pdfrwt beam="2">  1       -1 0.10192559E+00 0.25256236E+04</pdfrwt>
<totfact> 0.36362261E+00</totfact>
</mgrwt>
</event>
<event>
12    6  0.1556619E-007  0.1439068E+04  0.7818608E-02  0.8926015E-01
          2   -1    0    0  501    0  0.00000000000E+00  0.00000000000E+00  0.39298093572E+04  0.39298093572E+04  0.00000000000E+00 0. -1.
         -1   -1    0    0    0  501 -0.00000000000E+00 -0.00000000000E+00 -0.13174406143E+03  0.13174406143E+03  0.00000000000E+00 0.  1.
         24    2    1    2    0    0  0.22077660362E+02 -0.42747198435E+03  0.89643287648E+03  0.99662374537E+03  0.80294877191E+02 0.  0.
        254    2    1    2    0    0 -0.22077660362E+02  0.42747198435E+03  0.29016324193E+04  0.30649296733E+04  0.88943998386E+03 0.  0.
         23    2    4    4    0    0 -0.31122786822E+02 -0.85336591757E+02  0.21329755164E+04  0.21368485643E+04  0.91028960139E+02 0.  0.
         23    2    4    4    0    0  0.90451264599E+01  0.51280857611E+03  0.76865690288E+03  0.92808110892E+03  0.86294034240E+02 0.  0.
          2    1    3    3  502    0  0.23731850729E+02 -0.93394654635E+02  0.26989014640E+03  0.28657713338E+03  0.00000000000E+00 0. -1.
         -1    1    3    3    0  502 -0.16541903668E+01 -0.33407732972E+03  0.62654273008E+03  0.71004661199E+03  0.00000000000E+00 0.  1.
         11    1    5    5    0    0 -0.12615113473E+02 -0.11427949137E+02  0.57291322103E+02  0.59766501469E+02  0.00000000000E+00 0. -1.
        -11    1    5    5    0    0 -0.18507673349E+02 -0.73908642620E+02  0.20756841943E+04  0.20770820629E+04  0.00000000000E+00 0.  1.
          2    1    6    6  503    0  0.26849617762E+02  0.37645731327E+03  0.61777900189E+03  0.72394192161E+03  0.00000000000E+00 0. -1.
         -2    1    6    6    0  503 -0.17804491302E+02  0.13635126284E+03  0.15087790099E+03  0.20413918731E+03  0.00000000000E+00 0.  1.
<mgrwt>
<rscale>  0 0.14390678E+04</rscale>
<asrwt>0</asrwt>
<pdfrwt beam="1">  1        2 0.60458597E+00 0.14390678E+04</pdfrwt>
<pdfrwt beam="2">  1       -1 0.20268320E-01 0.14390678E+04</pdfrwt>
<totfact> 0.88248197E+00</totfact>
</mgrwt>
</event>
<event>
12    6  0.1556619E-007  0.2088380E+04  0.7818608E-02  0.8566379E-01
         -3   -1    0    0    0  501 -0.00000000000E+00  0.00000000000E+00  0.95999637300E+03  0.95999637300E+03  0.00000000000E+00 0.  1.
          2   -1    0    0  501    0  0.00000000000E+00 -0.00000000000E+00 -0.11357678939E+04  0.11357678939E+04  0.00000000000E+00 0. -1.
         24    2    1    2    0    0 -0.35508852641E+03  0.53423581820E+03 -0.65097384574E+03  0.91742171008E+03  0.79999220330E+02 0.  0.
        254    2    1    2    0    0  0.35508852641E+03 -0.53423581820E+03  0.47520232484E+03  0.11783425568E+04  0.86670534824E+03 0.  0.
         23    2    4    4    0    0  0.21264117057E+03 -0.44069973514E+03  0.71506255622E+03  0.87148659358E+03  0.93498125686E+02 0.  0.
         23    2    4    4    0    0  0.14244735584E+03 -0.93536083056E+02 -0.23986023138E+03  0.30685596325E+03  0.87105703378E+02 0.  0.
          4    1    3    3  502    0 -0.29220418683E+03  0.38008535953E+03 -0.46651857521E+03  0.66894525063E+03  0.00000000000E+00 0. -1.
         -3    1    3    3    0  502 -0.62884339581E+02  0.15415045867E+03 -0.18445527053E+03  0.24847645945E+03  0.00000000000E+00 0.  1.
         11    1    5    5    0    0  0.12964551860E+02 -0.77992740924E+02  0.73670875687E+02  0.10806639240E+03  0.00000000000E+00 0. -1.
        -11    1    5    5    0    0  0.19967661871E+03 -0.36270699422E+03  0.64139168053E+03  0.76342020118E+03  0.00000000000E+00 0.  1.
          1    1    6    6  503    0  0.41322766628E+02  0.57549591470E+01 -0.22574214788E+02  0.47437177085E+02  0.00000000000E+00 0. -1.
         -1    1    6    6    0  503  0.10112458921E+03 -0.99291042203E+02 -0.21728601659E+03  0.25941878616E+03  0.00000000000E+00 0.  1.
<mgrwt>
<rscale>  0 0.20883803E+04</rscale>
<asrwt>0</asrwt>
<pdfrwt beam="1">  1        2 0.17473352E+00 0.20883803E+04</pdfrwt>
<pdfrwt beam="2">  1       -3 0.14769175E+00 0.20883803E+04</pdfrwt>
<totfact> 0.40558456E+00</totfact>
</mgrwt>
</event>
<event>
12    6  0.1556619E-007  0.1899496E+04  0.7818608E-02  0.8655107E-01
         -1   -1    0    0    0  501 -0.00000000000E+00  0.00000000000E+00  0.68732485094E+03  0.68732485094E+03  0.00000000000E+00 0.  1.
          2   -1    0    0  501    0  0.00000000000E+00 -0.00000000000E+00 -0.13123648336E+04  0.13123648336E+04  0.00000000000E+00 0. -1.
         24    2    1    2    0    0  0.43529276998E+03 -0.57137727702E+03 -0.25055736831E+03  0.76466530573E+03  0.77344984812E+02 0.  0.
        254    2    1    2    0    0 -0.43529276998E+03  0.57137727702E+03 -0.37448261438E+03  0.12350243789E+04  0.93225329154E+03 0.  0.
         23    2    4    4    0    0 -0.62369490220E+02 -0.72687430306E+02 -0.46180703450E+03  0.48022124834E+03  0.90406274157E+02 0.  0.
         23    2    4    4    0    0 -0.37292327976E+03  0.64406470732E+03  0.87324420119E+02  0.75480313051E+03  0.90615074222E+02 0.  0.
          4    1    3    3  502    0  0.38937374555E+03 -0.54399257845E+03 -0.23166573391E+03  0.70796105218E+03  0.00000000000E+00 0. -1.
         -3    1    3    3    0  502  0.45919024425E+02 -0.27384698570E+02 -0.18891634401E+02  0.56704253547E+02  0.00000000000E+00 0.  1.
         11    1    5    5    0    0 -0.12146341894E+02 -0.23965988469E+02 -0.21562252077E+02  0.34450441787E+02  0.00000000000E+00 0. -1.
        -11    1    5    5    0    0 -0.50223148325E+02 -0.48721441837E+02 -0.44024478242E+03  0.44577080655E+03  0.00000000000E+00 0.  1.
          4    1    6    6  503    0 -0.16424172743E+02  0.84300940097E+02  0.44419311603E+01  0.86000771531E+02  0.00000000000E+00 0. -1.
         -4    1    6    6    0  503 -0.35649910702E+03  0.55976376723E+03  0.82882488959E+02  0.66880235898E+03  0.00000000000E+00 0.  1.
<mgrwt>
<rscale>  0 0.18994957E+04</rscale>
<asrwt>0</asrwt>
<pdfrwt beam="1">  1        2 0.20190228E+00 0.18994957E+04</pdfrwt>
<pdfrwt beam="2">  1       -1 0.10574229E+00 0.18994957E+04</pdfrwt>
<totfact> 0.14538522E+01</totfact>
</mgrwt>
</event>
<event>
12    6  0.1556619E-007  0.1889879E+04  0.7818608E-02  0.8659911E-01
         -1   -1    0    0    0  501 -0.00000000000E+00  0.00000000000E+00  0.57643392930E+03  0.57643392930E+03  0.00000000000E+00 0.  1.
          2   -1    0    0  501    0  0.00000000000E+00 -0.00000000000E+00 -0.15490247510E+04  0.15490247510E+04  0.00000000000E+00 0. -1.
         24    2    1    2    0    0 -0.39874286596E+03 -0.59348005474E+03 -0.51454044256E+03  0.88452139118E+03  0.80073565541E+02 0.  0.
        254    2    1    2    0    0  0.39874286596E+03  0.59348005474E+03 -0.45805037909E+03  0.12409372891E+04  0.90493135491E+03 0.  0.
         23    2    4    4    0    0  0.36907515601E+03 -0.14416185842E+03 -0.20663095749E+03  0.45602051815E+03  0.90880405907E+02 0.  0.
         23    2    4    4    0    0  0.29667709946E+02  0.73764191317E+03 -0.25141942160E+03  0.78491677092E+03  0.88807919890E+02 0.  0.
          4    1    3    3  502    0 -0.33404461487E+03 -0.53085791320E+03 -0.47180103127E+03  0.78485166868E+03  0.00000000000E+00 0. -1.
         -3    1    3    3    0  502 -0.64698251086E+02 -0.62622141549E+02 -0.42739411291E+02  0.99669722500E+02  0.00000000000E+00 0.  1.
         11    1    5    5    0    0 -0.29426157428E+01 -0.52731741477E+01  0.32617534591E+01  0.68632637010E+01  0.00000000000E+00 0. -1.
        -11    1    5    5    0    0  0.37201777175E+03 -0.13888868428E+03 -0.20989271095E+03  0.44915725445E+03  0.00000000000E+00 0.  1.
          4    1    6    6  503    0 -0.63779700978E+01  0.34448546225E+03 -0.15887331609E+03  0.37940959762E+03  0.00000000000E+00 0. -1.
         -4    1    6    6    0  503  0.36045680044E+02  0.39315645092E+03 -0.92546105518E+02  0.40550717330E+03  0.00000000000E+00 0.  1.
<mgrwt>
<rscale>  0 0.18898788E+04</rscale>
<asrwt>0</asrwt>
<pdfrwt beam="1">  1        2 0.23831149E+00 0.18898788E+04</pdfrwt>
<pdfrwt beam="2">  1       -1 0.88682145E-01 0.18898788E+04</pdfrwt>
<totfact> 0.15873005E+01</totfact>
</mgrwt>
</event>
<event>
12    6  0.1556619E-007  0.2149169E+04  0.7818608E-02  0.8539888E-01
          2   -1    0    0  501    0  0.00000000000E+00  0.00000000000E+00  0.57027407706E+03  0.57027407706E+03  0.00000000000E+00 0. -1.
         -1   -1    0    0    0  501 -0.00000000000E+00 -0.00000000000E+00 -0.20248725614E+04  0.20248725614E+04  0.00000000000E+00 0.  1.
         24    2    1    2    0    0  0.50951707218E+03 -0.58242381188E+03 -0.11023396609E+04  0.13495166916E+04  0.84955454950E+02 0.  0.
        254    2    1    2    0    0 -0.50951707218E+03  0.58242381188E+03 -0.35225882346E+03  0.12456299469E+04  0.91032002202E+03 0.  0.
         23    2    4    4    0    0  0.30024403331E+02 -0.10247104711E+03 -0.34154287245E+03  0.36908510097E+03  0.90390805666E+02 0.  0.
         23    2    4    4    0    0 -0.53954147551E+03  0.68489485899E+03 -0.10715951017E+02  0.87654484596E+03  0.89610622680E+02 0.  0.
          4    1    3    3  502    0  0.29046436923E+03 -0.28631612822E+03 -0.52724756957E+03  0.66658568443E+03  0.00000000000E+00 0. -1.
         -3    1    3    3    0  502  0.21905270295E+03 -0.29610768366E+03 -0.57509209132E+03  0.68293100713E+03  0.00000000000E+00 0.  1.
         11    1    5    5    0    0  0.37856606743E+01  0.11754597670E+02 -0.61326916022E+01  0.13788099921E+02  0.00000000000E+00 0.  1.
        -11    1    5    5    0    0  0.26238742657E+02 -0.11422564478E+03 -0.33541018084E+03  0.35529700105E+03  0.00000000000E+00 0. -1.
          3    1    6    6  503    0 -0.22453754330E+03  0.34562994958E+03 -0.29429232390E+02  0.41321090271E+03  0.00000000000E+00 0. -1.
         -3    1    6    6    0  503 -0.31500393221E+03  0.33926490941E+03  0.18713281373E+02  0.46333394325E+03  0.00000000000E+00 0.  1.
<mgrwt>
<rscale>  0 0.21491694E+04</rscale>
<asrwt>0</asrwt>
<pdfrwt beam="1">  1        2 0.87734473E-01 0.21491694E+04</pdfrwt>
<pdfrwt beam="2">  1       -1 0.31151886E+00 0.21491694E+04</pdfrwt>
<totfact> 0.15368761E+00</totfact>
</mgrwt>
</event>
<event>
12    6  0.1556619E-007  0.2116888E+04  0.7818608E-02  0.8553840E-01
         -1   -1    0    0    0  501 -0.00000000000E+00  0.00000000000E+00  0.69877590717E+03  0.69877590717E+03  0.00000000000E+00 0.  1.
          2   -1    0    0  501    0  0.00000000000E+00 -0.00000000000E+00 -0.16032370647E+04  0.16032370647E+04  0.00000000000E+00 0. -1.
         24    2    1    2    0    0 -0.72983042600E+03 -0.17765975046E+03  0.10153073866E+03  0.76190813831E+03  0.77330994367E+02 0.  0.
        254    2    1    2    0    0  0.72983042600E+03  0.17765975046E+03 -0.10059918962E+04  0.15401048336E+04  0.89201332139E+03 0.  0.
         23    2    4    4    0    0  0.53647518087E+03  0.52672418879E+03 -0.68498149519E+03  0.10208436123E+04  0.87624433319E+02 0.  0.
         23    2    4    4    0    0  0.19335524513E+03 -0.34906443833E+03 -0.32101040105E+03  0.51926122128E+03  0.85745585427E+02 0.  0.
          2    1    3    3  502    0 -0.30498345060E+03 -0.11127183878E+03  0.30489810363E+02  0.32607661029E+03  0.00000000000E+00 0. -1.
         -1    1    3    3    0  502 -0.42484697540E+03 -0.66387911682E+02  0.71040928299E+02  0.43583152802E+03  0.00000000000E+00 0.  1.
         11    1    5    5    0    0  0.70992601059E+02  0.73581470798E+02 -0.55825440510E+02  0.11649318460E+03  0.00000000000E+00 0.  1.
        -11    1    5    5    0    0  0.46548257981E+03  0.45314271799E+03 -0.62915605469E+03  0.90435042772E+03  0.00000000000E+00 0. -1.
          2    1    6    6  503    0  0.17310986736E+03 -0.26140458829E+03 -0.21471230879E+03  0.38000100066E+03  0.00000000000E+00 0. -1.
         -2    1    6    6    0  503  0.20245377766E+02 -0.87659850041E+02 -0.10629809225E+03  0.13926022062E+03  0.00000000000E+00 0.  1.
<mgrwt>
<rscale>  0 0.21168877E+04</rscale>
<asrwt>0</asrwt>
<pdfrwt beam="1">  1        2 0.24665186E+00 0.21168877E+04</pdfrwt>
<pdfrwt beam="2">  1       -1 0.10750399E+00 0.21168877E+04</pdfrwt>
<totfact> 0.93787098E+00</totfact>
</mgrwt>
</event>
<event>
12    6  0.1556619E-007  0.1775283E+04  0.7818608E-02  0.8719555E-01
         -1   -1    0    0    0  501 -0.00000000000E+00  0.00000000000E+00  0.52049243758E+03  0.52049243758E+03  0.00000000000E+00 0.  1.
          2   -1    0    0  501    0  0.00000000000E+00 -0.00000000000E+00 -0.15137737065E+04  0.15137737065E+04  0.00000000000E+00 0. -1.
         24    2    1    2    0    0  0.63288553605E+03  0.16016019063E+03 -0.50936851627E+03  0.83192346455E+03  0.80280614720E+02 0.  0.
        254    2    1    2    0    0 -0.63288553605E+03 -0.16016019063E+03 -0.48391275261E+03  0.12023426795E+04  0.88614952372E+03 0.  0.
         23    2    4    4    0    0  0.27752057244E+02 -0.38304210655E+03 -0.12727174356E+03  0.41403699703E+03  0.87960821562E+02 0.  0.
         23    2    4    4    0    0 -0.66063759329E+03  0.22288191591E+03 -0.35664100905E+03  0.78830568246E+03  0.90081416289E+02 0.  0.
          4    1    3    3  502    0  0.57430852889E+03  0.16815491951E+03 -0.46950994252E+03  0.76062208056E+03  0.00000000000E+00 0. -1.
         -3    1    3    3    0  502  0.58577007157E+02 -0.79947288783E+01 -0.39858573751E+02  0.71301383989E+02  0.00000000000E+00 0.  1.
         11    1    5    5    0    0  0.16422152965E+02 -0.87580978360E+01 -0.21513771178E+00  0.18612836161E+02  0.00000000000E+00 0. -1.
        -11    1    5    5    0    0  0.11329904279E+02 -0.37428400871E+03 -0.12705660585E+03  0.39542416087E+03  0.00000000000E+00 0.  1.
          3    1    6    6  503    0 -0.27670697702E+03  0.46986795953E+02 -0.14670457801E+03  0.31669661087E+03  0.00000000000E+00 0. -1.
         -3    1    6    6    0  503 -0.38393061627E+03  0.17589511996E+03 -0.20993643104E+03  0.47160907160E+03  0.00000000000E+00 0.  1.
<mgrwt>
<rscale>  0 0.17752834E+04</rscale>
<asrwt>0</asrwt>
<pdfrwt beam="1">  1        2 0.23288826E+00 0.17752834E+04</pdfrwt>
<pdfrwt beam="2">  1       -1 0.80075760E-01 0.17752834E+04</pdfrwt>
<totfact> 0.20920895E+01</totfact>
</mgrwt>
</event>
<event>
12    6  0.1556619E-007  0.1243902E+04  0.7818608E-02  0.9075274E-01
          2   -1    0    0  501    0  0.00000000000E+00  0.00000000000E+00  0.11244888315E+04  0.11244888315E+04  0.00000000000E+00 0. -1.
         -1   -1    0    0    0  501 -0.00000000000E+00 -0.00000000000E+00 -0.34399912144E+03  0.34399912144E+03  0.00000000000E+00 0.  1.
         24    2    1    2    0    0  0.13977494414E+03 -0.21922999092E+03  0.32497380527E+03  0.42337327035E+03  0.77705392437E+02 0.  0.
        254    2    1    2    0    0 -0.13977494414E+03  0.21922999092E+03  0.45551590476E+03  0.10451146826E+04  0.90397518566E+03 0.  0.
         23    2    4    4    0    0 -0.28381502131E+03  0.17537665707E+03 -0.17705996402E+03  0.38839568352E+03  0.90515401760E+02 0.  0.
         23    2    4    4    0    0  0.14404007717E+03  0.43853333848E+02  0.63257586877E+03  0.65671899904E+03  0.91961705160E+02 0.  0.
          4    1    3    3  502    0  0.14740947398E+03 -0.20908181800E+03  0.32010978025E+03  0.40977436602E+03  0.00000000000E+00 0. -1.
         -3    1    3    3    0  502 -0.76345298486E+01 -0.10148172921E+02  0.48640250178E+01  0.13598904331E+02  0.00000000000E+00 0.  1.
         11    1    5    5    0    0 -0.26527356283E+03  0.17570746543E+03 -0.14137752514E+03  0.34818210919E+03  0.00000000000E+00 0. -1.
        -11    1    5    5    0    0 -0.18541458474E+02 -0.33080835512E+00 -0.35682438875E+02  0.40213574332E+02  0.00000000000E+00 0.  1.
          4    1    6    6  503    0  0.11446661494E+03  0.71545194945E+02  0.45633093817E+03  0.47587734342E+03  0.00000000000E+00 0. -1.
         -4    1    6    6    0  503  0.29573462237E+02 -0.27691861097E+02  0.17624493061E+03  0.18084165561E+03  0.00000000000E+00 0.  1.
<mgrwt>
<rscale>  0 0.12439022E+04</rscale>
<asrwt>0</asrwt>
<pdfrwt beam="1">  1        2 0.17299828E+00 0.12439022E+04</pdfrwt>
<pdfrwt beam="2">  1       -1 0.52922942E-01 0.12439022E+04</pdfrwt>
<totfact> 0.84966363E+01</totfact>
</mgrwt>
</event>
<event>
12    6  0.1556619E-007  0.2539492E+04  0.7818608E-02  0.8389050E-01
         -1   -1    0    0    0  501 -0.00000000000E+00  0.00000000000E+00  0.10181989781E+04  0.10181989781E+04  0.00000000000E+00 0.  1.
          2   -1    0    0  501    0  0.00000000000E+00 -0.00000000000E+00 -0.15834374535E+04  0.15834374535E+04  0.00000000000E+00 0. -1.
         24    2    1    2    0    0 -0.47812999465E+03  0.28126157090E+03 -0.12263391900E+04  0.13483070827E+04  0.79421768253E+02 0.  0.
        254    2    1    2    0    0  0.47812999465E+03 -0.28126157090E+03  0.66110071459E+03  0.12533293490E+04  0.90888059672E+03 0.  0.
         23    2    4    4    0    0  0.38214235595E+03  0.92092307540E+02 -0.81468305305E+02  0.41165555765E+03  0.91156130073E+02 0.  0.
         23    2    4    4    0    0  0.95987638693E+02 -0.37335387844E+03  0.74256901990E+03  0.84167379132E+03  0.91647566019E+02 0.  0.
          2    1    3    3  502    0 -0.25858022329E+03  0.19734085566E+03 -0.72133846896E+03  0.79128776813E+03  0.00000000000E+00 0. -1.
         -1    1    3    3    0  502 -0.21954977136E+03  0.83920715238E+02 -0.50500072099E+03  0.55701931452E+03  0.00000000000E+00 0.  1.
         11    1    5    5    0    0  0.12813990261E+03 -0.12484445868E+02 -0.29798203961E+02  0.13215002455E+03  0.00000000000E+00 0.  1.
        -11    1    5    5    0    0  0.25400245334E+03  0.10457675341E+03 -0.51670101344E+02  0.27950553310E+03  0.00000000000E+00 0. -1.
          3    1    6    6  503    0  0.80310734270E+02 -0.21687388066E+03  0.35811572023E+03  0.42629914758E+03  0.00000000000E+00 0. -1.
         -3    1    6    6    0  503  0.15676904423E+02 -0.15647999778E+03  0.38445329967E+03  0.41537464374E+03  0.00000000000E+00 0.  1.
<mgrwt>
<rscale>  0 0.25394916E+04</rscale>
<asrwt>0</asrwt>
<pdfrwt beam="1">  1        2 0.24360576E+00 0.25394916E+04</pdfrwt>
<pdfrwt beam="2">  1       -1 0.15664600E+00 0.25394916E+04</pdfrwt>
<totfact> 0.35751017E+00</totfact>
</mgrwt>
</event>
<event>
12    6  0.1556619E-007  0.2000475E+04  0.7818608E-02  0.8606398E-01
         -1   -1    0    0    0  501 -0.00000000000E+00  0.00000000000E+00  0.78518436557E+03  0.78518436557E+03  0.00000000000E+00 0.  1.
          2   -1    0    0  501    0  0.00000000000E+00 -0.00000000000E+00 -0.12741916882E+04  0.12741916882E+04  0.00000000000E+00 0. -1.
         24    2    1    2    0    0  0.35998962709E+03  0.36156177489E+03  0.42819240551E+03  0.67162662097E+03  0.86105360981E+02 0.  0.
        254    2    1    2    0    0 -0.35998962709E+03 -0.36156177489E+03 -0.91719972816E+03  0.13877494328E+04  0.90789520225E+03 0.  0.
         23    2    4    4    0    0  0.14016213914E+03 -0.15083126286E+03  0.88421152037E+02  0.24154446204E+03  0.90166135052E+02 0.  0.
         23    2    4    4    0    0 -0.50015176623E+03 -0.21073051203E+03 -0.10056208802E+04  0.11462049708E+04  0.89181513656E+02 0.  0.
          4    1    3    3  502    0  0.17008483637E+03  0.11930795153E+03  0.20072519669E+03  0.28888378883E+03  0.00000000000E+00 0. -1.
         -3    1    3    3    0  502  0.18990479072E+03  0.24225382336E+03  0.22746720882E+03  0.38274283215E+03  0.00000000000E+00 0.  1.
         11    1    5    5    0    0  0.71796561340E+01  0.54415958774E+01 -0.10427501800E+02  0.13780102383E+02  0.00000000000E+00 0. -1.
        -11    1    5    5    0    0  0.13298248300E+03 -0.15627285874E+03  0.98848653836E+02  0.22776435966E+03  0.00000000000E+00 0.  1.
          2    1    6    6  503    0 -0.20791611566E+03 -0.63825179767E+02 -0.32484372846E+03  0.39092993317E+03  0.00000000000E+00 0. -1.
         -2    1    6    6    0  503 -0.29223565057E+03 -0.14690533226E+03 -0.68077715173E+03  0.75527503761E+03  0.00000000000E+00 0.  1.
<mgrwt>
<rscale>  0 0.20004753E+04</rscale>
<asrwt>0</asrwt>
<pdfrwt beam="1">  1        2 0.19602949E+00 0.20004753E+04</pdfrwt>
<pdfrwt beam="2">  1       -1 0.12079759E+00 0.20004753E+04</pdfrwt>
<totfact> 0.11042082E+01</totfact>
</mgrwt>
</event>
<event>
12    6  0.1556619E-007  0.1475338E+04  0.7818608E-02  0.8901021E-01
          2   -1    0    0  501    0  0.00000000000E+00  0.00000000000E+00  0.94379659829E+03  0.94379659829E+03  0.00000000000E+00 0. -1.
         -1   -1    0    0    0  501 -0.00000000000E+00 -0.00000000000E+00 -0.57656002610E+03  0.57656002610E+03  0.00000000000E+00 0.  1.
         24    2    1    2    0    0 -0.35988398915E+03  0.55452592306E+02 -0.17656735346E+03  0.41219624608E+03  0.78346916557E+02 0.  0.
        254    2    1    2    0    0  0.35988398915E+03 -0.55452592306E+02  0.54380392565E+03  0.11081603783E+04  0.89426239934E+03 0.  0.
         23    2    4    4    0    0  0.50616513341E+03 -0.35127335783E+01  0.70012266926E+03  0.86902235178E+03  0.93875525583E+02 0.  0.
         23    2    4    4    0    0 -0.14628114426E+03 -0.51939858727E+02 -0.15631874360E+03  0.23913802654E+03  0.93035068898E+02 0.  0.
          2    1    3    3  502    0 -0.20987435219E+02 -0.90386466078E+01  0.33907913235E+01  0.23101234499E+02  0.00000000000E+00 0. -1.
         -1    1    3    3    0  502 -0.33889655393E+03  0.64491238913E+02 -0.17995814478E+03  0.38909501158E+03  0.00000000000E+00 0.  1.
         11    1    5    5    0    0  0.46383680157E+02  0.23044009867E+02  0.99283878125E+02  0.11198107265E+03  0.00000000000E+00 0. -1.
        -11    1    5    5    0    0  0.45978145325E+03 -0.26556743445E+02  0.60083879113E+03  0.75704127913E+03  0.00000000000E+00 0.  1.
          3    1    6    6  503    0  0.34628536734E+01 -0.23681655584E+02 -0.51324456873E+01  0.24477625814E+02  0.00000000000E+00 0. -1.
         -3    1    6    6    0  503 -0.14974399793E+03 -0.28258203143E+02 -0.15118629792E+03  0.21466040072E+03  0.00000000000E+00 0.  1.
<mgrwt>
<rscale>  0 0.14753378E+04</rscale>
<asrwt>0</asrwt>
<pdfrwt beam="1">  1        2 0.14519948E+00 0.14753378E+04</pdfrwt>
<pdfrwt beam="2">  1       -1 0.88701543E-01 0.14753378E+04</pdfrwt>
<totfact> 0.37770452E+01</totfact>
</mgrwt>
</event>
<event>
12    6  0.1556619E-007  0.1309702E+04  0.7818608E-02  0.9021907E-01
          2   -1    0    0  501    0  0.00000000000E+00  0.00000000000E+00  0.17496222948E+04  0.17496222948E+04  0.00000000000E+00 0. -1.
         -1   -1    0    0    0  501 -0.00000000000E+00 -0.00000000000E+00 -0.24509850491E+03  0.24509850491E+03  0.00000000000E+00 0.  1.
         24    2    1    2    0    0 -0.19412544879E+03  0.19569283536E+03  0.10625554316E+03  0.30566311540E+03  0.78481360726E+02 0.  0.
        254    2    1    2    0    0  0.19412544879E+03 -0.19569283536E+03  0.13982682468E+04  0.16890576843E+04  0.90652159127E+03 0.  0.
         23    2    4    4    0    0  0.39374136183E+01 -0.17430250645E+02  0.14101725240E+04  0.14131969834E+04  0.90663386306E+02 0.  0.
         23    2    4    4    0    0  0.19018803517E+03 -0.17826258472E+03 -0.11904277192E+02  0.27586070097E+03  0.89489533973E+02 0.  0.
          2    1    3    3  502    0 -0.29170174323E+02 -0.18144111891E+01  0.12442751031E+02  0.31764968302E+02  0.00000000000E+00 0. -1.
         -1    1    3    3    0  502 -0.16495527447E+03  0.19750724655E+03  0.93812792129E+02  0.27389814709E+03  0.00000000000E+00 0.  1.
         11    1    5    5    0    0 -0.32464297022E+01 -0.64615667430E+01  0.73418787346E+01  0.10305063510E+02  0.00000000000E+00 0. -1.
        -11    1    5    5    0    0  0.71838433205E+01 -0.10968683902E+02  0.14028306452E+04  0.14028919199E+04  0.00000000000E+00 0.  1.
          1    1    6    6  503    0  0.15922515824E+02 -0.11232832059E+02 -0.27802634465E+02  0.33951281411E+02  0.00000000000E+00 0. -1.
         -1    1    6    6    0  503  0.17426551935E+03 -0.16702975266E+03  0.15898357273E+02  0.24190941956E+03  0.00000000000E+00 0.  1.
<mgrwt>
<rscale>  0 0.13097020E+04</rscale>
<asrwt>0</asrwt>
<pdfrwt beam="1">  1        2 0.26917265E+00 0.13097020E+04</pdfrwt>
<pdfrwt beam="2">  1       -1 0.37707463E-01 0.13097020E+04</pdfrwt>
<totfact> 0.69662859E+01</totfact>
</mgrwt>
</event>
<event>
12    6  0.1556619E-007  0.1637015E+04  0.7818608E-02  0.8798126E-01
          2   -1    0    0  501    0  0.00000000000E+00  0.00000000000E+00  0.29769967946E+04  0.29769967946E+04  0.00000000000E+00 0. -1.
         -1   -1    0    0    0  501 -0.00000000000E+00 -0.00000000000E+00 -0.22504372233E+03  0.22504372233E+03  0.00000000000E+00 0.  1.
         24    2    1    2    0    0  0.42654171481E+03 -0.10202322437E+03  0.16486122828E+04  0.17090562749E+04  0.10297727305E+03 0.  0.
        254    2    1    2    0    0 -0.42654171481E+03  0.10202322437E+03  0.11033407895E+04  0.14929842421E+04  0.90514886991E+03 0.  0.
         23    2    4    4    0    0 -0.56212550257E+03  0.20767649658E+03  0.31796918954E+03  0.68408955693E+03  0.88088072544E+02 0.  0.
         23    2    4    4    0    0  0.13558378777E+03 -0.10565327221E+03  0.78537159994E+03  0.80889468519E+03  0.89199127227E+02 0.  0.
          4    1    3    3  502    0  0.20355859624E+03 -0.51710035945E+02  0.98607995698E+03  0.10081982501E+04  0.00000000000E+00 0. -1.
         -3    1    3    3    0  502  0.22298311856E+03 -0.50313188429E+02  0.66253232584E+03  0.70085802476E+03  0.00000000000E+00 0.  1.
         11    1    5    5    0    0 -0.48942331392E+03  0.14708202503E+03  0.26671276646E+03  0.57645815294E+03  0.00000000000E+00 0. -1.
        -11    1    5    5    0    0 -0.72702188650E+02  0.60594471554E+02  0.51256423074E+02  0.10763140398E+03  0.00000000000E+00 0.  1.
          3    1    6    6  503    0  0.13480463706E+03 -0.72603326965E+02  0.53935705361E+03  0.56066885462E+03  0.00000000000E+00 0. -1.
         -3    1    6    6    0  503  0.77915071070E+00 -0.33049945243E+02  0.24601454633E+03  0.24822583057E+03  0.00000000000E+00 0.  1.
<mgrwt>
<rscale>  0 0.16370149E+04</rscale>
<asrwt>0</asrwt>
<pdfrwt beam="1">  1        2 0.45799948E+00 0.16370149E+04</pdfrwt>
<pdfrwt beam="2">  1       -1 0.34622113E-01 0.16370149E+04</pdfrwt>
<totfact> 0.15588541E+01</totfact>
</mgrwt>
</event>
<event>
12    6  0.1556619E-007  0.1112896E+04  0.7818608E-02  0.9192713E-01
          2   -1    0    0  501    0  0.00000000000E+00  0.00000000000E+00  0.53448231595E+03  0.53448231595E+03  0.00000000000E+00 0. -1.
         -1   -1    0    0    0  501 -0.00000000000E+00 -0.00000000000E+00 -0.57931644134E+03  0.57931644134E+03  0.00000000000E+00 0.  1.
         24    2    1    2    0    0  0.20519534156E+02  0.17598562066E+03 -0.36917590955E+01  0.19446128545E+03  0.80059805736E+02 0.  0.
        254    2    1    2    0    0 -0.20519534156E+02 -0.17598562066E+03 -0.41142366291E+02  0.91933747184E+03  0.90116408210E+03 0.  0.
         23    2    4    4    0    0  0.34240866777E+03  0.16542472205E+03  0.79749756190E+02  0.39861482923E+03  0.89020919121E+02 0.  0.
         23    2    4    4    0    0 -0.36292820192E+03 -0.34141034270E+03 -0.12089212248E+03  0.52072264261E+03  0.90880489645E+02 0.  0.
          4    1    3    3  502    0  0.20488663991E+02  0.18407760397E+03  0.77977351945E+00  0.18521597578E+03  0.00000000000E+00 0. -1.
         -3    1    3    3    0  502  0.30870164557E-01 -0.80919833188E+01 -0.44715326150E+01  0.92453096717E+01  0.00000000000E+00 0.  1.
         11    1    5    5    0    0  0.36745476823E+02 -0.98183246528E+01  0.11450641872E+02  0.39720860580E+02  0.00000000000E+00 0. -1.
        -11    1    5    5    0    0  0.30566319094E+03  0.17524304670E+03  0.68299114318E+02  0.35889396865E+03  0.00000000000E+00 0.  1.
          3    1    6    6  503    0 -0.13538040212E+01 -0.83923509082E+01  0.89029580093E+01  0.12309630393E+02  0.00000000000E+00 0. -1.
         -3    1    6    6    0  503 -0.36157439790E+03 -0.33301799180E+03 -0.12979508049E+03  0.50841301222E+03  0.00000000000E+00 0.  1.
<mgrwt>
<rscale>  0 0.11128960E+04</rscale>
<asrwt>0</asrwt>
<pdfrwt beam="1">  1        2 0.82228049E-01 0.11128960E+04</pdfrwt>
<pdfrwt beam="2">  1       -1 0.89125606E-01 0.11128960E+04</pdfrwt>
<totfact> 0.79775936E+01</totfact>
</mgrwt>
</event>
<event>
12    6  0.1556619E-007  0.2122032E+04  0.7818608E-02  0.8551600E-01
         -1   -1    0    0    0  501 -0.00000000000E+00  0.00000000000E+00  0.42516701677E+03  0.42516701677E+03  0.00000000000E+00 0.  1.
          2   -1    0    0  501    0  0.00000000000E+00 -0.00000000000E+00 -0.26477947194E+04  0.26477947194E+04  0.00000000000E+00 0. -1.
         24    2    1    2    0    0 -0.84311934884E+03 -0.18961732365E+03 -0.98063401120E+03  0.13094784541E+04  0.79282986815E+02 0.  0.
        254    2    1    2    0    0  0.84311934884E+03  0.18961732365E+03 -0.12419936914E+04  0.17634832821E+04  0.90582558518E+03 0.  0.
         23    2    4    4    0    0  0.13781026907E+03 -0.20814925254E+03  0.13650205677E+02  0.26660052189E+03  0.92583630112E+02 0.  0.
         23    2    4    4    0    0  0.70530907977E+03  0.39776657619E+03 -0.12556438971E+04  0.14968827602E+04  0.91308566079E+02 0.  0.
          4    1    3    3  502    0 -0.54179633283E+03 -0.84240733190E+02 -0.60354792159E+03  0.81542005191E+03  0.00000000000E+00 0. -1.
         -3    1    3    3    0  502 -0.30132301601E+03 -0.10537659046E+03 -0.37708608961E+03  0.49405840219E+03  0.00000000000E+00 0.  1.
         11    1    5    5    0    0  0.12031739989E+03 -0.20286977640E+03  0.35056451240E+02  0.23845623847E+03  0.00000000000E+00 0. -1.
        -11    1    5    5    0    0  0.17492869174E+02 -0.52794761466E+01 -0.21406245563E+02  0.28144283423E+02  0.00000000000E+00 0.  1.
          1    1    6    6  503    0  0.48074086558E+03  0.29933182848E+03 -0.93664668947E+03  0.10945402433E+04  0.00000000000E+00 0. -1.
         -1    1    6    6    0  503  0.22456821419E+03  0.98434747713E+02 -0.31899720762E+03  0.40234251683E+03  0.00000000000E+00 0.  1.
<mgrwt>
<rscale>  0 0.21220320E+04</rscale>
<asrwt>0</asrwt>
<pdfrwt beam="1">  1        2 0.40735303E+00 0.21220320E+04</pdfrwt>
<pdfrwt beam="2">  1       -1 0.65410311E-01 0.21220320E+04</pdfrwt>
<totfact> 0.70783689E+00</totfact>
</mgrwt>
</event>
<event>
12    6  0.1556619E-007  0.1013471E+04  0.7818608E-02  0.9293892E-01
          2   -1    0    0  501    0  0.00000000000E+00  0.00000000000E+00  0.11024880780E+04  0.11024880780E+04  0.00000000000E+00 0. -1.
         -1   -1    0    0    0  501 -0.00000000000E+00 -0.00000000000E+00 -0.23291042153E+03  0.23291042153E+03  0.00000000000E+00 0.  1.
         24    2    1    2    0    0  0.81654194498E+01  0.73693646072E+02  0.80488197525E+02  0.13440032073E+03  0.78023513928E+02 0.  0.
        254    2    1    2    0    0 -0.81654194498E+01 -0.73693646072E+02  0.78908945898E+03  0.12009981788E+04  0.90235083184E+03 0.  0.
         23    2    4    4    0    0  0.47515539098E+02 -0.16059815142E+03 -0.15589427389E+03  0.24649653541E+03  0.91695281447E+02 0.  0.
         23    2    4    4    0    0 -0.55680958548E+02  0.86904505352E+02  0.94498373287E+03  0.95450164342E+03  0.86176387187E+02 0.  0.
          4    1    3    3  502    0  0.15565735091E+01  0.51935154215E+02  0.94391276202E+02  0.10774690802E+03  0.00000000000E+00 0. -1.
         -3    1    3    3    0  502  0.66088459407E+01  0.21758491857E+02 -0.13903078677E+02  0.26653412713E+02  0.00000000000E+00 0.  1.
         11    1    5    5    0    0  0.29553440372E+02 -0.16758504824E+03 -0.12963648523E+03  0.21392468893E+03  0.00000000000E+00 0.  1.
        -11    1    5    5    0    0  0.17962098726E+02  0.69868968129E+01 -0.26257788662E+02  0.32571846480E+02  0.00000000000E+00 0. -1.
          2    1    6    6  503    0 -0.12177847630E+02  0.65984013818E+02  0.77195287804E+03  0.77486349506E+03  0.00000000000E+00 0.  1.
         -2    1    6    6    0  503 -0.43503110918E+02  0.20920491534E+02  0.17303085483E+03  0.17963814837E+03  0.00000000000E+00 0. -1.
<mgrwt>
<rscale>  0 0.10134712E+04</rscale>
<asrwt>0</asrwt>
<pdfrwt beam="1">  1        2 0.16961355E+00 0.10134712E+04</pdfrwt>
<pdfrwt beam="2">  1       -1 0.35832373E-01 0.10134712E+04</pdfrwt>
<totfact> 0.18343691E+02</totfact>
</mgrwt>
</event>
<event>
12    6  0.1556619E-007  0.1955493E+04  0.7818608E-02  0.8627717E-01
          2   -1    0    0  501    0  0.00000000000E+00  0.00000000000E+00  0.13868915968E+04  0.13868915968E+04  0.00000000000E+00 0. -1.
         -1   -1    0    0    0  501 -0.00000000000E+00 -0.00000000000E+00 -0.68930265951E+03  0.68930265951E+03  0.00000000000E+00 0.  1.
         24    2    1    2    0    0 -0.10672261496E+02 -0.77016366183E+03  0.24320493787E+03  0.81149704276E+03  0.78184687967E+02 0.  0.
        254    2    1    2    0    0  0.10672261496E+02  0.77016366183E+03  0.45438399947E+03  0.12646972136E+04  0.89427527078E+03 0.  0.
         23    2    4    4    0    0 -0.47698342084E+02 -0.76269614961E+02  0.38817100467E+03  0.40870817149E+03  0.90958532171E+02 0.  0.
         23    2    4    4    0    0  0.58370603580E+02  0.84643327680E+03  0.66212994797E+02  0.85598904210E+03  0.92068779098E+02 0.  0.
          4    1    3    3  502    0 -0.24952368364E+02 -0.57511182850E+03  0.15014522397E+03  0.59491161045E+03  0.00000000000E+00 0. -1.
         -3    1    3    3    0  502  0.14280106868E+02 -0.19505183334E+03  0.93059713893E+02  0.21658543231E+03  0.00000000000E+00 0.  1.
         11    1    5    5    0    0 -0.46614326135E+01 -0.82988857165E+02  0.28062316692E+03  0.29267429197E+03  0.00000000000E+00 0. -1.
        -11    1    5    5    0    0 -0.43036909470E+02  0.67192422044E+01  0.10754783775E+03  0.11603387952E+03  0.00000000000E+00 0.  1.
          4    1    6    6  503    0  0.63472929544E+00 -0.35112272636E+00  0.49801407643E+01  0.50326901832E+01  0.00000000000E+00 0.  1.
         -4    1    6    6    0  503  0.57735874284E+02  0.84678439952E+03  0.61232854033E+02  0.85095635192E+03  0.00000000000E+00 0. -1.
<mgrwt>
<rscale>  0 0.19554928E+04</rscale>
<asrwt>0</asrwt>
<pdfrwt beam="1">  1        2 0.21336794E+00 0.19554928E+04</pdfrwt>
<pdfrwt beam="2">  1       -1 0.10604656E+00 0.19554928E+04</pdfrwt>
<totfact> 0.13015578E+01</totfact>
</mgrwt>
</event>
<event>
12    6  0.1556619E-007  0.2342511E+04  0.7818608E-02  0.8461346E-01
          2   -1    0    0  501    0  0.00000000000E+00  0.00000000000E+00  0.34392570858E+04  0.34392570858E+04  0.00000000000E+00 0. -1.
         -1   -1    0    0    0  501 -0.00000000000E+00 -0.00000000000E+00 -0.39887681130E+03  0.39887681130E+03  0.00000000000E+00 0.  1.
         24    2    1    2    0    0  0.92649635049E+03  0.23382210690E+03  0.84301412374E+03  0.12780951602E+04  0.98925024441E+02 0.  0.
        254    2    1    2    0    0 -0.92649635049E+03 -0.23382210690E+03  0.21973661507E+04  0.25600387369E+04  0.90128356745E+03 0.  0.
         23    2    4    4    0    0 -0.47789781879E+03 -0.50813858213E+02  0.24569477006E+03  0.54722008576E+03  0.90086229994E+02 0.  0.
         23    2    4    4    0    0 -0.44859853171E+03 -0.18300824869E+03  0.19516713807E+04  0.20128186511E+04  0.87664602733E+02 0.  0.
          4    1    3    3  502    0  0.46067603694E+03  0.86221519686E+02  0.46594440795E+03  0.66087877313E+03  0.00000000000E+00 0. -1.
         -3    1    3    3    0  502  0.46582031355E+03  0.14760058722E+03  0.37706971579E+03  0.61721638704E+03  0.00000000000E+00 0.  1.
         11    1    5    5    0    0 -0.85981767764E+01 -0.12044508924E+02 -0.23557115575E+01  0.14984932967E+02  0.00000000000E+00 0. -1.
        -11    1    5    5    0    0 -0.46929964201E+03 -0.38769349289E+02  0.24805048162E+03  0.53223515279E+03  0.00000000000E+00 0.  1.
          2    1    6    6  503    0 -0.69855415798E+02 -0.22106560127E+02  0.18791682526E+03  0.20169584114E+03  0.00000000000E+00 0. -1.
         -2    1    6    6    0  503 -0.37874311591E+03 -0.16090168856E+03  0.17637545554E+04  0.18111228100E+04  0.00000000000E+00 0.  1.
<mgrwt>
<rscale>  0 0.23425114E+04</rscale>
<asrwt>0</asrwt>
<pdfrwt beam="1">  1        2 0.52911646E+00 0.23425114E+04</pdfrwt>
<pdfrwt beam="2">  1       -1 0.61365665E-01 0.23425114E+04</pdfrwt>
<totfact> 0.24854670E+00</totfact>
</mgrwt>
</event>
<event>
12    6  0.1556619E-007  0.2551201E+04  0.7818608E-02  0.8384969E-01
         -1   -1    0    0    0  501 -0.00000000000E+00  0.00000000000E+00  0.11735395388E+04  0.11735395388E+04  0.00000000000E+00 0.  1.
          2   -1    0    0  501    0  0.00000000000E+00 -0.00000000000E+00 -0.13865373871E+04  0.13865373871E+04  0.00000000000E+00 0. -1.
         24    2    1    2    0    0  0.70569781005E+03 -0.35618402742E+03 -0.89070238930E+03  0.11935361697E+04  0.79381241873E+02 0.  0.
        254    2    1    2    0    0 -0.70569781005E+03  0.35618402742E+03  0.67770454098E+03  0.13665407562E+04  0.88502753235E+03 0.  0.
         23    2    4    4    0    0 -0.46792639260E+03  0.48744909127E+03  0.58238264746E+02  0.68407983514E+03  0.89508658216E+02 0.  0.
         23    2    4    4    0    0 -0.23777141745E+03 -0.13126506385E+03  0.61946627623E+03  0.68246092107E+03  0.90822229939E+02 0.  0.
          4    1    3    3  502    0  0.61690565282E+03 -0.32482037410E+03 -0.81637473974E+03  0.10735681514E+04  0.00000000000E+00 0. -1.
         -3    1    3    3    0  502  0.88792157235E+02 -0.31363653322E+02 -0.74327649555E+02  0.11996801834E+03  0.00000000000E+00 0.  1.
         11    1    5    5    0    0 -0.25485305935E+03  0.32745914635E+03  0.43514417419E+02  0.41722065973E+03  0.00000000000E+00 0. -1.
        -11    1    5    5    0    0 -0.21307333325E+03  0.15998994493E+03  0.14723847327E+02  0.26685917541E+03  0.00000000000E+00 0.  1.
          4    1    6    6  503    0 -0.64592409382E+02 -0.58951427756E+02  0.11684503224E+03  0.14594592061E+03  0.00000000000E+00 0. -1.
         -4    1    6    6    0  503 -0.17317900807E+03 -0.72313636094E+02  0.50262124399E+03  0.53651500045E+03  0.00000000000E+00 0.  1.
<mgrwt>
<rscale>  0 0.25512009E+04</rscale>
<asrwt>0</asrwt>
<pdfrwt beam="1">  1        2 0.21331344E+00 0.25512009E+04</pdfrwt>
<pdfrwt beam="2">  1       -1 0.18054455E+00 0.25512009E+04</pdfrwt>
<totfact> 0.30739235E+00</totfact>
</mgrwt>
</event>
<event>
12    6  0.1556619E-007  0.1870153E+04  0.7818608E-02  0.8669857E-01
          2   -1    0    0  501    0  0.00000000000E+00  0.00000000000E+00  0.15536975537E+04  0.15536975537E+04  0.00000000000E+00 0. -1.
         -1   -1    0    0    0  501 -0.00000000000E+00 -0.00000000000E+00 -0.56276606586E+03  0.56276606586E+03  0.00000000000E+00 0.  1.
         24    2    1    2    0    0  0.33487674301E+03  0.46991154390E+03 -0.86945377611E+02  0.58902369875E+03  0.80188072059E+02 0.  0.
        254    2    1    2    0    0 -0.33487674301E+03 -0.46991154390E+03  0.10778768655E+04  0.15274399208E+04  0.91558444860E+03 0.  0.
         23    2    4    4    0    0 -0.17771875740E+02 -0.10819400254E+03  0.10260924096E+04  0.10359213403E+04  0.90805333318E+02 0.  0.
         23    2    4    4    0    0 -0.31710486727E+03 -0.36171754136E+03  0.51784455890E+02  0.49151858051E+03  0.86682227389E+02 0.  0.
          2    1    3    3  502    0  0.23518655629E+01  0.35106249617E+02 -0.47879216598E+01  0.35509213278E+02  0.00000000000E+00 0. -1.
         -1    1    3    3    0  502  0.33252487745E+03  0.43480529428E+03 -0.82157455951E+02  0.55351448547E+03  0.00000000000E+00 0.  1.
         11    1    5    5    0    0 -0.57807775129E+01 -0.61120713536E+02  0.22112280521E+03  0.22948737219E+03  0.00000000000E+00 0. -1.
        -11    1    5    5    0    0 -0.11991098228E+02 -0.47073289006E+02  0.80496960439E+03  0.80643396814E+03  0.00000000000E+00 0.  1.
          2    1    6    6  503    0 -0.16364887359E+03 -0.22475787725E+03  0.64613638269E+02  0.28543296843E+03  0.00000000000E+00 0. -1.
         -2    1    6    6    0  503 -0.15345599368E+03 -0.13695966410E+03 -0.12829182378E+02  0.20608561209E+03  0.00000000000E+00 0.  1.
<mgrwt>
<rscale>  0 0.18701532E+04</rscale>
<asrwt>0</asrwt>
<pdfrwt beam="1">  1        2 0.23903039E+00 0.18701532E+04</pdfrwt>
<pdfrwt beam="2">  1       -1 0.86579395E-01 0.18701532E+04</pdfrwt>
<totfact> 0.16655513E+01</totfact>
</mgrwt>
</event>
<event>
12    6  0.1556619E-007  0.2146578E+04  0.7818608E-02  0.8540998E-01
          2   -1    0    0  501    0  0.00000000000E+00  0.00000000000E+00  0.19019846653E+04  0.19019846653E+04  0.00000000000E+00 0. -1.
         -1   -1    0    0    0  501 -0.00000000000E+00 -0.00000000000E+00 -0.60565667710E+03  0.60565667710E+03  0.00000000000E+00 0.  1.
         24    2    1    2    0    0  0.76175242789E+03  0.35520270950E+02  0.10486006645E+04  0.12994135895E+04  0.85929458626E+02 0.  0.
        254    2    1    2    0    0 -0.76175242789E+03 -0.35520270950E+02  0.24772732370E+03  0.12082277529E+04  0.90383462260E+03 0.  0.
         23    2    4    4    0    0 -0.68361300726E+02 -0.26743776950E+03  0.36065137000E+03  0.46252603934E+03  0.87548263236E+02 0.  0.
         23    2    4    4    0    0 -0.69339112716E+03  0.23191749855E+03 -0.11292404630E+03  0.74570171359E+03  0.93499861264E+02 0.  0.
          2    1    3    3  502    0  0.66123955869E+03  0.55840675528E+02  0.88152250174E+03  0.11033756641E+04  0.00000000000E+00 0. -1.
         -1    1    3    3    0  502  0.10051286920E+03 -0.20320404578E+02  0.16707816277E+03  0.19603792539E+03  0.00000000000E+00 0.  1.
         11    1    5    5    0    0 -0.68266110157E+02 -0.24388654411E+03  0.27568912582E+03  0.37435999024E+03  0.00000000000E+00 0. -1.
        -11    1    5    5    0    0 -0.95190568561E-01 -0.23551225385E+02  0.84962244186E+02  0.88166049109E+02  0.00000000000E+00 0.  1.
          3    1    6    6  503    0 -0.56644821021E+03  0.22040968281E+03 -0.11302426576E+03  0.61823821280E+03  0.00000000000E+00 0. -1.
         -3    1    6    6    0  503 -0.12694291696E+03  0.11507815739E+02  0.10021945264E+00  0.12746350079E+03  0.00000000000E+00 0.  1.
<mgrwt>
<rscale>  0 0.21465784E+04</rscale>
<asrwt>0</asrwt>
<pdfrwt beam="1">  1        2 0.29261302E+00 0.21465784E+04</pdfrwt>
<pdfrwt beam="2">  1       -1 0.93177951E-01 0.21465784E+04</pdfrwt>
<totfact> 0.88520788E+00</totfact>
</mgrwt>
</event>
<event>
12    6  0.1556619E-007  0.1327841E+04  0.7818608E-02  0.9007774E-01
          4   -1    0    0  501    0  0.00000000000E+00  0.00000000000E+00  0.51751375263E+03  0.51751375263E+03  0.00000000000E+00 0. -1.
         -3   -1    0    0    0  501 -0.00000000000E+00 -0.00000000000E+00 -0.85174587930E+03  0.85174587930E+03  0.00000000000E+00 0.  1.
         24    2    1    2    0    0 -0.58796139089E+02  0.24324225994E+03 -0.35341765777E+03  0.44056606626E+03  0.81059453018E+02 0.  0.
        254    2    1    2    0    0  0.58796139089E+02 -0.24324225994E+03  0.19185531098E+02  0.92869356567E+03  0.89413638295E+03 0.  0.
         23    2    4    4    0    0  0.93238198221E+02 -0.57647766561E+02  0.43720993653E+03  0.46040924998E+03  0.93848400440E+02 0.  0.
         23    2    4    4    0    0 -0.34442059132E+02 -0.18559449338E+03 -0.41802440543E+03  0.46828431569E+03  0.94415175562E+02 0.  0.
          4    1    3    3  502    0 -0.11419457820E+02 -0.33576401770E+01 -0.17550054649E+02  0.21205711085E+02  0.00000000000E+00 0. -1.
         -3    1    3    3    0  502 -0.47376681268E+02  0.24659990011E+03 -0.33586760313E+03  0.41936035518E+03  0.00000000000E+00 0.  1.
         11    1    5    5    0    0  0.75554645983E+02 -0.91057625482E+01  0.14590970728E+03  0.16456324657E+03  0.00000000000E+00 0. -1.
        -11    1    5    5    0    0  0.17683552238E+02 -0.48542004012E+02  0.29130022925E+03  0.29584600341E+03  0.00000000000E+00 0.  1.
          4    1    6    6  503    0 -0.57693774465E+02 -0.85395809926E+02 -0.15784756457E+03  0.18851225320E+03  0.00000000000E+00 0. -1.
         -4    1    6    6    0  503  0.23251715332E+02 -0.10019868345E+03 -0.26017684086E+03  0.27977206249E+03  0.00000000000E+00 0.  1.
<mgrwt>
<rscale>  0 0.13278407E+04</rscale>
<asrwt>0</asrwt>
<pdfrwt beam="1">  1        4 0.79617501E-01 0.13278407E+04</pdfrwt>
<pdfrwt beam="2">  1       -3 0.13103783E+00 0.13278407E+04</pdfrwt>
<totfact> 0.14282597E+00</totfact>
</mgrwt>
</event>
<event>
12    6  0.1556619E-007  0.1661118E+04  0.7818608E-02  0.8783856E-01
         -1   -1    0    0    0  501 -0.00000000000E+00  0.00000000000E+00  0.89407973414E+03  0.89407973414E+03  0.00000000000E+00 0.  1.
          2   -1    0    0  501    0  0.00000000000E+00 -0.00000000000E+00 -0.77155158941E+03  0.77155158941E+03  0.00000000000E+00 0. -1.
         24    2    1    2    0    0  0.42723788551E+02  0.48729504965E+03  0.36910725002E+03  0.61795630919E+03  0.79674654259E+02 0.  0.
        254    2    1    2    0    0 -0.42723788551E+02 -0.48729504965E+03 -0.24657910529E+03  0.10476750144E+04  0.89305089050E+03 0.  0.
         23    2    4    4    0    0  0.89938446562E+02 -0.63877457614E+03  0.75617813020E+02  0.65711569694E+03  0.99805321654E+02 0.  0.
         23    2    4    4    0    0 -0.13266223511E+03  0.15147952649E+03 -0.32219691831E+03  0.39055931742E+03  0.90445622823E+02 0.  0.
          4    1    3    3  502    0  0.43618178472E+02  0.17539552788E+03  0.10342249524E+03  0.20823628218E+03  0.00000000000E+00 0. -1.
         -3    1    3    3    0  502 -0.89438992163E+00  0.31189952177E+03  0.26568475478E+03  0.40972002701E+03  0.00000000000E+00 0.  1.
         11    1    5    5    0    0 -0.95476033616E+01 -0.26623584664E+03  0.46389351504E+02  0.27041570720E+03  0.00000000000E+00 0. -1.
        -11    1    5    5    0    0  0.99486049924E+02 -0.37253872949E+03  0.29228461517E+02  0.38669998974E+03  0.00000000000E+00 0.  1.
          3    1    6    6  503    0  0.55704959550E+01  0.27652723298E+02 -0.83941190086E+02  0.88554090386E+02  0.00000000000E+00 0. -1.
         -3    1    6    6    0  503 -0.13823273107E+03  0.12382680319E+03 -0.23825572822E+03  0.30200522704E+03  0.00000000000E+00 0.  1.
<mgrwt>
<rscale>  0 0.16611185E+04</rscale>
<asrwt>0</asrwt>
<pdfrwt beam="1">  1        2 0.11870024E+00 0.16611185E+04</pdfrwt>
<pdfrwt beam="2">  1       -1 0.13755073E+00 0.16611185E+04</pdfrwt>
<totfact> 0.17286533E+01</totfact>
</mgrwt>
</event>
<event>
12    6  0.1556619E-007  0.1231041E+04  0.7818608E-02  0.9086112E-01
         -3   -1    0    0    0  501 -0.00000000000E+00  0.00000000000E+00  0.16289968349E+03  0.16289968349E+03  0.00000000000E+00 0.  1.
          2   -1    0    0  501    0  0.00000000000E+00 -0.00000000000E+00 -0.23257600055E+04  0.23257600055E+04  0.00000000000E+00 0. -1.
         24    2    1    2    0    0  0.93749189577E+02  0.11016989732E+03 -0.97351968601E+03  0.98743152637E+03  0.79712755607E+02 0.  0.
        254    2    1    2    0    0 -0.93749189577E+02 -0.11016989732E+03 -0.11893406360E+04  0.15012281626E+04  0.90455985482E+03 0.  0.
         23    2    4    4    0    0 -0.30185075678E+03  0.30661526787E+02 -0.37354196731E+02  0.31874282746E+03  0.90264308829E+02 0.  0.
         23    2    4    4    0    0  0.20810156721E+03 -0.14083142410E+03 -0.11519864392E+04  0.11824853351E+04  0.89772263577E+02 0.  0.
          4    1    3    3  502    0  0.79219115405E+02  0.93129620896E+02 -0.55475881084E+03  0.56807229535E+03  0.00000000000E+00 0. -1.
         -3    1    3    3    0  502  0.14530074171E+02  0.17040276420E+02 -0.41876087516E+03  0.41935923102E+03  0.00000000000E+00 0.  1.
         11    1    5    5    0    0 -0.50679973166E+02  0.33557434703E+02 -0.29175258086E+02  0.67422227702E+02  0.00000000000E+00 0. -1.
        -11    1    5    5    0    0 -0.25117078362E+03 -0.28959079157E+01 -0.81789386452E+01  0.25132059976E+03  0.00000000000E+00 0.  1.
          1    1    6    6  503    0  0.48895434688E+02 -0.69865420128E+02 -0.25999617565E+03  0.27362374132E+03  0.00000000000E+00 0. -1.
         -1    1    6    6    0  503  0.15920613252E+03 -0.70966003975E+02 -0.89199026359E+03  0.90886159380E+03  0.00000000000E+00 0.  1.
<mgrwt>
<rscale>  0 0.12310411E+04</rscale>
<asrwt>0</asrwt>
<pdfrwt beam="1">  1        2 0.35780921E+00 0.12310411E+04</pdfrwt>
<pdfrwt beam="2">  1       -3 0.25061491E-01 0.12310411E+04</pdfrwt>
<totfact> 0.42761656E+01</totfact>
</mgrwt>
</event>
<event>
12    6  0.1556619E-007  0.1608743E+04  0.7818608E-02  0.8815195E-01
         -1   -1    0    0    0  501 -0.00000000000E+00  0.00000000000E+00  0.69508302470E+03  0.69508302470E+03  0.00000000000E+00 0.  1.
          2   -1    0    0  501    0  0.00000000000E+00 -0.00000000000E+00 -0.93084374879E+03  0.93084374879E+03  0.00000000000E+00 0. -1.
         24    2    1    2    0    0 -0.55814676904E+02 -0.48328413438E+03  0.18223087063E+03  0.52611388709E+03  0.83119788770E+02 0.  0.
        254    2    1    2    0    0  0.55814676904E+02  0.48328413438E+03 -0.41799159472E+03  0.10998128864E+04  0.89341624069E+03 0.  0.
         23    2    4    4    0    0  0.27216659451E+03  0.59649661611E+03 -0.71595540103E+02  0.66589721797E+03  0.91707771383E+02 0.  0.
         23    2    4    4    0    0 -0.21635191761E+03 -0.11321248174E+03 -0.34639605462E+03  0.43391566843E+03  0.93098670128E+02 0.  0.
          2    1    3    3  502    0 -0.24123841213E+02 -0.19485736108E+03  0.30581729143E+02  0.19871233741E+03  0.00000000000E+00 0. -1.
         -1    1    3    3    0  502 -0.31690835691E+02 -0.28842677329E+03  0.15164914149E+03  0.32740154968E+03  0.00000000000E+00 0.  1.
         11    1    5    5    0    0  0.25677330412E+03  0.57492694671E+03 -0.86370303518E+02  0.63555751360E+03  0.00000000000E+00 0.  1.
        -11    1    5    5    0    0  0.15393290390E+02  0.21569669406E+02  0.14774763416E+02  0.30339704370E+02  0.00000000000E+00 0. -1.
          4    1    6    6  503    0  0.43870249311E+01  0.81040893931E+01 -0.91107775992E+01  0.12958723745E+02  0.00000000000E+00 0. -1.
         -4    1    6    6    0  503 -0.22073894254E+03 -0.12131657113E+03 -0.33728527702E+03  0.42095694468E+03  0.00000000000E+00 0.  1.
<mgrwt>
<rscale>  0 0.16087432E+04</rscale>
<asrwt>0</asrwt>
<pdfrwt beam="1">  1        2 0.14320673E+00 0.16087432E+04</pdfrwt>
<pdfrwt beam="2">  1       -1 0.10693585E+00 0.16087432E+04</pdfrwt>
<totfact> 0.24944178E+01</totfact>
</mgrwt>
</event>
<event>
12    6  0.1556619E-007  0.4100102E+04  0.7818608E-02  0.7984652E-01
         -1   -1    0    0    0  501 -0.00000000000E+00  0.00000000000E+00  0.23407588970E+04  0.23407588970E+04  0.00000000000E+00 0.  1.
          2   -1    0    0  501    0  0.00000000000E+00 -0.00000000000E+00 -0.17954475481E+04  0.17954475481E+04  0.00000000000E+00 0. -1.
         24    2    1    2    0    0 -0.30859585808E+03 -0.18292399515E+04  0.85854799551E+03  0.20456807801E+04  0.79718187849E+02 0.  0.
        254    2    1    2    0    0  0.30859585808E+03  0.18292399515E+04 -0.31323664653E+03  0.20905256650E+04  0.91149885113E+03 0.  0.
         23    2    4    4    0    0  0.22437497293E+03  0.48656953429E+03  0.28710340459E+03  0.61447844304E+03  0.89785031359E+02 0.  0.
         23    2    4    4    0    0  0.84220885154E+02  0.13426704172E+04 -0.60034005112E+03  0.14760472220E+04  0.91925066282E+02 0.  0.
          2    1    3    3  502    0 -0.29850833108E+03 -0.18064095645E+04  0.85411519531E+03  0.20203305435E+04  0.00000000000E+00 0. -1.
         -1    1    3    3    0  502 -0.10087526997E+02 -0.22830387053E+02  0.44328001928E+01  0.25350236517E+02  0.00000000000E+00 0.  1.
         11    1    5    5    0    0  0.21797607430E+03  0.39247659443E+03  0.23957150894E+03  0.50886732460E+03  0.00000000000E+00 0.  1.
        -11    1    5    5    0    0  0.63988986265E+01  0.94092939857E+02  0.47531895646E+02  0.10561111844E+03  0.00000000000E+00 0. -1.
          4    1    6    6  503    0 -0.24238341372E+01  0.48681580257E+03 -0.18488354998E+03  0.52074699006E+03  0.00000000000E+00 0.  1.
         -4    1    6    6    0  503  0.86644719291E+02  0.85585461466E+03 -0.41545650113E+03  0.95530023194E+03  0.00000000000E+00 0. -1.
<mgrwt>
<rscale>  0 0.41001024E+04</rscale>
<asrwt>0</asrwt>
<pdfrwt beam="1">  1        2 0.27622270E+00 0.41001024E+04</pdfrwt>
<pdfrwt beam="2">  1       -1 0.36011675E+00 0.41001024E+04</pdfrwt>
<totfact> 0.10284366E-01</totfact>
</mgrwt>
</event>
<event>
12    6  0.1556619E-007  0.2428414E+04  0.7818608E-02  0.8428942E-01
         -1   -1    0    0    0  501 -0.00000000000E+00  0.00000000000E+00  0.16188837811E+04  0.16188837811E+04  0.00000000000E+00 0.  1.
          2   -1    0    0  501    0  0.00000000000E+00 -0.00000000000E+00 -0.91068831560E+03  0.91068831560E+03  0.00000000000E+00 0. -1.
         24    2    1    2    0    0 -0.69769414456E+03  0.13349952786E+03  0.11052542440E+04  0.13163072692E+04  0.80489999081E+02 0.  0.
        254    2    1    2    0    0  0.69769414456E+03 -0.13349952786E+03 -0.39705877843E+03  0.12132648275E+04  0.89986478141E+03 0.  0.
         23    2    4    4    0    0  0.62447240262E+03 -0.75232021732E+02 -0.66242774557E+03  0.91765457380E+03  0.87485770232E+02 0.  0.
         23    2    4    4    0    0  0.73221741938E+02 -0.58267506129E+02  0.26536896714E+03  0.29561025369E+03  0.90599158959E+02 0.  0.
          2    1    3    3  502    0 -0.59811605561E+02  0.14541912575E+02  0.14331347070E+03  0.15597322291E+03  0.00000000000E+00 0. -1.
         -1    1    3    3    0  502 -0.63788253900E+03  0.11895761529E+03  0.96194077327E+03  0.11603340463E+04  0.00000000000E+00 0.  1.
         11    1    5    5    0    0  0.41707699830E+03 -0.54091615873E+02 -0.50011470483E+03  0.65344765927E+03  0.00000000000E+00 0. -1.
        -11    1    5    5    0    0  0.20739540432E+03 -0.21140405860E+02 -0.16231304074E+03  0.26420691453E+03  0.00000000000E+00 0.  1.
          2    1    6    6  503    0 -0.52500304358E+01 -0.17042804765E+01  0.12509422650E+03  0.12521594505E+03  0.00000000000E+00 0.  1.
         -2    1    6    6    0  503  0.78471772374E+02 -0.56563225653E+02  0.14027474064E+03  0.17039430864E+03  0.00000000000E+00 0. -1.
<mgrwt>
<rscale>  0 0.24284139E+04</rscale>
<asrwt>0</asrwt>
<pdfrwt beam="1">  1        2 0.14010589E+00 0.24284139E+04</pdfrwt>
<pdfrwt beam="2">  1       -1 0.24905904E+00 0.24284139E+04</pdfrwt>
<totfact> 0.20862324E+00</totfact>
</mgrwt>
</event>
<event>
12    6  0.1556619E-007  0.3145535E+04  0.7818608E-02  0.8203351E-01
         -1   -1    0    0    0  501 -0.00000000000E+00  0.00000000000E+00  0.11554700595E+04  0.11554700595E+04  0.00000000000E+00 0.  1.
          2   -1    0    0  501    0  0.00000000000E+00 -0.00000000000E+00 -0.21407716041E+04  0.21407716041E+04  0.00000000000E+00 0. -1.
         24    2    1    2    0    0 -0.31711049191E+02  0.73816797192E+03  0.84699094140E+03  0.11267350995E+04  0.78998634069E+02 0.  0.
        254    2    1    2    0    0  0.31711049191E+02 -0.73816797192E+03 -0.18322924859E+04  0.21695065641E+04  0.89641811237E+03 0.  0.
         23    2    4    4    0    0 -0.20244970513E+03 -0.77468968797E+03 -0.92320348427E+03  0.12253325679E+04  0.89471966187E+02 0.  0.
         23    2    4    4    0    0  0.23416075432E+03  0.36521716051E+02 -0.90908900167E+03  0.94417399623E+03  0.94109657262E+02 0.  0.
          4    1    3    3  502    0  0.51348217677E+00 -0.20551382773E+01  0.28488615861E+01  0.35501083957E+01  0.00000000000E+00 0. -1.
         -3    1    3    3    0  502 -0.32224531368E+02  0.74022311020E+03  0.84414207981E+03  0.11231849911E+04  0.00000000000E+00 0.  1.
         11    1    5    5    0    0 -0.15973810990E+03 -0.61213291469E+03 -0.67052645914E+03  0.92186154134E+03  0.00000000000E+00 0. -1.
        -11    1    5    5    0    0 -0.42711595230E+02 -0.16255677328E+03 -0.25267702513E+03  0.30347102652E+03  0.00000000000E+00 0.  1.
          3    1    6    6  503    0  0.14418026779E+03  0.24109935855E+02 -0.71622591784E+03  0.73099165796E+03  0.00000000000E+00 0. -1.
         -3    1    6    6    0  503  0.89980486530E+02  0.12411780196E+02 -0.19286308383E+03  0.21318233827E+03  0.00000000000E+00 0.  1.
<mgrwt>
<rscale>  0 0.31455349E+04</rscale>
<asrwt>0</asrwt>
<pdfrwt beam="1">  1        2 0.32934948E+00 0.31455349E+04</pdfrwt>
<pdfrwt beam="2">  1       -1 0.17776462E+00 0.31455349E+04</pdfrwt>
<totfact> 0.11581333E+00</totfact>
</mgrwt>
</event>
<event>
12    6  0.1556619E-007  0.1823848E+04  0.7818608E-02  0.8693719E-01
         -1   -1    0    0    0  501 -0.00000000000E+00  0.00000000000E+00  0.67780540391E+03  0.67780540391E+03  0.00000000000E+00 0.  1.
          2   -1    0    0  501    0  0.00000000000E+00 -0.00000000000E+00 -0.12269080841E+04  0.12269080841E+04  0.00000000000E+00 0. -1.
         24    2    1    2    0    0 -0.58233320497E+03  0.32352530836E+03 -0.21813440632E+02  0.67195887357E+03  0.85277868315E+02 0.  0.
        254    2    1    2    0    0  0.58233320497E+03 -0.32352530836E+03 -0.52728923959E+03  0.12327546145E+04  0.89323536125E+03 0.  0.
         23    2    4    4    0    0 -0.70399720855E+02  0.22740139437E+03 -0.12748626687E+03  0.28497724548E+03  0.91059142019E+02 0.  0.
         23    2    4    4    0    0  0.65273292582E+03 -0.55092670273E+03 -0.39980297272E+03  0.94777736899E+03  0.94122366919E+02 0.  0.
          2    1    3    3  502    0 -0.55079088344E+02  0.46255417836E+02  0.20365985592E+02  0.74753214119E+02  0.00000000000E+00 0. -1.
         -1    1    3    3    0  502 -0.52725411662E+03  0.27726989052E+03 -0.42179426224E+02  0.59720565945E+03  0.00000000000E+00 0.  1.
         11    1    5    5    0    0 -0.76884981569E+02  0.22361634853E+03 -0.10044704966E+03  0.25691473587E+03  0.00000000000E+00 0. -1.
        -11    1    5    5    0    0  0.64852607141E+01  0.37850458375E+01 -0.27039217208E+02  0.28062509613E+02  0.00000000000E+00 0.  1.
          1    1    6    6  503    0  0.63937683887E+03 -0.55320475247E+03 -0.39025427265E+03  0.93120171690E+03  0.00000000000E+00 0. -1.
         -1    1    6    6    0  503  0.13356086954E+02  0.22780497436E+01 -0.95487000678E+01  0.16575652094E+02  0.00000000000E+00 0.  1.
<mgrwt>
<rscale>  0 0.18238475E+04</rscale>
<asrwt>0</asrwt>
<pdfrwt beam="1">  1        2 0.18875509E+00 0.18238475E+04</pdfrwt>
<pdfrwt beam="2">  1       -1 0.10427776E+00 0.18238475E+04</pdfrwt>
<totfact> 0.16968331E+01</totfact>
</mgrwt>
</event>
<event>
12    6  0.1556619E-007  0.3310311E+04  0.7818608E-02  0.8160277E-01
         -1   -1    0    0    0  501 -0.00000000000E+00  0.00000000000E+00  0.63039692882E+03  0.63039692882E+03  0.00000000000E+00 0.  1.
          2   -1    0    0  501    0  0.00000000000E+00 -0.00000000000E+00 -0.43457383612E+04  0.43457383612E+04  0.00000000000E+00 0. -1.
         24    2    1    2    0    0 -0.10990082458E+04 -0.17632218165E+03 -0.33035642347E+04  0.34869500580E+04  0.79846216701E+02 0.  0.
        254    2    1    2    0    0  0.10990082458E+04  0.17632218165E+03 -0.41177719773E+03  0.14891852321E+04  0.89955742385E+03 0.  0.
         23    2    4    4    0    0  0.12955612090E+02  0.10576826618E+03  0.19385348898E+03  0.24032046845E+03  0.93914739802E+02 0.  0.
         23    2    4    4    0    0  0.10860526337E+04  0.70553915472E+02 -0.60563068671E+03  0.12488647636E+04  0.91577786573E+02 0.  0.
          2    1    3    3  502    0 -0.10566393320E+04 -0.17945248834E+03 -0.31362198017E+04  0.33142969870E+04  0.00000000000E+00 0. -1.
         -1    1    3    3    0  502 -0.42368913761E+02  0.31303066947E+01 -0.16734443300E+03  0.17265307101E+03  0.00000000000E+00 0.  1.
         11    1    5    5    0    0  0.38034782341E+02  0.84804845133E+02  0.18406411935E+03  0.20619919122E+03  0.00000000000E+00 0.  1.
        -11    1    5    5    0    0 -0.25079170251E+02  0.20963421045E+02  0.97893696283E+01  0.34121277235E+02  0.00000000000E+00 0. -1.
          4    1    6    6  503    0  0.93810216530E+03  0.36951411328E+02 -0.49700414695E+03  0.10622684225E+04  0.00000000000E+00 0. -1.
         -4    1    6    6    0  503  0.14795046838E+03  0.33602504144E+02 -0.10862653976E+03  0.18659634111E+03  0.00000000000E+00 0.  1.
<mgrwt>
<rscale>  0 0.33103112E+04</rscale>
<asrwt>0</asrwt>
<pdfrwt beam="1">  1        2 0.66857512E+00 0.33103112E+04</pdfrwt>
<pdfrwt beam="2">  1       -1 0.96984144E-01 0.33103112E+04</pdfrwt>
<totfact> 0.16636918E-01</totfact>
</mgrwt>
</event>
<event>
12    6  0.1556619E-007  0.4162952E+04  0.7818608E-02  0.7972457E-01
          2   -1    0    0  501    0  0.00000000000E+00  0.00000000000E+00  0.21546268553E+04  0.21546268553E+04  0.00000000000E+00 0. -1.
         -1   -1    0    0    0  501 -0.00000000000E+00 -0.00000000000E+00 -0.20108083118E+04  0.20108083118E+04  0.00000000000E+00 0.  1.
         24    2    1    2    0    0  0.13330846116E+04  0.34455516931E+03 -0.13607819748E+04  0.19375486129E+04  0.80834387151E+02 0.  0.
        254    2    1    2    0    0 -0.13330846116E+04 -0.34455516931E+03  0.15046005183E+04  0.22278865542E+04  0.89656172811E+03 0.  0.
         23    2    4    4    0    0 -0.12390004212E+04 -0.54317960639E+02  0.86725271519E+03  0.15156505610E+04  0.83647274083E+02 0.  0.
         23    2    4    4    0    0 -0.94084190409E+02 -0.29023720868E+03  0.63734780312E+03  0.71223599321E+03  0.89321977707E+02 0.  0.
          4    1    3    3  502    0  0.68879479450E+03  0.18216744451E+03 -0.64758515835E+03  0.96280308687E+03  0.00000000000E+00 0. -1.
         -3    1    3    3    0  502  0.64428981710E+03  0.16238772480E+03 -0.71319681641E+03  0.97474552604E+03  0.00000000000E+00 0.  1.
         11    1    5    5    0    0 -0.31560861569E+03 -0.12532941301E+02  0.26627821380E+03  0.41312220960E+03  0.00000000000E+00 0.  1.
        -11    1    5    5    0    0 -0.92339180551E+03 -0.41785019338E+02  0.60097450139E+03  0.11025283514E+04  0.00000000000E+00 0. -1.
          2    1    6    6  503    0 -0.69491894912E+02 -0.90491232819E+02  0.27540228395E+03  0.29810099745E+03  0.00000000000E+00 0. -1.
         -2    1    6    6    0  503 -0.24592295497E+02 -0.19974597586E+03  0.36194551917E+03  0.41413499576E+03  0.00000000000E+00 0.  1.
<mgrwt>
<rscale>  0 0.41629516E+04</rscale>
<asrwt>0</asrwt>
<pdfrwt beam="1">  1        2 0.33148106E+00 0.41629516E+04</pdfrwt>
<pdfrwt beam="2">  1       -1 0.30935512E+00 0.41629516E+04</pdfrwt>
<totfact> 0.13925330E-01</totfact>
</mgrwt>
</event>
<event>
12    6  0.1556619E-007  0.2311277E+04  0.7818608E-02  0.8473488E-01
          2   -1    0    0  501    0  0.00000000000E+00  0.00000000000E+00  0.12686538567E+04  0.12686538567E+04  0.00000000000E+00 0. -1.
         -3   -1    0    0    0  501 -0.00000000000E+00 -0.00000000000E+00 -0.10526907599E+04  0.10526907599E+04  0.00000000000E+00 0.  1.
         24    2    1    2    0    0  0.19495332409E+03 -0.31324291818E+03 -0.80443603318E+03  0.88881096950E+03  0.82095576319E+02 0.  0.
        254    2    1    2    0    0 -0.19495332409E+03  0.31324291818E+03  0.10203991300E+04  0.14325336470E+04  0.93531296422E+03 0.  0.
         23    2    4    4    0    0  0.32942704342E+03  0.32539706308E+03  0.51296441363E+03  0.69703810569E+03  0.91237084238E+02 0.  0.
         23    2    4    4    0    0 -0.52438036751E+03 -0.12154144898E+02  0.50743471635E+03  0.73549554134E+03  0.91330208044E+02 0.  0.
          2    1    3    3  502    0  0.15157076858E+03 -0.17880541042E+03 -0.54827715713E+03  0.59628257875E+03  0.00000000000E+00 0. -1.
         -1    1    3    3    0  502  0.43382555515E+02 -0.13443750776E+03 -0.25615887605E+03  0.29252839075E+03  0.00000000000E+00 0.  1.
         11    1    5    5    0    0  0.51889800188E+02  0.10496099601E+03  0.11479122864E+03  0.16397069318E+03  0.00000000000E+00 0. -1.
        -11    1    5    5    0    0  0.27753724323E+03  0.22043606707E+03  0.39817318498E+03  0.53306741252E+03  0.00000000000E+00 0.  1.
          4    1    6    6  503    0 -0.43803645879E+03  0.22601834684E+02  0.43267943618E+03  0.61611547347E+03  0.00000000000E+00 0.  1.
         -4    1    6    6    0  503 -0.86343908723E+02 -0.34755979582E+02  0.74755280165E+02  0.11938006786E+03  0.00000000000E+00 0. -1.
<mgrwt>
<rscale>  0 0.23112769E+04</rscale>
<asrwt>0</asrwt>
<pdfrwt beam="1">  1        2 0.19517752E+00 0.23112769E+04</pdfrwt>
<pdfrwt beam="2">  1       -3 0.16195242E+00 0.23112769E+04</pdfrwt>
<totfact> 0.26030082E+00</totfact>
</mgrwt>
</event>
<event>
12    6  0.1556619E-007  0.1752242E+04  0.7818608E-02  0.8732117E-01
         -1   -1    0    0    0  501 -0.00000000000E+00  0.00000000000E+00  0.18850248233E+04  0.18850248233E+04  0.00000000000E+00 0.  1.
          2   -1    0    0  501    0  0.00000000000E+00 -0.00000000000E+00 -0.40720294532E+03  0.40720294532E+03  0.00000000000E+00 0. -1.
         24    2    1    2    0    0 -0.20385366590E+03 -0.40946626135E+02  0.13354150487E+04  0.13540300650E+04  0.82650597859E+02 0.  0.
        254    2    1    2    0    0  0.20385366590E+03  0.40946626135E+02  0.14240682922E+03  0.93819770357E+03  0.90371581964E+03 0.  0.
         23    2    4    4    0    0  0.86419179617E+02  0.19015679786E+03  0.48517519412E+03  0.53584031020E+03  0.90011036374E+02 0.  0.
         23    2    4    4    0    0  0.11743448628E+03 -0.14921017172E+03 -0.34276836490E+03  0.40235739337E+03  0.91360747098E+02 0.  0.
          4    1    3    3  502    0 -0.41176302927E+02 -0.28235588701E+02  0.52384109219E+03  0.52621500003E+03  0.00000000000E+00 0. -1.
         -3    1    3    3    0  502 -0.16267736297E+03 -0.12711037434E+02  0.81157395654E+03  0.82781506499E+03  0.00000000000E+00 0.  1.
         11    1    5    5    0    0  0.99336314262E+02  0.16603434094E+03  0.45838516045E+03  0.49754603909E+03  0.00000000000E+00 0. -1.
        -11    1    5    5    0    0 -0.12917134645E+02  0.24122456918E+02  0.26790033673E+02  0.38294271104E+02  0.00000000000E+00 0.  1.
          4    1    6    6  503    0  0.41398648292E+02 -0.53771964261E+02 -0.21596999774E+03  0.22638090058E+03  0.00000000000E+00 0. -1.
         -4    1    6    6    0  503  0.76035837991E+02 -0.95438207461E+02 -0.12679836715E+03  0.17597649279E+03  0.00000000000E+00 0.  1.
<mgrwt>
<rscale>  0 0.17522416E+04</rscale>
<asrwt>0</asrwt>
<pdfrwt beam="1">  1        2 0.62646608E-01 0.17522416E+04</pdfrwt>
<pdfrwt beam="2">  1       -1 0.29000381E+00 0.17522416E+04</pdfrwt>
<totfact> 0.32408095E+00</totfact>
</mgrwt>
</event>
<event>
12    6  0.1556619E-007  0.1562357E+04  0.7818608E-02  0.8844013E-01
         -1   -1    0    0    0  501 -0.00000000000E+00  0.00000000000E+00  0.47547850661E+03  0.47547850661E+03  0.00000000000E+00 0.  1.
          2   -1    0    0  501    0  0.00000000000E+00 -0.00000000000E+00 -0.12834220874E+04  0.12834220874E+04  0.00000000000E+00 0. -1.
         24    2    1    2    0    0  0.21051743458E+02  0.50832116035E+03 -0.33863277241E+03  0.61632903929E+03  0.79722971392E+02 0.  0.
        254    2    1    2    0    0 -0.21051743458E+02 -0.50832116035E+03 -0.46931080835E+03  0.11425715547E+04  0.90905640352E+03 0.  0.
         23    2    4    4    0    0  0.22110822999E+03 -0.33923129061E+03 -0.65977916110E+03  0.77939837649E+03  0.90479665979E+02 0.  0.
         23    2    4    4    0    0 -0.24215997345E+03 -0.16908986974E+03  0.19046835274E+03  0.36317317820E+03  0.91562695331E+02 0.  0.
          4    1    3    3  502    0 -0.44998219145E+01  0.36260268625E+03 -0.27581147419E+03  0.45560171836E+03  0.00000000000E+00 0. -1.
         -3    1    3    3    0  502  0.25551565373E+02  0.14571847410E+03 -0.62821298218E+02  0.16072732094E+03  0.00000000000E+00 0.  1.
         11    1    5    5    0    0  0.12100078251E+03 -0.26080508751E+03 -0.46942893896E+03  0.55047616821E+03  0.00000000000E+00 0.  1.
        -11    1    5    5    0    0  0.10010744748E+03 -0.78426203108E+02 -0.19035022214E+03  0.22892220828E+03  0.00000000000E+00 0. -1.
          3    1    6    6  503    0 -0.94979888320E+02 -0.38626274894E+02  0.23532119537E+02  0.10519947218E+03  0.00000000000E+00 0. -1.
         -3    1    6    6    0  503 -0.14718008513E+03 -0.13046359484E+03  0.16693623321E+03  0.25797370602E+03  0.00000000000E+00 0.  1.
<mgrwt>
<rscale>  0 0.15623567E+04</rscale>
<asrwt>0</asrwt>
<pdfrwt beam="1">  1        2 0.19744955E+00 0.15623567E+04</pdfrwt>
<pdfrwt beam="2">  1       -1 0.73150540E-01 0.15623567E+04</pdfrwt>
<totfact> 0.34910978E+01</totfact>
</mgrwt>
</event>
<event>
12    6  0.1556619E-007  0.4689994E+04  0.7818608E-02  0.7878193E-01
          2   -1    0    0  501    0  0.00000000000E+00  0.00000000000E+00  0.36738170844E+04  0.36738170844E+04  0.00000000000E+00 0. -1.
         -1   -1    0    0    0  501 -0.00000000000E+00 -0.00000000000E+00 -0.14968116082E+04  0.14968116082E+04  0.00000000000E+00 0.  1.
         24    2    1    2    0    0 -0.17620321546E+04 -0.13437296590E+04  0.56848014396E+03  0.22891655501E+04  0.82112917750E+02 0.  0.
        254    2    1    2    0    0  0.17620321546E+04  0.13437296590E+04  0.16085253322E+04  0.28814631424E+04  0.89727887870E+03 0.  0.
         23    2    4    4    0    0  0.14544229955E+04  0.88700546053E+03  0.76485338332E+03  0.18698321588E+04  0.95638210550E+02 0.  0.
         23    2    4    4    0    0  0.30760915918E+03  0.45672419846E+03  0.84367194893E+03  0.10116309836E+04  0.91621511410E+02 0.  0.
          2    1    3    3  502    0 -0.21092273292E+03 -0.12842724735E+03  0.64428426921E+02  0.25521163634E+03  0.00000000000E+00 0. -1.
         -1    1    3    3    0  502 -0.15511094217E+04 -0.12153024116E+04  0.50405171704E+03  0.20339539138E+04  0.00000000000E+00 0.  1.
         11    1    5    5    0    0  0.40948478518E+02  0.15401919685E+02  0.34499065048E+02  0.55715191035E+02  0.00000000000E+00 0. -1.
        -11    1    5    5    0    0  0.14134745170E+04  0.87160354085E+03  0.73035431827E+03  0.18141169678E+04  0.00000000000E+00 0.  1.
          4    1    6    6  503    0  0.89759622221E+01  0.39268050266E+02  0.32725697481E+02  0.51899122778E+02  0.00000000000E+00 0. -1.
         -4    1    6    6    0  503  0.29863319696E+03  0.41745614820E+03  0.81094625145E+03  0.95973186085E+03  0.00000000000E+00 0.  1.
<mgrwt>
<rscale>  0 0.46899945E+04</rscale>
<asrwt>0</asrwt>
<pdfrwt beam="1">  1        2 0.56520262E+00 0.46899945E+04</pdfrwt>
<pdfrwt beam="2">  1       -1 0.23027871E+00 0.46899945E+04</pdfrwt>
<totfact> 0.48445448E-02</totfact>
</mgrwt>
</event>
<event>
12    6  0.1556619E-007  0.2399364E+04  0.7818608E-02  0.8439742E-01
         -1   -1    0    0    0  501 -0.00000000000E+00  0.00000000000E+00  0.67884263864E+03  0.67884263864E+03  0.00000000000E+00 0.  1.
          2   -1    0    0  501    0  0.00000000000E+00 -0.00000000000E+00 -0.21201335730E+04  0.21201335730E+04  0.00000000000E+00 0. -1.
         24    2    1    2    0    0  0.52155977117E+03  0.22211947291E+03 -0.16224037791E+04  0.17204208340E+04  0.79323189517E+02 0.  0.
        254    2    1    2    0    0 -0.52155977117E+03 -0.22211947291E+03  0.18111284484E+03  0.10785553776E+04  0.89950996925E+03 0.  0.
         23    2    4    4    0    0 -0.50535428128E+03  0.24899486171E+03  0.18155057258E+03  0.59898140604E+03  0.91851639124E+02 0.  0.
         23    2    4    4    0    0 -0.16205489883E+02 -0.47111433461E+03 -0.43772773845E+00  0.47957397153E+03  0.88202428442E+02 0.  0.
          4    1    3    3  502    0  0.42775032068E+03  0.19968796873E+03 -0.12643292391E+04  0.13495829157E+04  0.00000000000E+00 0. -1.
         -3    1    3    3    0  502  0.93809450484E+02  0.22431504179E+02 -0.35807454010E+03  0.37083791830E+03  0.00000000000E+00 0.  1.
         11    1    5    5    0    0 -0.16017674474E+03  0.58271383413E+02  0.15721538898E+02  0.17117041352E+03  0.00000000000E+00 0.  1.
        -11    1    5    5    0    0 -0.34517753655E+03  0.19072347829E+03  0.16582903368E+03  0.42781099252E+03  0.00000000000E+00 0. -1.
          1    1    6    6  503    0 -0.15706171872E+02 -0.43540618601E+03  0.23921505683E+02  0.43634558447E+03  0.00000000000E+00 0. -1.
         -1    1    6    6    0  503 -0.49931801093E+00 -0.35708148606E+02 -0.24359233421E+02  0.43228387065E+02  0.00000000000E+00 0.  1.
<mgrwt>
<rscale>  0 0.23993641E+04</rscale>
<asrwt>0</asrwt>
<pdfrwt beam="1">  1        2 0.32617439E+00 0.23993641E+04</pdfrwt>
<pdfrwt beam="2">  1       -1 0.10443733E+00 0.23993641E+04</pdfrwt>
<totfact> 0.50499229E+00</totfact>
</mgrwt>
</event>
<event>
12    6  0.1556619E-007  0.3375293E+04  0.7818608E-02  0.8143997E-01
         -1   -1    0    0    0  501 -0.00000000000E+00  0.00000000000E+00  0.95624377611E+03  0.95624377611E+03  0.00000000000E+00 0.  1.
          2   -1    0    0  501    0  0.00000000000E+00 -0.00000000000E+00 -0.29784774964E+04  0.29784774964E+04  0.00000000000E+00 0. -1.
         24    2    1    2    0    0 -0.10362857892E+04 -0.54127044525E+03  0.27746445800E+03  0.12045784559E+04  0.84621506309E+02 0.  0.
        254    2    1    2    0    0  0.10362857892E+04  0.54127044525E+03 -0.22996981783E+04  0.27301428166E+04  0.89342383892E+03 0.  0.
         23    2    4    4    0    0 -0.53291388296E+02  0.10227359185E+03 -0.84215451333E+00  0.14679181493E+03  0.90814470484E+02 0.  0.
         23    2    4    4    0    0  0.10895771775E+04  0.43899685340E+03 -0.22988560238E+04  0.25833510017E+04  0.95219308550E+02 0.  0.
          4    1    3    3  502    0 -0.86031836481E+02 -0.22863180051E+02  0.10139673134E+02  0.89593609491E+02  0.00000000000E+00 0. -1.
         -3    1    3    3    0  502 -0.95025395268E+03 -0.51840726520E+03  0.26732478486E+03  0.11149848464E+04  0.00000000000E+00 0.  1.
         11    1    5    5    0    0  0.21012550719E+02  0.90579871012E+01 -0.14057398932E+02  0.26854885641E+02  0.00000000000E+00 0. -1.
        -11    1    5    5    0    0 -0.74303939015E+02  0.93215604750E+02  0.13215244418E+02  0.11993692929E+03  0.00000000000E+00 0.  1.
          1    1    6    6  503    0  0.60996110069E+03  0.23211902215E+03 -0.11761818007E+04  0.13451153902E+04  0.00000000000E+00 0. -1.
         -1    1    6    6    0  503  0.47961607677E+03  0.20687783125E+03 -0.11226742231E+04  0.12382356114E+04  0.00000000000E+00 0.  1.
<mgrwt>
<rscale>  0 0.33752929E+04</rscale>
<asrwt>0</asrwt>
<pdfrwt beam="1">  1        2 0.45822730E+00 0.33752929E+04</pdfrwt>
<pdfrwt beam="2">  1       -1 0.14711443E+00 0.33752929E+04</pdfrwt>
<totfact> 0.62200776E-01</totfact>
</mgrwt>
</event>
<event>
12    6  0.1556619E-007  0.1951967E+04  0.7818608E-02  0.8629413E-01
          2   -1    0    0  501    0  0.00000000000E+00  0.00000000000E+00  0.57137358361E+03  0.57137358361E+03  0.00000000000E+00 0. -1.
         -1   -1    0    0    0  501 -0.00000000000E+00 -0.00000000000E+00 -0.16671119514E+04  0.16671119514E+04  0.00000000000E+00 0.  1.
         24    2    1    2    0    0 -0.29696710021E+03 -0.70028625229E+03 -0.19913715321E+03  0.79054756700E+03  0.81972898827E+02 0.  0.
        254    2    1    2    0    0  0.29696710021E+03  0.70028625229E+03 -0.89660121458E+03  0.14479379680E+04  0.84500906947E+03 0.  0.
         23    2    4    4    0    0 -0.18184598185E+03 -0.24956093205E+02 -0.38249711882E+03  0.43441807459E+03  0.93403693275E+02 0.  0.
         23    2    4    4    0    0  0.47881308205E+03  0.72524234550E+03 -0.51410409576E+03  0.10135198934E+04  0.87642032492E+02 0.  0.
          4    1    3    3  502    0 -0.18087534340E+03 -0.40073036532E+03 -0.15542065171E+03  0.46632209311E+03  0.00000000000E+00 0. -1.
         -3    1    3    3    0  502 -0.11609175681E+03 -0.29955588697E+03 -0.43716501506E+02  0.32422547389E+03  0.00000000000E+00 0.  1.
         11    1    5    5    0    0 -0.75367779015E+02  0.29323638979E+02 -0.10708183193E+03  0.13418903326E+03  0.00000000000E+00 0.  1.
        -11    1    5    5    0    0 -0.10647820283E+03 -0.54279732184E+02 -0.27541528689E+03  0.30022904133E+03  0.00000000000E+00 0. -1.
          4    1    6    6  503    0  0.38540057246E+03  0.63876781568E+03 -0.43292835313E+03  0.86254558288E+03  0.00000000000E+00 0. -1.
         -4    1    6    6    0  503  0.93412509590E+02  0.86474529816E+02 -0.81175742633E+02  0.15097431055E+03  0.00000000000E+00 0.  1.
<mgrwt>
<rscale>  0 0.19519669E+04</rscale>
<asrwt>0</asrwt>
<pdfrwt beam="1">  1        2 0.87903628E-01 0.19519669E+04</pdfrwt>
<pdfrwt beam="2">  1       -1 0.25647876E+00 0.19519669E+04</pdfrwt>
<totfact> 0.35448085E+00</totfact>
</mgrwt>
</event>
<event>
12    6  0.1556619E-007  0.1454279E+04  0.7818608E-02  0.8915439E-01
         -1   -1    0    0    0  501 -0.00000000000E+00  0.00000000000E+00  0.34828247011E+03  0.34828247011E+03  0.00000000000E+00 0.  1.
          2   -1    0    0  501    0  0.00000000000E+00 -0.00000000000E+00 -0.15181118407E+04  0.15181118407E+04  0.00000000000E+00 0. -1.
         24    2    1    2    0    0 -0.15399737739E+03  0.36203054574E+03 -0.12899839896E+03  0.42175042477E+03  0.80321389206E+02 0.  0.
        254    2    1    2    0    0  0.15399737739E+03 -0.36203054574E+03 -0.10408309716E+04  0.14446438860E+04  0.92134984542E+03 0.  0.
         23    2    4    4    0    0 -0.16667347941E+03  0.24125633522E+03 -0.25350385777E+03  0.39822167881E+03  0.91277771363E+02 0.  0.
         23    2    4    4    0    0  0.32067085679E+03 -0.60328688097E+03 -0.78732711383E+03  0.10464222072E+04  0.91272079048E+02 0.  0.
          4    1    3    3  502    0 -0.65656601814E+02  0.78164496290E+02 -0.14210191246E+02  0.10306506381E+03  0.00000000000E+00 0. -1.
         -3    1    3    3    0  502 -0.88340775571E+02  0.28386604945E+03 -0.11478820771E+03  0.31868536096E+03  0.00000000000E+00 0.  1.
         11    1    5    5    0    0 -0.47342724452E+02  0.78090879497E+02 -0.13777651338E+03  0.16529333519E+03  0.00000000000E+00 0.  1.
        -11    1    5    5    0    0 -0.11933075495E+03  0.16316545573E+03 -0.11572734439E+03  0.23292834362E+03  0.00000000000E+00 0. -1.
          2    1    6    6  503    0  0.20061722351E+02 -0.18564992877E+02 -0.60269945981E+02  0.66178531661E+02  0.00000000000E+00 0. -1.
         -2    1    6    6    0  503  0.30060913444E+03 -0.58472188809E+03 -0.72705716785E+03  0.98024367554E+03  0.00000000000E+00 0.  1.
<mgrwt>
<rscale>  0 0.14542788E+04</rscale>
<asrwt>0</asrwt>
<pdfrwt beam="1">  1        2 0.23355567E+00 0.14542788E+04</pdfrwt>
<pdfrwt beam="2">  1       -1 0.53581918E-01 0.14542788E+04</pdfrwt>
<totfact> 0.48132777E+01</totfact>
</mgrwt>
</event>
<event>
12    6  0.1556619E-007  0.1386665E+04  0.7818608E-02  0.8963528E-01
         -1   -1    0    0    0  501 -0.00000000000E+00  0.00000000000E+00  0.83415346138E+03  0.83415346138E+03  0.00000000000E+00 0.  1.
          2   -1    0    0  501    0  0.00000000000E+00 -0.00000000000E+00 -0.57628461343E+03  0.57628461343E+03  0.00000000000E+00 0. -1.
         24    2    1    2    0    0  0.37164660243E+03  0.88348527335E+02 -0.49245395821E+02  0.39275206362E+03  0.76827176766E+02 0.  0.
        254    2    1    2    0    0 -0.37164660243E+03 -0.88348527335E+02  0.30711424377E+03  0.10176860112E+04  0.89187386961E+03 0.  0.
         23    2    4    4    0    0 -0.42331131522E+03  0.32110299933E+03  0.22869915760E+03  0.58577489255E+03  0.92354286769E+02 0.  0.
         23    2    4    4    0    0  0.51664712796E+02 -0.40945152666E+03  0.78415086169E+02  0.43191111865E+03  0.10039170005E+03 0.  0.
          4    1    3    3  502    0  0.33186450280E+03  0.10143482482E+03 -0.51456503293E+02  0.35081454308E+03  0.00000000000E+00 0. -1.
         -3    1    3    3    0  502  0.39782099624E+02 -0.13086297488E+02  0.22111074720E+01  0.41937520536E+02  0.00000000000E+00 0.  1.
         11    1    5    5    0    0 -0.30741428637E+03  0.17926089912E+03  0.15944909718E+03  0.38995131492E+03  0.00000000000E+00 0. -1.
        -11    1    5    5    0    0 -0.11589702886E+03  0.14184210021E+03  0.69250060424E+02  0.19582357763E+03  0.00000000000E+00 0.  1.
          3    1    6    6  503    0 -0.88354948855E+01 -0.59490616935E+02  0.45150298310E+02  0.75204713354E+02  0.00000000000E+00 0. -1.
         -3    1    6    6    0  503  0.60500207682E+02 -0.34996090973E+03  0.33264787859E+02  0.35670640529E+03  0.00000000000E+00 0.  1.
<mgrwt>
<rscale>  0 0.13866648E+04</rscale>
<asrwt>0</asrwt>
<pdfrwt beam="1">  1        2 0.88659171E-01 0.13866648E+04</pdfrwt>
<pdfrwt beam="2">  1       -1 0.12833130E+00 0.13866648E+04</pdfrwt>
<totfact> 0.30385940E+01</totfact>
</mgrwt>
</event>
<event>
12    6  0.1556619E-007  0.2658810E+04  0.7818608E-02  0.8348495E-01
         -1   -1    0    0    0  501 -0.00000000000E+00  0.00000000000E+00  0.64433400885E+03  0.64433400885E+03  0.00000000000E+00 0.  1.
          2   -1    0    0  501    0  0.00000000000E+00 -0.00000000000E+00 -0.27428587386E+04  0.27428587386E+04  0.00000000000E+00 0. -1.
         24    2    1    2    0    0 -0.10456884003E+04  0.50145976603E+03 -0.12292292321E+04  0.16922368816E+04  0.87949023700E+02 0.  0.
        254    2    1    2    0    0  0.10456884003E+04 -0.50145976603E+03 -0.86929549766E+03  0.16949558659E+04  0.87879155521E+03 0.  0.
         23    2    4    4    0    0  0.55818968263E+03 -0.29065996392E+03  0.41003197579E+02  0.63717572499E+03  0.90844404812E+02 0.  0.
         23    2    4    4    0    0  0.48749871770E+03 -0.21079980211E+03 -0.91029869524E+03  0.10577801409E+04  0.90352396706E+02 0.  0.
          4    1    3    3  502    0 -0.82650362199E+03  0.35994075245E+03 -0.97670031734E+03  0.13291384775E+04  0.00000000000E+00 0. -1.
         -3    1    3    3    0  502 -0.21918477834E+03  0.14151901358E+03 -0.25252891476E+03  0.36309840409E+03  0.00000000000E+00 0.  1.
         11    1    5    5    0    0  0.14043767150E+01  0.49316750135E-01 -0.70896400084E+01  0.72275653956E+01  0.00000000000E+00 0.  1.
        -11    1    5    5    0    0  0.55678530591E+03 -0.29070928067E+03  0.48092837587E+02  0.62994815959E+03  0.00000000000E+00 0. -1.
          4    1    6    6  503    0  0.18313720908E+03 -0.12435599152E+03 -0.40650020858E+03  0.46286722670E+03  0.00000000000E+00 0.  1.
         -4    1    6    6    0  503  0.30436150862E+03 -0.86443810598E+02 -0.50379848666E+03  0.59491291420E+03  0.00000000000E+00 0. -1.
<mgrwt>
<rscale>  0 0.26588096E+04</rscale>
<asrwt>0</asrwt>
<pdfrwt beam="1">  1        2 0.42197826E+00 0.26588096E+04</pdfrwt>
<pdfrwt beam="2">  1       -1 0.99128310E-01 0.26588096E+04</pdfrwt>
<totfact> 0.24354929E+00</totfact>
</mgrwt>
</event>
<event>
12    6  0.1556619E-007  0.1701618E+04  0.7818608E-02  0.8760442E-01
          2   -1    0    0  501    0  0.00000000000E+00  0.00000000000E+00  0.34596634185E+04  0.34596634185E+04  0.00000000000E+00 0. -1.
         -1   -1    0    0    0  501 -0.00000000000E+00 -0.00000000000E+00 -0.20923294124E+03  0.20923294124E+03  0.00000000000E+00 0.  1.
         24    2    1    2    0    0 -0.46698450284E+02 -0.53889088966E+03  0.17654465379E+04  0.18482947422E+04  0.82509634135E+02 0.  0.
        254    2    1    2    0    0  0.46698450284E+02  0.53889088966E+03  0.14849839394E+04  0.18206016175E+04  0.90378582274E+03 0.  0.
         23    2    4    4    0    0  0.46398331205E+03  0.29274567641E+03  0.69387084920E+03  0.88932514077E+03  0.91988617296E+02 0.  0.
         23    2    4    4    0    0 -0.41728486177E+03  0.24614521325E+03  0.79111309018E+03  0.93127647678E+03  0.81864723063E+02 0.  0.
          4    1    3    3  502    0 -0.97718371933E+01 -0.45898025206E+03  0.14907205292E+04  0.15598096219E+04  0.00000000000E+00 0. -1.
         -3    1    3    3    0  502 -0.36926613091E+02 -0.79910637602E+02  0.27472600875E+03  0.28848512031E+03  0.00000000000E+00 0.  1.
         11    1    5    5    0    0  0.19849797062E+03  0.11501602550E+03  0.36273628699E+03  0.42919429674E+03  0.00000000000E+00 0. -1.
        -11    1    5    5    0    0  0.26548534143E+03  0.17772965091E+03  0.33113456222E+03  0.46013084403E+03  0.00000000000E+00 0.  1.
          2    1    6    6  503    0 -0.12114333662E+03  0.40932447655E+02  0.16309103380E+03  0.20724347658E+03  0.00000000000E+00 0. -1.
         -2    1    6    6    0  503 -0.29614152515E+03  0.20521276560E+03  0.62802205637E+03  0.72403300020E+03  0.00000000000E+00 0.  1.
<mgrwt>
<rscale>  0 0.17016175E+04</rscale>
<asrwt>0</asrwt>
<pdfrwt beam="1">  1        2 0.53225587E+00 0.17016175E+04</pdfrwt>
<pdfrwt beam="2">  1       -1 0.32189686E-01 0.17016175E+04</pdfrwt>
<totfact> 0.85457515E+00</totfact>
</mgrwt>
</event>
<event>
12    6  0.1556619E-007  0.1714960E+04  0.7818608E-02  0.8752878E-01
          2   -1    0    0  501    0  0.00000000000E+00  0.00000000000E+00  0.79753248781E+03  0.79753248781E+03  0.00000000000E+00 0. -1.
         -1   -1    0    0    0  501 -0.00000000000E+00 -0.00000000000E+00 -0.92193377534E+03  0.92193377534E+03  0.00000000000E+00 0.  1.
         24    2    1    2    0    0  0.26910863096E+03 -0.32854018369E+03  0.40445165031E+03  0.59207528496E+03  0.81325875746E+02 0.  0.
        254    2    1    2    0    0 -0.26910863096E+03  0.32854018369E+03 -0.52885293784E+03  0.11273909782E+04  0.90053699550E+03 0.  0.
         23    2    4    4    0    0  0.24205258301E+03 -0.12360629980E+03 -0.26545351782E+03  0.39019689469E+03  0.88994810041E+02 0.  0.
         23    2    4    4    0    0 -0.51116121398E+03  0.45214648348E+03 -0.26339942002E+03  0.73719408349E+03  0.91398211493E+02 0.  0.
          2    1    3    3  502    0  0.15123640904E+03 -0.17613964319E+03  0.27532575986E+03  0.36014149909E+03  0.00000000000E+00 0. -1.
         -1    1    3    3    0  502  0.11787222192E+03 -0.15240054050E+03  0.12912589046E+03  0.23193378588E+03  0.00000000000E+00 0.  1.
         11    1    5    5    0    0  0.16251118305E+03 -0.12616049703E+03 -0.20311482821E+03  0.28910549816E+03  0.00000000000E+00 0.  1.
        -11    1    5    5    0    0  0.79541399960E+02  0.25541972328E+01 -0.62338689615E+02  0.10109139654E+03  0.00000000000E+00 0. -1.
          4    1    6    6  503    0 -0.25871582989E+03  0.16947131374E+03 -0.12845790749E+03  0.33489676143E+03  0.00000000000E+00 0. -1.
         -4    1    6    6    0  503 -0.25244538408E+03  0.28267516974E+03 -0.13494151253E+03  0.40229732206E+03  0.00000000000E+00 0.  1.
<mgrwt>
<rscale>  0 0.17149602E+04</rscale>
<asrwt>0</asrwt>
<pdfrwt beam="1">  1        2 0.12269731E+00 0.17149602E+04</pdfrwt>
<pdfrwt beam="2">  1       -1 0.14183597E+00 0.17149602E+04</pdfrwt>
<totfact> 0.15202908E+01</totfact>
</mgrwt>
</event>
<event>
12    6  0.1556619E-007  0.1086767E+04  0.7818608E-02  0.9218186E-01
          2   -1    0    0  501    0  0.00000000000E+00  0.00000000000E+00  0.85085333755E+03  0.85085333755E+03  0.00000000000E+00 0. -1.
         -1   -1    0    0    0  501 -0.00000000000E+00 -0.00000000000E+00 -0.34702296841E+03  0.34702296841E+03  0.00000000000E+00 0.  1.
         24    2    1    2    0    0 -0.11750289451E+03 -0.11657031625E+03  0.14656014850E+03  0.23480936692E+03  0.79120116394E+02 0.  0.
        254    2    1    2    0    0  0.11750289451E+03  0.11657031625E+03  0.35727022065E+03  0.96306693903E+03  0.87889723497E+03 0.  0.
         23    2    4    4    0    0 -0.16963621545E+03  0.19724816853E+03  0.53651881010E+03  0.60321388169E+03  0.91275779304E+02 0.  0.
         23    2    4    4    0    0  0.28713910997E+03 -0.80677852275E+02 -0.17924858946E+03  0.35985305734E+03  0.91686322521E+02 0.  0.
          2    1    3    3  502    0 -0.84194084976E+02 -0.35745887279E+02  0.10088581767E+03  0.13617768029E+03  0.00000000000E+00 0. -1.
         -1    1    3    3    0  502 -0.33308809536E+02 -0.80824428974E+02  0.45674330822E+02  0.98631686631E+02  0.00000000000E+00 0.  1.
         11    1    5    5    0    0 -0.18101148546E+03  0.18844874038E+03  0.51029855355E+03  0.57330855512E+03  0.00000000000E+00 0. -1.
        -11    1    5    5    0    0  0.11375270007E+02  0.87994281458E+01  0.26220256551E+02  0.29905326567E+02  0.00000000000E+00 0.  1.
          1    1    6    6  503    0  0.26844007458E+03 -0.66930703638E+02 -0.18860361107E+03  0.33482997901E+03  0.00000000000E+00 0. -1.
         -1    1    6    6    0  503  0.18699035385E+02 -0.13747148637E+02  0.93550216192E+01  0.25023078337E+02  0.00000000000E+00 0.  1.
<mgrwt>
<rscale>  0 0.10867670E+04</rscale>
<asrwt>0</asrwt>
<pdfrwt beam="1">  1        2 0.13090051E+00 0.10867670E+04</pdfrwt>
<pdfrwt beam="2">  1       -1 0.53388149E-01 0.10867670E+04</pdfrwt>
<totfact> 0.12717779E+02</totfact>
</mgrwt>
</event>
<event>
12    6  0.1556619E-007  0.2464789E+04  0.7818608E-02  0.8415638E-01
          2   -1    0    0  501    0  0.00000000000E+00  0.00000000000E+00  0.21726136043E+04  0.21726136043E+04  0.00000000000E+00 0. -1.
         -1   -1    0    0    0  501 -0.00000000000E+00 -0.00000000000E+00 -0.69906434582E+03  0.69906434582E+03  0.00000000000E+00 0.  1.
         24    2    1    2    0    0 -0.71553901122E+03  0.12929759374E+03  0.15518893709E+04  0.17156747465E+04  0.80406913362E+02 0.  0.
        254    2    1    2    0    0  0.71553901122E+03 -0.12929759374E+03 -0.78340112454E+02  0.11560032036E+04  0.89526101742E+03 0.  0.
         23    2    4    4    0    0  0.16651348390E+03  0.48134319217E+02  0.37109699619E+03  0.41906146274E+03  0.88633379498E+02 0.  0.
         23    2    4    4    0    0  0.54902552732E+03 -0.17743191296E+03 -0.44943710865E+03  0.73694174091E+03  0.90433961992E+02 0.  0.
          2    1    3    3  502    0 -0.40897483025E+03  0.89564825797E+02  0.97745925569E+03  0.10633479517E+04  0.00000000000E+00 0. -1.
         -1    1    3    3    0  502 -0.30656418097E+03  0.39732767945E+02  0.57443011525E+03  0.65232679480E+03  0.00000000000E+00 0.  1.
         11    1    5    5    0    0  0.27998246210E+02  0.46175557169E+02  0.13383544355E+03  0.14431912493E+03  0.00000000000E+00 0.  1.
        -11    1    5    5    0    0  0.13851523769E+03  0.19587620488E+01  0.23726155264E+03  0.27474233781E+03  0.00000000000E+00 0. -1.
          2    1    6    6  503    0  0.54339028567E+03 -0.16139645800E+03 -0.43929998144E+03  0.71715151322E+03  0.00000000000E+00 0.  1.
         -2    1    6    6    0  503  0.56352416539E+01 -0.16035454961E+02 -0.10137127207E+02  0.19790227697E+02  0.00000000000E+00 0. -1.
<mgrwt>
<rscale>  0 0.24647894E+04</rscale>
<asrwt>0</asrwt>
<pdfrwt beam="1">  1        2 0.33424824E+00 0.24647894E+04</pdfrwt>
<pdfrwt beam="2">  1       -1 0.10754836E+00 0.24647894E+04</pdfrwt>
<totfact> 0.43815269E+00</totfact>
</mgrwt>
</event>
<event>
12    6  0.1556619E-007  0.1347029E+04  0.7818608E-02  0.8993080E-01
         -1   -1    0    0    0  501 -0.00000000000E+00  0.00000000000E+00  0.66007133481E+03  0.66007133481E+03  0.00000000000E+00 0.  1.
          2   -1    0    0  501    0  0.00000000000E+00 -0.00000000000E+00 -0.68723153870E+03  0.68723153870E+03  0.00000000000E+00 0. -1.
         24    2    1    2    0    0 -0.39657404337E+00  0.18236414259E+03  0.33216525380E+03  0.38709583472E+03  0.79073330878E+02 0.  0.
        254    2    1    2    0    0  0.39657404337E+00 -0.18236414259E+03 -0.35932545769E+03  0.96020703879E+03  0.87156522132E+03 0.  0.
         23    2    4    4    0    0 -0.37417015509E+03 -0.10454161933E+03  0.38528561767E+02  0.40089023218E+03  0.91083879235E+02 0.  0.
         23    2    4    4    0    0  0.37456672913E+03 -0.77822523261E+02 -0.39785401946E+03  0.55931680660E+03  0.90503533910E+02 0.  0.
          2    1    3    3  502    0  0.35891483070E+02  0.58746140210E+02  0.96907794209E+02  0.11887147734E+03  0.00000000000E+00 0. -1.
         -1    1    3    3    0  502 -0.36288057114E+02  0.12361800238E+03  0.23525745959E+03  0.26822435738E+03  0.00000000000E+00 0.  1.
         11    1    5    5    0    0 -0.52535387731E+02  0.80100066334E+01 -0.16655992116E+02  0.55691554509E+02  0.00000000000E+00 0. -1.
        -11    1    5    5    0    0 -0.32163476736E+03 -0.11255162596E+03  0.55184553884E+02  0.34519867767E+03  0.00000000000E+00 0.  1.
          3    1    6    6  503    0  0.13090690523E+02 -0.23826982802E+02 -0.21106763626E+02  0.34417826174E+02  0.00000000000E+00 0. -1.
         -3    1    6    6    0  503  0.36147603861E+03 -0.53995540459E+02 -0.37674725583E+03  0.52489898043E+03  0.00000000000E+00 0.  1.
<mgrwt>
<rscale>  0 0.13470291E+04</rscale>
<asrwt>0</asrwt>
<pdfrwt beam="1">  1        2 0.10572793E+00 0.13470291E+04</pdfrwt>
<pdfrwt beam="2">  1       -1 0.10154944E+00 0.13470291E+04</pdfrwt>
<totfact> 0.43078741E+01</totfact>
</mgrwt>
</event>
<event>
12    6  0.1556619E-007  0.3475314E+04  0.7818608E-02  0.8119665E-01
         -1   -1    0    0    0  501 -0.00000000000E+00  0.00000000000E+00  0.17220551992E+04  0.17220551992E+04  0.00000000000E+00 0.  1.
          2   -1    0    0  501    0  0.00000000000E+00 -0.00000000000E+00 -0.17534003024E+04  0.17534003024E+04  0.00000000000E+00 0. -1.
         24    2    1    2    0    0 -0.11107092281E+04 -0.83013709195E+03 -0.84271324388E+03  0.16246584227E+04  0.80912287731E+02 0.  0.
        254    2    1    2    0    0  0.11107092281E+04  0.83013709195E+03  0.81136814064E+03  0.18507970788E+04  0.91887375978E+03 0.  0.
         23    2    4    4    0    0  0.78130774080E+03  0.21631684972E+03  0.80573348160E+03  0.11466264719E+04  0.91165001509E+02 0.  0.
         23    2    4    4    0    0  0.32940148732E+03  0.61382024223E+03  0.56346590360E+01  0.70417060686E+03  0.10268332168E+03 0.  0.
          4    1    3    3  502    0 -0.66828480422E+03 -0.51890985140E+03 -0.55621475803E+03  0.10125447499E+04  0.00000000000E+00 0. -1.
         -3    1    3    3    0  502 -0.44242442390E+03 -0.31122724056E+03 -0.28649848584E+03  0.61211367287E+03  0.00000000000E+00 0.  1.
         11    1    5    5    0    0  0.82654723627E+02  0.27392320333E+01  0.11140538926E+03  0.13874605395E+03  0.00000000000E+00 0.  1.
        -11    1    5    5    0    0  0.69865301717E+03  0.21357761769E+03  0.69432809234E+03  0.10078804180E+04  0.00000000000E+00 0. -1.
          1    1    6    6  503    0  0.28053342538E+03  0.52088170894E+03 -0.32355747379E+02  0.59250624625E+03  0.00000000000E+00 0. -1.
         -1    1    6    6    0  503  0.48868061944E+02  0.92938533296E+02  0.37990406415E+02  0.11166436060E+03  0.00000000000E+00 0.  1.
<mgrwt>
<rscale>  0 0.34753141E+04</rscale>
<asrwt>0</asrwt>
<pdfrwt beam="1">  1        2 0.26975389E+00 0.34753141E+04</pdfrwt>
<pdfrwt beam="2">  1       -1 0.26493157E+00 0.34753141E+04</pdfrwt>
<totfact> 0.47829509E-01</totfact>
</mgrwt>
</event>
<event>
12    6  0.1556619E-007  0.1229514E+04  0.7818608E-02  0.9087408E-01
         -1   -1    0    0    0  501 -0.00000000000E+00  0.00000000000E+00  0.92461745032E+03  0.92461745032E+03  0.00000000000E+00 0.  1.
          2   -1    0    0  501    0  0.00000000000E+00 -0.00000000000E+00 -0.40873796305E+03  0.40873796305E+03  0.00000000000E+00 0. -1.
         24    2    1    2    0    0  0.66866767975E+02  0.16516805022E+03  0.37190785136E+03  0.41992601126E+03  0.79188102370E+02 0.  0.
        254    2    1    2    0    0 -0.66866767975E+02 -0.16516805022E+03  0.14397163591E+03  0.91342940212E+03  0.88423627568E+03 0.  0.
         23    2    4    4    0    0  0.34601517824E+02  0.32001025331E+02 -0.35014142508E+03  0.36451088166E+03  0.89709724324E+02 0.  0.
         23    2    4    4    0    0 -0.10146828580E+03 -0.19716907555E+03  0.49411306099E+03  0.54891852046E+03  0.89400042966E+02 0.  0.
          2    1    3    3  502    0  0.13359076991E+02  0.38591072548E+02  0.17567662045E+03  0.18036077953E+03  0.00000000000E+00 0. -1.
         -1    1    3    3    0  502  0.53507690984E+02  0.12657697767E+03  0.19623123090E+03  0.23956523173E+03  0.00000000000E+00 0.  1.
         11    1    5    5    0    0  0.41606058032E+02 -0.21865783531E+02 -0.15933338764E+03  0.16612135615E+03  0.00000000000E+00 0.  1.
        -11    1    5    5    0    0 -0.70045402074E+01  0.53866808862E+02 -0.19080803744E+03  0.19838952551E+03  0.00000000000E+00 0. -1.
          2    1    6    6  503    0 -0.48552323856E+02 -0.16562195578E+03  0.31047236169E+03  0.35521971758E+03  0.00000000000E+00 0. -1.
         -2    1    6    6    0  503 -0.52915961943E+02 -0.31547119774E+02  0.18364069931E+03  0.19369880288E+03  0.00000000000E+00 0.  1.
<mgrwt>
<rscale>  0 0.12295141E+04</rscale>
<asrwt>0</asrwt>
<pdfrwt beam="1">  1        2 0.62882764E-01 0.12295141E+04</pdfrwt>
<pdfrwt beam="2">  1       -1 0.14224884E+00 0.12295141E+04</pdfrwt>
<totfact> 0.35160734E+01</totfact>
</mgrwt>
</event>
<event>
12    6  0.1556619E-007  0.1440682E+04  0.7818608E-02  0.8924886E-01
         -3   -1    0    0    0  501 -0.00000000000E+00  0.00000000000E+00  0.65771132198E+03  0.65771132198E+03  0.00000000000E+00 0.  1.
          4   -1    0    0  501    0  0.00000000000E+00 -0.00000000000E+00 -0.78893437874E+03  0.78893437874E+03  0.00000000000E+00 0. -1.
         24    2    1    2    0    0  0.30681779207E+03  0.15346599619E+03 -0.30154482185E+03  0.46368474955E+03  0.79908058786E+02 0.  0.
        254    2    1    2    0    0 -0.30681779207E+03 -0.15346599619E+03  0.17032176509E+03  0.98296095117E+03  0.90526999196E+03 0.  0.
         23    2    4    4    0    0 -0.61410337526E+03 -0.13545085036E+03  0.47873608030E+02  0.63745276936E+03  0.92651294875E+02 0.  0.
         23    2    4    4    0    0  0.30728558319E+03 -0.18015145835E+02  0.12244815706E+03  0.34550818182E+03  0.98149770343E+02 0.  0.
          2    1    3    3  502    0  0.27374400239E+03  0.10432061143E+03 -0.24770905816E+03  0.38363830141E+03  0.00000000000E+00 0. -1.
         -1    1    3    3    0  502  0.33073789684E+02  0.49145384765E+02 -0.53835763691E+02  0.80046448141E+02  0.00000000000E+00 0.  1.
         11    1    5    5    0    0 -0.31127632039E+03 -0.91841462423E+02  0.65139290055E+02  0.33101499809E+03  0.00000000000E+00 0. -1.
        -11    1    5    5    0    0 -0.30282705488E+03 -0.43609387933E+02 -0.17265682025E+02  0.30643777126E+03  0.00000000000E+00 0.  1.
          2    1    6    6  503    0  0.18944458606E+03 -0.28711250620E+02  0.27033927665E+02  0.19350560804E+03  0.00000000000E+00 0. -1.
         -2    1    6    6    0  503  0.11784099713E+03  0.10696104785E+02  0.95414229394E+02  0.15200257377E+03  0.00000000000E+00 0.  1.
<mgrwt>
<rscale>  0 0.14406819E+04</rscale>
<asrwt>0</asrwt>
<pdfrwt beam="1">  1        4 0.12137452E+00 0.14406819E+04</pdfrwt>
<pdfrwt beam="2">  1       -3 0.10118636E+00 0.14406819E+04</pdfrwt>
<totfact> 0.97064522E-01</totfact>
</mgrwt>
</event>
<event>
12    6  0.1556619E-007  0.1391823E+04  0.7818608E-02  0.8959759E-01
         -1   -1    0    0    0  501 -0.00000000000E+00  0.00000000000E+00  0.42027449593E+03  0.42027449593E+03  0.00000000000E+00 0.  1.
          2   -1    0    0  501    0  0.00000000000E+00 -0.00000000000E+00 -0.11523244421E+04  0.11523244421E+04  0.00000000000E+00 0. -1.
         24    2    1    2    0    0 -0.28124416017E+02  0.40500781928E+03 -0.25063322984E+03  0.48398371335E+03  0.81245937955E+02 0.  0.
        254    2    1    2    0    0  0.28124416017E+02 -0.40500781928E+03 -0.48141671631E+03  0.10886152247E+04  0.88797451323E+03 0.  0.
         23    2    4    4    0    0 -0.17588324715E+03 -0.51560678438E+03 -0.88164080816E+01  0.55407008672E+03  0.10065117595E+03 0.  0.
         23    2    4    4    0    0  0.20400766316E+03  0.11059896510E+03 -0.47260030823E+03  0.53454513793E+03  0.92391533369E+02 0.  0.
          4    1    3    3  502    0 -0.30782766243E+02  0.96417647251E+02 -0.93008535445E+02  0.13745737181E+03  0.00000000000E+00 0. -1.
         -3    1    3    3    0  502  0.26583502266E+01  0.30859017203E+03 -0.15762469439E+03  0.34652634154E+03  0.00000000000E+00 0.  1.
         11    1    5    5    0    0 -0.13268371985E+03 -0.38796685943E+03  0.37115456852E+02  0.41170476153E+03  0.00000000000E+00 0.  1.
        -11    1    5    5    0    0 -0.43199527293E+02 -0.12763992495E+03 -0.45931864934E+02  0.14236532519E+03  0.00000000000E+00 0. -1.
          2    1    6    6  503    0  0.21940320528E+02 -0.70204420660E+01 -0.13133585903E+02  0.26517076580E+02  0.00000000000E+00 0. -1.
         -2    1    6    6    0  503  0.18206734263E+03  0.11761940716E+03 -0.45946672233E+03  0.50802806136E+03  0.00000000000E+00 0.  1.
<mgrwt>
<rscale>  0 0.13918227E+04</rscale>
<asrwt>0</asrwt>
<pdfrwt beam="1">  1        2 0.17728068E+00 0.13918227E+04</pdfrwt>
<pdfrwt beam="2">  1       -1 0.64657616E-01 0.13918227E+04</pdfrwt>
<totfact> 0.54510856E+01</totfact>
</mgrwt>
</event>
<event>
12    6  0.1556619E-007  0.2417566E+04  0.7818608E-02  0.8432956E-01
          4   -1    0    0  501    0  0.00000000000E+00  0.00000000000E+00  0.19402478284E+04  0.19402478284E+04  0.00000000000E+00 0. -1.
         -3   -1    0    0    0  501 -0.00000000000E+00 -0.00000000000E+00 -0.75307708740E+03  0.75307708740E+03  0.00000000000E+00 0.  1.
         24    2    1    2    0    0  0.26214511476E+03  0.49272402187E+03  0.14899076614E+04  0.15929020986E+04  0.77557936557E+02 0.  0.
        254    2    1    2    0    0 -0.26214511476E+03 -0.49272402187E+03 -0.30273692037E+03  0.11004228172E+04  0.89876788474E+03 0.  0.
         23    2    4    4    0    0  0.25141359160E+02  0.24455878775E+03 -0.83643746001E+02  0.27431628062E+03  0.88385841408E+02 0.  0.
         23    2    4    4    0    0 -0.28728647392E+03 -0.73728280962E+03 -0.21909317437E+03  0.82610653653E+03  0.91272839289E+02 0.  0.
          4    1    3    3  502    0  0.21006336131E+03  0.33279504640E+03  0.98464272793E+03  0.10603775084E+04  0.00000000000E+00 0. -1.
         -3    1    3    3    0  502  0.52081753449E+02  0.15992897547E+03  0.50526493343E+03  0.53252459022E+03  0.00000000000E+00 0.  1.
         11    1    5    5    0    0 -0.24446197985E+02  0.81980178096E+02 -0.55645889861E+02  0.10205308058E+03  0.00000000000E+00 0. -1.
        -11    1    5    5    0    0  0.49587557145E+02  0.16257860966E+03 -0.27997856140E+02  0.17226320005E+03  0.00000000000E+00 0.  1.
          3    1    6    6  503    0 -0.25295328948E+03 -0.70615728432E+03 -0.20347560151E+03  0.77720383251E+03  0.00000000000E+00 0. -1.
         -3    1    6    6    0  503 -0.34333184436E+02 -0.31125525294E+02 -0.15617572860E+02  0.48902704020E+02  0.00000000000E+00 0.  1.
<mgrwt>
<rscale>  0 0.24175659E+04</rscale>
<asrwt>0</asrwt>
<pdfrwt beam="1">  1        4 0.29849967E+00 0.24175659E+04</pdfrwt>
<pdfrwt beam="2">  1       -3 0.11585801E+00 0.24175659E+04</pdfrwt>
<totfact> 0.39704585E-02</totfact>
</mgrwt>
</event>
<event>
12    6  0.1556619E-007  0.1611422E+04  0.7818608E-02  0.8813562E-01
         -1   -1    0    0    0  501 -0.00000000000E+00  0.00000000000E+00  0.63795755791E+03  0.63795755791E+03  0.00000000000E+00 0.  1.
          2   -1    0    0  501    0  0.00000000000E+00 -0.00000000000E+00 -0.10175760537E+04  0.10175760537E+04  0.00000000000E+00 0. -1.
         24    2    1    2    0    0 -0.21666981985E+03  0.38071926502E+03 -0.47370239389E+03  0.65008298460E+03  0.79504460866E+02 0.  0.
        254    2    1    2    0    0  0.21666981985E+03 -0.38071926502E+03  0.94083898143E+02  0.10054506270E+04  0.90010344616E+03 0.  0.
         23    2    4    4    0    0 -0.87530077239E+02 -0.59888894856E+03  0.35922540745E+02  0.61307771467E+03  0.90798503113E+02 0.  0.
         23    2    4    4    0    0  0.30419989709E+03  0.21816968354E+03  0.58161357398E+02  0.39237291229E+03  0.10216736563E+03 0.  0.
          4    1    3    3  502    0 -0.11757782316E+03  0.20094529091E+03 -0.30905820311E+03  0.38693736876E+03  0.00000000000E+00 0. -1.
         -3    1    3    3    0  502 -0.99091996696E+02  0.17977397411E+03 -0.16464419079E+03  0.26314561584E+03  0.00000000000E+00 0.  1.
         11    1    5    5    0    0 -0.21030114428E+02 -0.20490504836E+02  0.68111164992E+01  0.30141629174E+02  0.00000000000E+00 0. -1.
        -11    1    5    5    0    0 -0.66499962810E+02 -0.57839844372E+03  0.29111424246E+02  0.58293608550E+03  0.00000000000E+00 0.  1.
          3    1    6    6  503    0  0.39270462376E+02 -0.31489673868E+01  0.22391663209E+02  0.45315249002E+02  0.00000000000E+00 0. -1.
         -3    1    6    6    0  503  0.26492943472E+03  0.22131865093E+03  0.35769694189E+02  0.34705766329E+03  0.00000000000E+00 0.  1.
<mgrwt>
<rscale>  0 0.16114221E+04</rscale>
<asrwt>0</asrwt>
<pdfrwt beam="1">  1        2 0.15655016E+00 0.16114221E+04</pdfrwt>
<pdfrwt beam="2">  1       -1 0.98147317E-01 0.16114221E+04</pdfrwt>
<totfact> 0.26690016E+01</totfact>
</mgrwt>
</event>
<event>
12    6  0.1556619E-007  0.2164980E+04  0.7818608E-02  0.8533147E-01
         -1   -1    0    0    0  501 -0.00000000000E+00  0.00000000000E+00  0.37225794365E+03  0.37225794365E+03  0.00000000000E+00 0.  1.
          2   -1    0    0  501    0  0.00000000000E+00 -0.00000000000E+00 -0.31477757351E+04  0.31477757351E+04  0.00000000000E+00 0. -1.
         24    2    1    2    0    0  0.86653648036E+03  0.89316063708E+02 -0.14978934223E+04  0.17345943377E+04  0.79183211250E+02 0.  0.
        254    2    1    2    0    0 -0.86653648036E+03 -0.89316063708E+02 -0.12776243692E+04  0.17854393410E+04  0.89252830811E+03 0.  0.
         23    2    4    4    0    0 -0.93472898109E+02 -0.19530431266E+02  0.12438187366E+03  0.18084878915E+03  0.90093360544E+02 0.  0.
         23    2    4    4    0    0 -0.77306358225E+03 -0.69785632442E+02 -0.14020062429E+04  0.16045905519E+04  0.81191117395E+02 0.  0.
          2    1    3    3  502    0  0.58574560650E+03  0.56164075659E+02 -0.93653268034E+03  0.11060496283E+04  0.00000000000E+00 0. -1.
         -1    1    3    3    0  502  0.28079087386E+03  0.33151988048E+02 -0.56136074195E+03  0.62854470944E+03  0.00000000000E+00 0.  1.
         11    1    5    5    0    0 -0.10562868293E+03 -0.26528556364E+02  0.12621010570E+03  0.16670385041E+03  0.00000000000E+00 0.  1.
        -11    1    5    5    0    0  0.12155784822E+02  0.69981250983E+01 -0.18282320364E+01  0.14144938739E+02  0.00000000000E+00 0. -1.
          2    1    6    6  503    0 -0.35160610958E+02 -0.47860512237E+01 -0.35343546570E+02  0.50083341875E+02  0.00000000000E+00 0. -1.
         -2    1    6    6    0  503 -0.73790297129E+03 -0.64999581218E+02 -0.13666626963E+04  0.15545072100E+04  0.00000000000E+00 0.  1.
<mgrwt>
<rscale>  0 0.21649799E+04</rscale>
<asrwt>0</asrwt>
<pdfrwt beam="1">  1        2 0.48427320E+00 0.21649799E+04</pdfrwt>
<pdfrwt beam="2">  1       -1 0.57270452E-01 0.21649799E+04</pdfrwt>
<totfact> 0.45245602E+00</totfact>
</mgrwt>
</event>
<event>
12    6  0.1556619E-007  0.1628568E+04  0.7818608E-02  0.8803188E-01
         -1   -1    0    0    0  501 -0.00000000000E+00  0.00000000000E+00  0.41096969086E+03  0.41096969086E+03  0.00000000000E+00 0.  1.
          2   -1    0    0  501    0  0.00000000000E+00 -0.00000000000E+00 -0.16133991231E+04  0.16133991231E+04  0.00000000000E+00 0. -1.
         24    2    1    2    0    0  0.36323503303E+03 -0.44141026754E+03 -0.44398191605E+03  0.72806886749E+03  0.78623282328E+02 0.  0.
        254    2    1    2    0    0 -0.36323503303E+03  0.44141026754E+03 -0.75844751616E+03  0.12962999464E+04  0.88225177975E+03 0.  0.
         23    2    4    4    0    0  0.67115505720E+02  0.24414937415E+03  0.11995225065E+03  0.29511214782E+03  0.92678095319E+02 0.  0.
         23    2    4    4    0    0 -0.43035053875E+03  0.19726089339E+03 -0.87839976681E+03  0.10011877986E+04  0.81715430055E+02 0.  0.
          4    1    3    3  502    0  0.36770558946E+02 -0.42976861649E+02 -0.17147563454E+02  0.59102652858E+02  0.00000000000E+00 0. -1.
         -3    1    3    3    0  502  0.32646447409E+03 -0.39843340589E+03 -0.42683435259E+03  0.66896621463E+03  0.00000000000E+00 0.  1.
         11    1    5    5    0    0  0.37528501787E+02  0.17763122864E+03  0.37986919269E+02  0.18548382105E+03  0.00000000000E+00 0. -1.
        -11    1    5    5    0    0  0.29587003933E+02  0.66518145509E+02  0.81965331380E+02  0.10962832678E+03  0.00000000000E+00 0.  1.
          1    1    6    6  503    0 -0.19119200258E+03  0.43550818478E+02 -0.35378469004E+03  0.40449309333E+03  0.00000000000E+00 0. -1.
         -1    1    6    6    0  503 -0.23915853617E+03  0.15371007491E+03 -0.52461507676E+03  0.59669470529E+03  0.00000000000E+00 0.  1.
<mgrwt>
<rscale>  0 0.16285676E+04</rscale>
<asrwt>0</asrwt>
<pdfrwt beam="1">  1        2 0.24821524E+00 0.16285676E+04</pdfrwt>
<pdfrwt beam="2">  1       -1 0.63226108E-01 0.16285676E+04</pdfrwt>
<totfact> 0.30315246E+01</totfact>
</mgrwt>
</event>
<event>
12    6  0.1556619E-007  0.3013182E+04  0.7818608E-02  0.8239977E-01
          2   -1    0    0  501    0  0.00000000000E+00  0.00000000000E+00  0.24655197654E+04  0.24655197654E+04  0.00000000000E+00 0. -1.
         -1   -1    0    0    0  501 -0.00000000000E+00 -0.00000000000E+00 -0.92062366444E+03  0.92062366444E+03  0.00000000000E+00 0.  1.
         24    2    1    2    0    0 -0.96019110230E+03  0.89746324205E+03  0.11396447610E+04  0.17415369071E+04  0.82179034675E+02 0.  0.
        254    2    1    2    0    0  0.96019110230E+03 -0.89746324205E+03  0.40525133998E+03  0.16446065228E+04  0.90171766226E+03 0.  0.
         23    2    4    4    0    0  0.74808789962E+03 -0.54909448487E+03  0.67123444585E+03  0.11492847481E+04  0.95705235563E+02 0.  0.
         23    2    4    4    0    0  0.21210320268E+03 -0.34836875718E+03 -0.26598310588E+03  0.49532177464E+03  0.90818986191E+02 0.  0.
          2    1    3    3  502    0 -0.89316766750E+03  0.83671489926E+03  0.10869100710E+04  0.16368304150E+04  0.00000000000E+00 0. -1.
         -1    1    3    3    0  502 -0.67023434800E+02  0.60748342785E+02  0.52734689961E+02  0.10470649210E+03  0.00000000000E+00 0.  1.
         11    1    5    5    0    0  0.68639308229E+03 -0.51966871894E+03  0.64632385441E+03  0.10765340522E+04  0.00000000000E+00 0. -1.
        -11    1    5    5    0    0  0.61694817330E+02 -0.29425765927E+02  0.24910591440E+02  0.72750695884E+02  0.00000000000E+00 0.  1.
          2    1    6    6  503    0  0.18420366794E+03 -0.22237956316E+03 -0.18714400114E+03  0.34410251169E+03  0.00000000000E+00 0. -1.
         -2    1    6    6    0  503  0.27899534740E+02 -0.12598919403E+03 -0.78839104735E+02  0.15121926294E+03  0.00000000000E+00 0.  1.
<mgrwt>
<rscale>  0 0.30131816E+04</rscale>
<asrwt>0</asrwt>
<pdfrwt beam="1">  1        2 0.37931073E+00 0.30131816E+04</pdfrwt>
<pdfrwt beam="2">  1       -1 0.14163441E+00 0.30131816E+04</pdfrwt>
<totfact> 0.14400464E+00</totfact>
</mgrwt>
</event>
<event>
12    6  0.1556619E-007  0.1851610E+04  0.7818608E-02  0.8679325E-01
          2   -1    0    0  501    0  0.00000000000E+00  0.00000000000E+00  0.29985093925E+04  0.29985093925E+04  0.00000000000E+00 0. -1.
         -1   -1    0    0    0  501 -0.00000000000E+00 -0.00000000000E+00 -0.28584708088E+03  0.28584708088E+03  0.00000000000E+00 0.  1.
         24    2    1    2    0    0 -0.36371781384E+02 -0.32994364956E+03 -0.64679111279E+02  0.34759977155E+03  0.80352320321E+02 0.  0.
        254    2    1    2    0    0  0.36371781384E+02  0.32994364956E+03  0.27773414229E+04  0.29367567018E+04  0.89483452549E+03 0.  0.
         23    2    4    4    0    0 -0.39659146136E+02  0.57231640867E+03  0.11610780140E+04  0.12980517589E+04  0.87848134892E+02 0.  0.
         23    2    4    4    0    0  0.76030927520E+02 -0.24237275911E+03  0.16162634089E+04  0.16387049429E+04  0.92310490056E+02 0.  0.
          2    1    3    3  502    0  0.12345843106E+01  0.52816224853E+00  0.71938921341E+01  0.73181444245E+01  0.00000000000E+00 0. -1.
         -1    1    3    3    0  502 -0.37606365695E+02 -0.33047181180E+03 -0.71873003413E+02  0.34028162712E+03  0.00000000000E+00 0.  1.
         11    1    5    5    0    0 -0.58640391279E+01  0.50110153160E+03  0.98586818180E+03  0.11059264007E+04  0.00000000000E+00 0.  1.
        -11    1    5    5    0    0 -0.33795107008E+02  0.71214877069E+02  0.17520983216E+03  0.19212535819E+03  0.00000000000E+00 0. -1.
          3    1    6    6  503    0  0.25474867565E+02 -0.11841206816E+03  0.50089847878E+03  0.51533452514E+03  0.00000000000E+00 0. -1.
         -3    1    6    6    0  503  0.50556059955E+02 -0.12396069095E+03  0.11153649301E+04  0.11233704177E+04  0.00000000000E+00 0.  1.
<mgrwt>
<rscale>  0 0.18516103E+04</rscale>
<asrwt>0</asrwt>
<pdfrwt beam="1">  1        2 0.46130911E+00 0.18516103E+04</pdfrwt>
<pdfrwt beam="2">  1       -1 0.43976476E-01 0.18516103E+04</pdfrwt>
<totfact> 0.95804479E+00</totfact>
</mgrwt>
</event>
<event>
12    6  0.1556619E-007  0.1280560E+04  0.7818608E-02  0.9045125E-01
         -1   -1    0    0    0  501 -0.00000000000E+00  0.00000000000E+00  0.24300399350E+03  0.24300399350E+03  0.00000000000E+00 0.  1.
          2   -1    0    0  501    0  0.00000000000E+00 -0.00000000000E+00 -0.16870448875E+04  0.16870448875E+04  0.00000000000E+00 0. -1.
         24    2    1    2    0    0 -0.23592357722E+03 -0.16750041755E+03 -0.54852164004E+03  0.62523384691E+03  0.79530180219E+02 0.  0.
        254    2    1    2    0    0  0.23592357722E+03  0.16750041755E+03 -0.89551925392E+03  0.13048150340E+04  0.90380928008E+03 0.  0.
         23    2    4    4    0    0  0.50543062493E+03 -0.34006849351E+02 -0.25443079189E+03  0.57488937171E+03  0.95635659756E+02 0.  0.
         23    2    4    4    0    0 -0.26950704771E+03  0.20150726690E+03 -0.64108846202E+03  0.72992566234E+03  0.92508534846E+02 0.  0.
          2    1    3    3  502    0 -0.20460837771E+03 -0.15156869953E+03 -0.52336580351E+03  0.58202184082E+03  0.00000000000E+00 0. -1.
         -1    1    3    3    0  502 -0.31315199510E+02 -0.15931718014E+02 -0.25155836538E+02  0.43212006099E+02  0.00000000000E+00 0.  1.
         11    1    5    5    0    0  0.15690744252E+03 -0.40830751390E+02 -0.11811204561E+03  0.20059299862E+03  0.00000000000E+00 0. -1.
        -11    1    5    5    0    0  0.34852318241E+03  0.68239020389E+01 -0.13631874628E+03  0.37429637309E+03  0.00000000000E+00 0.  1.
          1    1    6    6  503    0 -0.62137573550E+00  0.28360596112E+02 -0.39766432421E+02  0.48847504206E+02  0.00000000000E+00 0. -1.
         -1    1    6    6    0  503 -0.26888567198E+03  0.17314667079E+03 -0.60132202960E+03  0.68107815813E+03  0.00000000000E+00 0.  1.
<mgrwt>
<rscale>  0 0.12805603E+04</rscale>
<asrwt>0</asrwt>
<pdfrwt beam="1">  1        2 0.25954536E+00 0.12805603E+04</pdfrwt>
<pdfrwt beam="2">  1       -1 0.37385230E-01 0.12805603E+04</pdfrwt>
<totfact> 0.76806396E+01</totfact>
</mgrwt>
</event>
<event>
12    6  0.1697200E-007  0.1784858E+04  0.7818608E-02  0.8714393E-01
         -1   -1    0    0    0  501 -0.00000000000E+00  0.00000000000E+00  0.51196212239E+03  0.51196212239E+03  0.00000000000E+00 0.  1.
          2   -1    0    0  501    0  0.00000000000E+00 -0.00000000000E+00 -0.15556416986E+04  0.15556416986E+04  0.00000000000E+00 0. -1.
         24    2    1    2    0    0 -0.48579622356E+03  0.38233917460E+03 -0.11636330263E+03  0.63387381468E+03  0.77938305629E+02 0.  0.
        254    2    1    2    0    0  0.48579622356E+03 -0.38233917460E+03 -0.92731627354E+03  0.14337300063E+04  0.90193405771E+03 0.  0.
         23    2    4    4    0    0  0.46310464680E+03 -0.10608699480E+03 -0.10186096702E+04  0.11280158703E+04  0.95570806949E+02 0.  0.
         23    2    4    4    0    0  0.22691576762E+02 -0.27625217979E+03  0.91293396666E+02  0.30571413593E+03  0.91084983059E+02 0.  0.
          2    1    3    3  502    0 -0.41801971042E+02  0.13379349188E+02 -0.21387459996E+02  0.48824534947E+02  0.00000000000E+00 0. -1.
         -1    1    3    3    0  502 -0.44399425251E+03  0.36895982541E+03 -0.94975842630E+02  0.58504927973E+03  0.00000000000E+00 0.  1.
         11    1    5    5    0    0  0.41759777050E+03 -0.11162585447E+03 -0.85432015321E+03  0.95745033996E+03  0.00000000000E+00 0. -1.
        -11    1    5    5    0    0  0.45506876296E+02  0.55388596670E+01 -0.16428951700E+03  0.17056553038E+03  0.00000000000E+00 0.  1.
          4    1    6    6  503    0 -0.94637456536E+01 -0.23284314991E+03  0.94797730058E+02  0.25157922126E+03  0.00000000000E+00 0. -1.
         -4    1    6    6    0  503  0.32155322415E+02 -0.43409029878E+02 -0.35043333920E+01  0.54134914678E+02  0.00000000000E+00 0.  1.
<mgrwt>
<rscale>  0 0.17848581E+04</rscale>
<asrwt>0</asrwt>
<pdfrwt beam="1">  1        2 0.23932949E+00 0.17848581E+04</pdfrwt>
<pdfrwt beam="2">  1       -1 0.78763402E-01 0.17848581E+04</pdfrwt>
<totfact> 0.20507248E+01</totfact>
</mgrwt>
</event>
<event>
12    6  0.1556619E-007  0.1399606E+04  0.7818608E-02  0.8954104E-01
         -1   -1    0    0    0  501 -0.00000000000E+00  0.00000000000E+00  0.27776069517E+03  0.27776069517E+03  0.00000000000E+00 0.  1.
          2   -1    0    0  501    0  0.00000000000E+00 -0.00000000000E+00 -0.17631159459E+04  0.17631159459E+04  0.00000000000E+00 0. -1.
         24    2    1    2    0    0  0.21405976016E+03 -0.28772560295E+03 -0.69135389130E+03  0.78302987526E+03  0.80981349788E+02 0.  0.
        254    2    1    2    0    0 -0.21405976016E+03  0.28772560295E+03 -0.79400135946E+03  0.12578467658E+04  0.90726662235E+03 0.  0.
         23    2    4    4    0    0 -0.52902057488E+01  0.14630351816E+02 -0.88479553547E+03  0.88954885709E+03  0.90509646407E+02 0.  0.
         23    2    4    4    0    0 -0.20876955441E+03  0.27309525113E+03  0.90794176011E+02  0.36829790876E+03  0.96093829970E+02 0.  0.
          4    1    3    3  502    0  0.18970615126E+03 -0.20690161999E+03 -0.56772419512E+03  0.63333045553E+03  0.00000000000E+00 0. -1.
         -3    1    3    3    0  502  0.24353608904E+02 -0.80823982960E+02 -0.12362969619E+03  0.14969941973E+03  0.00000000000E+00 0.  1.
         11    1    5    5    0    0 -0.24951615433E+02  0.28963692540E+01 -0.68966322493E+02  0.73398403973E+02  0.00000000000E+00 0.  1.
        -11    1    5    5    0    0  0.19661409685E+02  0.11733982562E+02 -0.81582921297E+03  0.81615045311E+03  0.00000000000E+00 0. -1.
          2    1    6    6  503    0 -0.40674323584E+02  0.12978302998E+03  0.32320870331E+02  0.13979511482E+03  0.00000000000E+00 0. -1.
         -2    1    6    6    0  503 -0.16809523083E+03  0.14331222115E+03  0.58473305680E+02  0.22850279394E+03  0.00000000000E+00 0.  1.
<mgrwt>
<rscale>  0 0.13996061E+04</rscale>
<asrwt>0</asrwt>
<pdfrwt beam="1">  1        2 0.27124860E+00 0.13996061E+04</pdfrwt>
<pdfrwt beam="2">  1       -1 0.42732415E-01 0.13996061E+04</pdfrwt>
<totfact> 0.54087574E+01</totfact>
</mgrwt>
</event>
<event>
12    6  0.1556619E-007  0.1961302E+04  0.7818608E-02  0.8624930E-01
         -1   -1    0    0    0  501 -0.00000000000E+00  0.00000000000E+00  0.50130058459E+03  0.50130058459E+03  0.00000000000E+00 0.  1.
          2   -1    0    0  501    0  0.00000000000E+00 -0.00000000000E+00 -0.19183623331E+04  0.19183623331E+04  0.00000000000E+00 0. -1.
         24    2    1    2    0    0  0.36994584995E+03  0.11911428407E+03  0.25671673621E+03  0.47553450795E+03  0.95819836331E+02 0.  0.
        254    2    1    2    0    0 -0.36994584995E+03 -0.11911428407E+03 -0.16737784847E+04  0.19441284097E+04  0.90942438555E+03 0.  0.
         23    2    4    4    0    0  0.19509638347E+02  0.26940079034E+03 -0.15240494420E+03  0.32374770908E+03  0.92886491448E+02 0.  0.
         23    2    4    4    0    0 -0.38945548830E+03 -0.38851507440E+03 -0.15213735405E+04  0.16203807006E+04  0.91851101553E+02 0.  0.
          4    1    3    3  502    0  0.32292388989E+02 -0.11493307028E+02  0.51097043530E+01  0.34655498433E+02  0.00000000000E+00 0. -1.
         -3    1    3    3    0  502  0.33765346096E+03  0.13060759109E+03  0.25160703186E+03  0.44087900952E+03  0.00000000000E+00 0.  1.
         11    1    5    5    0    0  0.46598816288E+02  0.18644243881E+03 -0.13474583654E+03  0.23470976361E+03  0.00000000000E+00 0. -1.
        -11    1    5    5    0    0 -0.27089177942E+02  0.82958351526E+02 -0.17659107658E+02  0.89037945465E+02  0.00000000000E+00 0.  1.
          4    1    6    6  503    0 -0.37265533142E+03 -0.33858042801E+03 -0.13384002482E+04  0.14299734007E+04  0.00000000000E+00 0. -1.
         -4    1    6    6    0  503 -0.16800156873E+02 -0.49934646397E+02 -0.18297329230E+03  0.19040729996E+03  0.00000000000E+00 0.  1.
<mgrwt>
<rscale>  0 0.19613018E+04</rscale>
<asrwt>0</asrwt>
<pdfrwt beam="1">  1        2 0.29513267E+00 0.19613018E+04</pdfrwt>
<pdfrwt beam="2">  1       -1 0.77123167E-01 0.19613018E+04</pdfrwt>
<totfact> 0.13269976E+01</totfact>
</mgrwt>
</event>
<event>
12    6  0.1556619E-007  0.2484294E+04  0.7818608E-02  0.8408602E-01
         -1   -1    0    0    0  501 -0.00000000000E+00  0.00000000000E+00  0.10276510701E+04  0.10276510701E+04  0.00000000000E+00 0.  1.
          2   -1    0    0  501    0  0.00000000000E+00 -0.00000000000E+00 -0.15014138554E+04  0.15014138554E+04  0.00000000000E+00 0. -1.
         24    2    1    2    0    0 -0.68787881225E+03 -0.35056431329E+03 -0.96625041731E+03  0.12393777378E+04  0.79653686590E+02 0.  0.
        254    2    1    2    0    0  0.68787881225E+03  0.35056431329E+03  0.49248763205E+03  0.12896871878E+04  0.90811693988E+03 0.  0.
         23    2    4    4    0    0 -0.14557276191E+02 -0.23199780179E+03  0.35241876380E+01  0.25034692047E+03  0.92877695726E+02 0.  0.
         23    2    4    4    0    0  0.70243608845E+03  0.58256211508E+03  0.48896344442E+03  0.10393402673E+04  0.91366651423E+02 0.  0.
          4    1    3    3  502    0 -0.35913171342E+03 -0.22750417416E+03 -0.53087799935E+03  0.68012145021E+03  0.00000000000E+00 0. -1.
         -3    1    3    3    0  502 -0.32874709884E+03 -0.12306013913E+03 -0.43537241796E+03  0.55925628754E+03  0.00000000000E+00 0.  1.
         11    1    5    5    0    0 -0.47154078918E+02 -0.74623744618E+02 -0.11099055927E+02  0.88968530739E+02  0.00000000000E+00 0.  1.
        -11    1    5    5    0    0  0.32596802726E+02 -0.15737405718E+03  0.14623243565E+02  0.16137838973E+03  0.00000000000E+00 0. -1.
          4    1    6    6  503    0  0.65530227739E+03  0.56850232108E+03  0.46961152544E+03  0.98648413502E+03  0.00000000000E+00 0. -1.
         -4    1    6    6    0  503  0.47133811059E+02  0.14059794003E+02  0.19351918978E+02  0.52856132289E+02  0.00000000000E+00 0.  1.
<mgrwt>
<rscale>  0 0.24842943E+04</rscale>
<asrwt>0</asrwt>
<pdfrwt beam="1">  1        2 0.23098675E+00 0.24842943E+04</pdfrwt>
<pdfrwt beam="2">  1       -1 0.15810016E+00 0.24842943E+04</pdfrwt>
<totfact> 0.38940028E+00</totfact>
</mgrwt>
</event>
<event>
12    6  0.1556619E-007  0.1520136E+04  0.7818608E-02  0.8871172E-01
          2   -1    0    0  501    0  0.00000000000E+00  0.00000000000E+00  0.16287083596E+04  0.16287083596E+04  0.00000000000E+00 0. -1.
         -1   -1    0    0    0  501 -0.00000000000E+00 -0.00000000000E+00 -0.35470047091E+03  0.35470047091E+03  0.00000000000E+00 0.  1.
         24    2    1    2    0    0  0.74282664273E+01 -0.48598474245E+03  0.65170737822E+03  0.81721099540E+03  0.82915349207E+02 0.  0.
        254    2    1    2    0    0 -0.74282664273E+01  0.48598474245E+03  0.62230051047E+03  0.11661978351E+04  0.85820924968E+03 0.  0.
         23    2    4    4    0    0 -0.19652946132E+03 -0.15331970886E+03  0.35298489974E+03  0.44136080223E+03  0.89834603634E+02 0.  0.
         23    2    4    4    0    0  0.18910119489E+03  0.63930445131E+03  0.26931561073E+03  0.72483703288E+03  0.91588114253E+02 0.  0.
          2    1    3    3  502    0  0.33304918962E+02 -0.16303517476E+03  0.26256275416E+03  0.31085187100E+03  0.00000000000E+00 0. -1.
         -1    1    3    3    0  502 -0.25876652535E+02 -0.32294956769E+03  0.38914462406E+03  0.50635912439E+03  0.00000000000E+00 0.  1.
         11    1    5    5    0    0 -0.17229977374E+03 -0.10874165873E+03  0.22423373188E+03  0.30297314549E+03  0.00000000000E+00 0.  1.
        -11    1    5    5    0    0 -0.24229687581E+02 -0.44578050130E+02  0.12875116786E+03  0.13838765674E+03  0.00000000000E+00 0. -1.
          1    1    6    6  503    0  0.15183895811E+03  0.59684522968E+03  0.25498969241E+03  0.66655760488E+03  0.00000000000E+00 0. -1.
         -1    1    6    6    0  503  0.37262236787E+02  0.42459221629E+02  0.14325918325E+02  0.58279427996E+02  0.00000000000E+00 0.  1.
<mgrwt>
<rscale>  0 0.15201363E+04</rscale>
<asrwt>0</asrwt>
<pdfrwt beam="1">  1        2 0.25057051E+00 0.15201363E+04</pdfrwt>
<pdfrwt beam="2">  1       -1 0.54569304E-01 0.15201363E+04</pdfrwt>
<totfact> 0.40071126E+01</totfact>
</mgrwt>
</event>
<event>
12    6  0.1556619E-007  0.1618473E+04  0.7818608E-02  0.8809279E-01
          2   -1    0    0  501    0  0.00000000000E+00  0.00000000000E+00  0.11528437025E+04  0.11528437025E+04  0.00000000000E+00 0. -1.
         -1   -1    0    0    0  501 -0.00000000000E+00 -0.00000000000E+00 -0.56804199744E+03  0.56804199744E+03  0.00000000000E+00 0.  1.
         24    2    1    2    0    0 -0.43970574464E+03 -0.30710325240E+03  0.35929103142E+03  0.65060196460E+03  0.80866071861E+02 0.  0.
        254    2    1    2    0    0  0.43970574464E+03  0.30710325240E+03  0.22551067361E+03  0.10702837353E+04  0.89833104181E+03 0.  0.
         23    2    4    4    0    0 -0.99828966867E+02  0.45851290804E+03  0.12060621899E+03  0.49296594384E+03  0.90937628426E+02 0.  0.
         23    2    4    4    0    0  0.53953471150E+03 -0.15140965564E+03  0.10490445462E+03  0.57731779148E+03  0.90930187642E+02 0.  0.
          2    1    3    3  502    0 -0.33591220692E+03 -0.22481977666E+03  0.30954439427E+03  0.50911558094E+03  0.00000000000E+00 0. -1.
         -1    1    3    3    0  502 -0.10379353771E+03 -0.82283475745E+02  0.49746637150E+02  0.14148638366E+03  0.00000000000E+00 0.  1.
         11    1    5    5    0    0 -0.58928948065E+01  0.18752750219E+03  0.77255822637E+02  0.20290330806E+03  0.00000000000E+00 0. -1.
        -11    1    5    5    0    0 -0.93936072061E+02  0.27098540585E+03  0.43350396353E+02  0.29006263579E+03  0.00000000000E+00 0.  1.
          2    1    6    6  503    0  0.47640982887E+03 -0.15697459812E+03  0.74765964136E+02  0.50714623028E+03  0.00000000000E+00 0. -1.
         -2    1    6    6    0  503  0.63124882631E+02  0.55649424776E+01  0.30138490486E+02  0.70171561197E+02  0.00000000000E+00 0.  1.
<mgrwt>
<rscale>  0 0.16184729E+04</rscale>
<asrwt>0</asrwt>
<pdfrwt beam="1">  1        2 0.17736057E+00 0.16184729E+04</pdfrwt>
<pdfrwt beam="2">  1       -1 0.87391077E-01 0.16184729E+04</pdfrwt>
<totfact> 0.28462844E+01</totfact>
</mgrwt>
</event>
<event>
12    6  0.1556619E-007  0.1705630E+04  0.7818608E-02  0.8758160E-01
          2   -1    0    0  501    0  0.00000000000E+00  0.00000000000E+00  0.32218716024E+04  0.32218716024E+04  0.00000000000E+00 0. -1.
         -1   -1    0    0    0  501 -0.00000000000E+00 -0.00000000000E+00 -0.22573634484E+03  0.22573634484E+03  0.00000000000E+00 0.  1.
         24    2    1    2    0    0 -0.10855953648E+03 -0.23281767830E+03  0.22310601990E+04  0.22473400723E+04  0.83177789117E+02 0.  0.
        254    2    1    2    0    0  0.10855953648E+03  0.23281767830E+03  0.76507505858E+03  0.12002678750E+04  0.88843338644E+03 0.  0.
         23    2    4    4    0    0  0.21624312844E+03 -0.26427476243E+03  0.52216506812E+03  0.62937193167E+03  0.82767320604E+02 0.  0.
         23    2    4    4    0    0 -0.10768359196E+03  0.49709244073E+03  0.24290999046E+03  0.57089594330E+03  0.90665671579E+02 0.  0.
          2    1    3    3  502    0 -0.73956291474E+02 -0.12416193867E+03  0.15579887598E+04  0.15646771858E+04  0.00000000000E+00 0. -1.
         -1    1    3    3    0  502 -0.34603245008E+02 -0.10865573963E+03  0.67307143913E+03  0.68266288641E+03  0.00000000000E+00 0.  1.
         11    1    5    5    0    0  0.26987558127E+02 -0.82003668131E+02  0.16173657210E+03  0.18333479930E+03  0.00000000000E+00 0. -1.
        -11    1    5    5    0    0  0.18925557031E+03 -0.18227109430E+03  0.36042849602E+03  0.44603713237E+03  0.00000000000E+00 0.  1.
          1    1    6    6  503    0 -0.63400422600E+02  0.12073995256E+03  0.82562732377E+02  0.15941880224E+03  0.00000000000E+00 0. -1.
         -1    1    6    6    0  503 -0.44283169358E+02  0.37635248817E+03  0.16034725809E+03  0.41147714106E+03  0.00000000000E+00 0.  1.
<mgrwt>
<rscale>  0 0.17056301E+04</rscale>
<asrwt>0</asrwt>
<pdfrwt beam="1">  1        2 0.49567252E+00 0.17056301E+04</pdfrwt>
<pdfrwt beam="2">  1       -1 0.34728671E-01 0.17056301E+04</pdfrwt>
<totfact> 0.10764683E+01</totfact>
</mgrwt>
</event>
<event>
12    6  0.1556619E-007  0.1095089E+04  0.7818608E-02  0.9209992E-01
         -1   -1    0    0    0  501 -0.00000000000E+00  0.00000000000E+00  0.85125970453E+03  0.85125970453E+03  0.00000000000E+00 0.  1.
          2   -1    0    0  501    0  0.00000000000E+00 -0.00000000000E+00 -0.35218978394E+03  0.35218978394E+03  0.00000000000E+00 0. -1.
         24    2    1    2    0    0  0.84660749270E+02  0.75937692730E+02  0.22558960731E+03  0.27371856613E+03  0.10534328110E+03 0.  0.
        254    2    1    2    0    0 -0.84660749270E+02 -0.75937692730E+02  0.27348031329E+03  0.92973092234E+03  0.88129117241E+03 0.  0.
         23    2    4    4    0    0 -0.32204024662E+03 -0.37011676722E+03  0.14950414528E+03  0.52119377418E+03  0.92709864427E+02 0.  0.
         23    2    4    4    0    0  0.23737949735E+03  0.29417907449E+03  0.12397616801E+03  0.40853714817E+03  0.92963205458E+02 0.  0.
          2    1    3    3  502    0  0.21815491368E+02 -0.15308529719E+02  0.53525066279E+01  0.27183010742E+02  0.00000000000E+00 0. -1.
         -1    1    3    3    0  502  0.62845257902E+02  0.91246222449E+02  0.22023710068E+03  0.24653555538E+03  0.00000000000E+00 0.  1.
         11    1    5    5    0    0 -0.31968187339E+03 -0.37565581619E+03  0.14752950068E+03  0.51485798622E+03  0.00000000000E+00 0. -1.
        -11    1    5    5    0    0 -0.23583732289E+01  0.55390489615E+01  0.19746445959E+01  0.63357879514E+01  0.00000000000E+00 0.  1.
          2    1    6    6  503    0  0.98105837215E+02  0.18741923529E+03  0.45891741122E+02  0.21646426253E+03  0.00000000000E+00 0.  1.
         -2    1    6    6    0  503  0.13927366013E+03  0.10675983921E+03  0.78084426886E+02  0.19207288564E+03  0.00000000000E+00 0. -1.
<mgrwt>
<rscale>  0 0.10950890E+04</rscale>
<asrwt>0</asrwt>
<pdfrwt beam="1">  1        2 0.54183044E-01 0.10950890E+04</pdfrwt>
<pdfrwt beam="2">  1       -1 0.13096303E+00 0.10950890E+04</pdfrwt>
<totfact> 0.51965640E+01</totfact>
</mgrwt>
</event>
<event>
12    6  0.1556619E-007  0.1819524E+04  0.7818608E-02  0.8695985E-01
         -1   -1    0    0    0  501 -0.00000000000E+00  0.00000000000E+00  0.45568770061E+03  0.45568770061E+03  0.00000000000E+00 0.  1.
          2   -1    0    0  501    0  0.00000000000E+00 -0.00000000000E+00 -0.18163025380E+04  0.18163025380E+04  0.00000000000E+00 0. -1.
         24    2    1    2    0    0  0.90297526386E+02  0.55564099719E+03 -0.92991038527E+03  0.10896874727E+04  0.76124257131E+02 0.  0.
        254    2    1    2    0    0 -0.90297526386E+02 -0.55564099719E+03 -0.43070445215E+03  0.11823027659E+04  0.94627847075E+03 0.  0.
         23    2    4    4    0    0  0.26203342170E+03  0.58252703807E+02  0.90342461756E+02  0.29863587250E+03  0.94692831624E+02 0.  0.
         23    2    4    4    0    0 -0.35233094808E+03 -0.61389370099E+03 -0.52104691391E+03  0.88366689343E+03  0.91513490558E+02 0.  0.
          4    1    3    3  502    0  0.81672857545E+02  0.54723385080E+03 -0.88970435765E+03  0.10477161768E+04  0.00000000000E+00 0. -1.
         -3    1    3    3    0  502  0.86246688412E+01  0.84071463906E+01 -0.40206027621E+02  0.41971295907E+02  0.00000000000E+00 0.  1.
         11    1    5    5    0    0  0.22174987361E+03  0.64877402614E+02  0.10690483323E+03  0.25457951054E+03  0.00000000000E+00 0.  1.
        -11    1    5    5    0    0  0.40283548085E+02 -0.66246988067E+01 -0.16562371476E+02  0.44056361964E+02  0.00000000000E+00 0. -1.
          3    1    6    6  503    0 -0.56047155008E+02 -0.49442606862E+02 -0.73031713075E+02  0.10449634478E+03  0.00000000000E+00 0. -1.
         -3    1    6    6    0  503 -0.29628379308E+03 -0.56445109413E+03 -0.44801520083E+03  0.77917054865E+03  0.00000000000E+00 0.  1.
<mgrwt>
<rscale>  0 0.18195238E+04</rscale>
<asrwt>0</asrwt>
<pdfrwt beam="1">  1        2 0.27943116E+00 0.18195238E+04</pdfrwt>
<pdfrwt beam="2">  1       -1 0.70105801E-01 0.18195238E+04</pdfrwt>
<totfact> 0.18659625E+01</totfact>
</mgrwt>
</event>
<event>
12    6  0.1556619E-007  0.1648655E+04  0.7818608E-02  0.8791203E-01
          2   -1    0    0  501    0  0.00000000000E+00  0.00000000000E+00  0.16418189052E+04  0.16418189052E+04  0.00000000000E+00 0. -1.
         -1   -1    0    0    0  501 -0.00000000000E+00 -0.00000000000E+00 -0.41387975798E+03  0.41387975798E+03  0.00000000000E+00 0.  1.
         24    2    1    2    0    0 -0.15009094817E+03  0.46163608472E+03  0.33990628689E+02  0.49305919995E+03  0.79478578096E+02 0.  0.
        254    2    1    2    0    0  0.15009094817E+03 -0.46163608472E+03  0.11939485186E+04  0.15626394633E+04  0.88356882003E+03 0.  0.
         23    2    4    4    0    0  0.31470095042E+03  0.90355894628E+00  0.74075216550E+02  0.33636618713E+03  0.92830865124E+02 0.  0.
         23    2    4    4    0    0 -0.16461000225E+03 -0.46253964367E+03  0.11198733020E+04  0.12262732761E+04  0.92685276106E+02 0.  0.
          4    1    3    3  502    0  0.55944222937E+01  0.67891108971E+02  0.11236845860E+02  0.69041776795E+02  0.00000000000E+00 0. -1.
         -3    1    3    3    0  502 -0.15568537047E+03  0.39374497575E+03  0.22753782829E+02  0.42401742315E+03  0.00000000000E+00 0.  1.
         11    1    5    5    0    0  0.60781550533E+02  0.36065151299E+02  0.27442379932E+02  0.75816727967E+02  0.00000000000E+00 0.  1.
        -11    1    5    5    0    0  0.25391939989E+03 -0.35161592353E+02  0.46632836618E+02  0.26054945916E+03  0.00000000000E+00 0. -1.
          2    1    6    6  503    0 -0.95402443016E+02 -0.37870682864E+03  0.85574424631E+03  0.94064802306E+03  0.00000000000E+00 0. -1.
         -2    1    6    6    0  503 -0.69207559233E+02 -0.83832815025E+02  0.26412905570E+03  0.28562525308E+03  0.00000000000E+00 0.  1.
<mgrwt>
<rscale>  0 0.16486547E+04</rscale>
<asrwt>0</asrwt>
<pdfrwt beam="1">  1        2 0.25258752E+00 0.16486547E+04</pdfrwt>
<pdfrwt beam="2">  1       -1 0.63673810E-01 0.16486547E+04</pdfrwt>
<totfact> 0.28769618E+01</totfact>
</mgrwt>
</event>
<event>
12    6  0.1556619E-007  0.2019283E+04  0.7818608E-02  0.8597658E-01
          2   -1    0    0  501    0  0.00000000000E+00  0.00000000000E+00  0.22371298598E+04  0.22371298598E+04  0.00000000000E+00 0. -1.
         -1   -1    0    0    0  501 -0.00000000000E+00 -0.00000000000E+00 -0.45566234790E+03  0.45566234790E+03  0.00000000000E+00 0.  1.
         24    2    1    2    0    0  0.55765109792E+03 -0.45130840857E+03  0.12162154191E+04  0.14146240389E+04  0.85599059811E+02 0.  0.
        254    2    1    2    0    0 -0.55765109792E+03  0.45130840857E+03  0.56525209281E+03  0.12781681688E+04  0.89417554917E+03 0.  0.
         23    2    4    4    0    0 -0.19227276102E+03  0.67484915258E+03  0.37804565178E+03  0.80242691894E+03  0.92629649943E+02 0.  0.
         23    2    4    4    0    0 -0.36537833690E+03 -0.22354074401E+03  0.18720644103E+03  0.47574124989E+03  0.88383776650E+02 0.  0.
          4    1    3    3  502    0  0.40826227754E+03 -0.32409380424E+03  0.95402177579E+03  0.10871395632E+04  0.00000000000E+00 0. -1.
         -3    1    3    3    0  502  0.14938882038E+03 -0.12721460433E+03  0.26219364332E+03  0.32748447567E+03  0.00000000000E+00 0.  1.
         11    1    5    5    0    0 -0.27656758943E+02  0.16524386111E+03  0.13090372075E+03  0.21261752999E+03  0.00000000000E+00 0.  1.
        -11    1    5    5    0    0 -0.16461600208E+03  0.50960529147E+03  0.24714193102E+03  0.58980938896E+03  0.00000000000E+00 0. -1.
          3    1    6    6  503    0 -0.74922318564E+01 -0.24594917892E+02  0.49477736636E+00  0.25715527002E+02  0.00000000000E+00 0. -1.
         -3    1    6    6    0  503 -0.35788610504E+03 -0.19894582612E+03  0.18671166367E+03  0.45002572289E+03  0.00000000000E+00 0.  1.
<mgrwt>
<rscale>  0 0.20192829E+04</rscale>
<asrwt>0</asrwt>
<pdfrwt beam="1">  1        2 0.34417382E+00 0.20192829E+04</pdfrwt>
<pdfrwt beam="2">  1       -1 0.70101901E-01 0.20192829E+04</pdfrwt>
<totfact> 0.10689851E+01</totfact>
</mgrwt>
</event>
<event>
12    6  0.1556619E-007  0.1228114E+04  0.7818608E-02  0.9088598E-01
         -1   -1    0    0    0  501 -0.00000000000E+00  0.00000000000E+00  0.98698618623E+02  0.98698618623E+02  0.00000000000E+00 0.  1.
          2   -1    0    0  501    0  0.00000000000E+00 -0.00000000000E+00 -0.38203773651E+04  0.38203773651E+04  0.00000000000E+00 0. -1.
         24    2    1    2    0    0  0.19248635417E+03  0.18979323003E+03 -0.76721310809E+03  0.81810326184E+03  0.87203939650E+02 0.  0.
        254    2    1    2    0    0 -0.19248635417E+03 -0.18979323003E+03 -0.29544656384E+04  0.31009727219E+04  0.90227055077E+03 0.  0.
         23    2    4    4    0    0  0.68275806889E+02 -0.24237823313E+03 -0.20305975708E+03  0.33525950494E+03  0.88073134425E+02 0.  0.
         23    2    4    4    0    0 -0.26076216106E+03  0.52585003098E+02 -0.27514058813E+04  0.27657132170E+04  0.90405682894E+02 0.  0.
          2    1    3    3  502    0  0.16063896231E+03  0.14493621274E+03 -0.69120178333E+03  0.72427293699E+03  0.00000000000E+00 0. -1.
         -1    1    3    3    0  502  0.31847391865E+02  0.44857017295E+02 -0.76011324763E+02  0.93830324850E+02  0.00000000000E+00 0.  1.
         11    1    5    5    0    0  0.31000589351E+02 -0.20405343138E+03 -0.12716428836E+03  0.24242441220E+03  0.00000000000E+00 0.  1.
        -11    1    5    5    0    0  0.37275217537E+02 -0.38324801753E+02 -0.75895468724E+02  0.92835092743E+02  0.00000000000E+00 0. -1.
          1    1    6    6  503    0 -0.88650412428E+02  0.62539424070E+02 -0.10917759696E+04  0.10971530627E+04  0.00000000000E+00 0. -1.
         -1    1    6    6    0  503 -0.17211174863E+03 -0.99544209727E+01 -0.16596299117E+04  0.16685601543E+04  0.00000000000E+00 0.  1.
<mgrwt>
<rscale>  0 0.12281140E+04</rscale>
<asrwt>0</asrwt>
<pdfrwt beam="1">  1        2 0.58775040E+00 0.12281140E+04</pdfrwt>
<pdfrwt beam="2">  1       -1 0.15184402E-01 0.12281140E+04</pdfrwt>
<totfact> 0.17715683E+01</totfact>
</mgrwt>
</event>
<event>
12    6  0.1556619E-007  0.1503224E+04  0.7818608E-02  0.8882311E-01
          2   -1    0    0  501    0  0.00000000000E+00  0.00000000000E+00  0.88302721575E+03  0.88302721575E+03  0.00000000000E+00 0. -1.
         -1   -1    0    0    0  501 -0.00000000000E+00 -0.00000000000E+00 -0.63975488224E+03  0.63975488224E+03  0.00000000000E+00 0.  1.
         24    2    1    2    0    0  0.10771501370E+03 -0.10010980119E+03  0.53733080945E+03  0.56296079750E+03  0.81092319449E+02 0.  0.
        254    2    1    2    0    0 -0.10771501370E+03  0.10010980119E+03 -0.29405847593E+03  0.95982130049E+03  0.90175498066E+03 0.  0.
         23    2    4    4    0    0 -0.51270672879E+01 -0.34780229921E+02  0.30975782153E+03  0.32622980857E+03  0.96125068451E+02 0.  0.
         23    2    4    4    0    0 -0.10258794642E+03  0.13489003111E+03 -0.60381629747E+03  0.63359149192E+03  0.90135732693E+02 0.  0.
          4    1    3    3  502    0  0.11655871502E+03 -0.84817358444E+02  0.51315969022E+03  0.53302231286E+03  0.00000000000E+00 0. -1.
         -3    1    3    3    0  502 -0.88437013162E+01 -0.15292442743E+02  0.24171119227E+02  0.29938484643E+02  0.00000000000E+00 0.  1.
         11    1    5    5    0    0  0.22477229656E+02  0.19902201277E+02  0.18301193912E+03  0.18545806354E+03  0.00000000000E+00 0.  1.
        -11    1    5    5    0    0 -0.27604296944E+02 -0.54682431198E+02  0.12674588241E+03  0.14077174503E+03  0.00000000000E+00 0. -1.
          4    1    6    6  503    0 -0.20162928428E+02  0.97467090825E+02 -0.27158567375E+03  0.28924929673E+03  0.00000000000E+00 0. -1.
         -4    1    6    6    0  503 -0.82425017988E+02  0.37422940283E+02 -0.33223062372E+03  0.34434219519E+03  0.00000000000E+00 0.  1.
<mgrwt>
<rscale>  0 0.15032245E+04</rscale>
<asrwt>0</asrwt>
<pdfrwt beam="1">  1        2 0.13585034E+00 0.15032245E+04</pdfrwt>
<pdfrwt beam="2">  1       -1 0.98423828E-01 0.15032245E+04</pdfrwt>
<totfact> 0.32822365E+01</totfact>
</mgrwt>
</event>
<event>
12    6  0.1556619E-007  0.2560116E+04  0.7818608E-02  0.8381877E-01
         -1   -1    0    0    0  501 -0.00000000000E+00  0.00000000000E+00  0.16524297854E+04  0.16524297854E+04  0.00000000000E+00 0.  1.
          2   -1    0    0  501    0  0.00000000000E+00 -0.00000000000E+00 -0.99159916786E+03  0.99159916786E+03  0.00000000000E+00 0. -1.
         24    2    1    2    0    0 -0.31243970071E+03  0.10581299439E+04  0.27978386749E+03  0.11412881792E+04  0.83678854774E+02 0.  0.
        254    2    1    2    0    0  0.31243970071E+03 -0.10581299439E+04  0.38104675008E+03  0.15027407741E+04  0.94645425861E+03 0.  0.
         23    2    4    4    0    0  0.34213219441E+03  0.29477933714E+02  0.50480714914E+02  0.36182442346E+03  0.10220187771E+03 0.  0.
         23    2    4    4    0    0 -0.29692493705E+02 -0.10876078776E+04  0.33056603516E+03  0.11409163506E+04  0.92971371486E+02 0.  0.
          2    1    3    3  502    0 -0.37201538413E+02  0.11348071088E+03  0.42144036684E+01  0.11949722758E+03  0.00000000000E+00 0. -1.
         -1    1    3    3    0  502 -0.27523816229E+03  0.94464923301E+03  0.27556946382E+03  0.10217909516E+04  0.00000000000E+00 0.  1.
         11    1    5    5    0    0  0.29662567916E+02  0.21251389312E+02 -0.19695686787E+02  0.41465763722E+02  0.00000000000E+00 0.  1.
        -11    1    5    5    0    0  0.31246962650E+03  0.82265444024E+01  0.70176401701E+02  0.32035865974E+03  0.00000000000E+00 0. -1.
          2    1    6    6  503    0 -0.57451749139E+02 -0.79589498203E+03  0.26308327149E+03  0.84021564710E+03  0.00000000000E+00 0. -1.
         -2    1    6    6    0  503  0.27759255434E+02 -0.29171289558E+03  0.67482763670E+02  0.30070070352E+03  0.00000000000E+00 0.  1.
<mgrwt>
<rscale>  0 0.25601156E+04</rscale>
<asrwt>0</asrwt>
<pdfrwt beam="1">  1        2 0.15255372E+00 0.25601156E+04</pdfrwt>
<pdfrwt beam="2">  1       -1 0.25421997E+00 0.25601156E+04</pdfrwt>
<totfact> 0.16884238E+00</totfact>
</mgrwt>
</event>
<event>
12    6  0.1556619E-007  0.1856639E+04  0.7818608E-02  0.8676746E-01
          2   -1    0    0  501    0  0.00000000000E+00  0.00000000000E+00  0.74105726060E+03  0.74105726060E+03  0.00000000000E+00 0. -1.
         -1   -1    0    0    0  501 -0.00000000000E+00 -0.00000000000E+00 -0.11629018463E+04  0.11629018463E+04  0.00000000000E+00 0.  1.
         24    2    1    2    0    0  0.60417287187E+02  0.51397531856E+03  0.33331598606E+03  0.62070988354E+03  0.79751716490E+02 0.  0.
        254    2    1    2    0    0 -0.60417287187E+02 -0.51397531856E+03 -0.75516057171E+03  0.12832492233E+04  0.89924424012E+03 0.  0.
         23    2    4    4    0    0  0.32688634716E+03 -0.48274690873E+03 -0.25311429247E+03  0.64187747090E+03  0.89669285455E+02 0.  0.
         23    2    4    4    0    0 -0.38730363435E+03 -0.31228409834E+02 -0.50204627924E+03  0.64137175242E+03  0.91257545093E+02 0.  0.
          4    1    3    3  502    0  0.79948869688E+02  0.42438226882E+03  0.27081870968E+03  0.50974003704E+03  0.00000000000E+00 0. -1.
         -3    1    3    3    0  502 -0.19531582501E+02  0.89593049745E+02  0.62497276381E+02  0.11096984650E+03  0.00000000000E+00 0.  1.
         11    1    5    5    0    0  0.26578065487E+03 -0.44370669884E+03 -0.21746505353E+03  0.56107578864E+03  0.00000000000E+00 0. -1.
        -11    1    5    5    0    0  0.61105692295E+02 -0.39040209891E+02 -0.35649238946E+02  0.80801682264E+02  0.00000000000E+00 0.  1.
          2    1    6    6  503    0 -0.38275404541E+03 -0.33152107475E+02 -0.46131750163E+03  0.60034453343E+03  0.00000000000E+00 0. -1.
         -2    1    6    6    0  503 -0.45495889383E+01  0.19236976407E+01 -0.40728777609E+02  0.41027218985E+02  0.00000000000E+00 0.  1.
<mgrwt>
<rscale>  0 0.18566387E+04</rscale>
<asrwt>0</asrwt>
<pdfrwt beam="1">  1        2 0.11400881E+00 0.18566387E+04</pdfrwt>
<pdfrwt beam="2">  1       -1 0.17890798E+00 0.18566387E+04</pdfrwt>
<totfact> 0.86591117E+00</totfact>
</mgrwt>
</event>
<event>
12    6  0.1556619E-007  0.1372901E+04  0.7818608E-02  0.8973671E-01
          2   -1    0    0  501    0  0.00000000000E+00  0.00000000000E+00  0.17081873275E+04  0.17081873275E+04  0.00000000000E+00 0. -1.
         -1   -1    0    0    0  501 -0.00000000000E+00 -0.00000000000E+00 -0.27585632227E+03  0.27585632227E+03  0.00000000000E+00 0.  1.
         24    2    1    2    0    0  0.33947212276E+03  0.52585206774E+02  0.79756190449E+03  0.87206958993E+03  0.79961566256E+02 0.  0.
        254    2    1    2    0    0 -0.33947212276E+03 -0.52585206774E+02  0.63476910076E+03  0.11119740599E+04  0.84590068709E+03 0.  0.
         23    2    4    4    0    0 -0.60269275644E+03  0.76012230079E+01  0.32914496807E+03  0.69281818506E+03  0.91456493984E+02 0.  0.
         23    2    4    4    0    0  0.26322063368E+03 -0.60186429782E+02  0.30562413269E+03  0.41915587479E+03  0.96840221846E+02 0.  0.
          2    1    3    3  502    0  0.31956814618E+03  0.67782230399E+02  0.72199581794E+03  0.79246210757E+03  0.00000000000E+00 0. -1.
         -1    1    3    3    0  502  0.19903976584E+02 -0.15197023626E+02  0.75566086554E+02  0.79607482363E+02  0.00000000000E+00 0.  1.
         11    1    5    5    0    0 -0.87135715942E+01 -0.45496098164E+00  0.22867068434E+02  0.24475214773E+02  0.00000000000E+00 0.  1.
        -11    1    5    5    0    0 -0.59397918485E+03  0.80561839896E+01  0.30627789964E+03  0.66834297029E+03  0.00000000000E+00 0. -1.
          4    1    6    6  503    0  0.16821079256E+03 -0.68701942602E+02  0.14552285399E+03  0.23279116969E+03  0.00000000000E+00 0. -1.
         -4    1    6    6    0  503  0.95009841119E+02  0.85155128201E+01  0.16010127870E+03  0.18636470511E+03  0.00000000000E+00 0.  1.
<mgrwt>
<rscale>  0 0.13729010E+04</rscale>
<asrwt>0</asrwt>
<pdfrwt beam="1">  1        2 0.26279804E+00 0.13729010E+04</pdfrwt>
<pdfrwt beam="2">  1       -1 0.42439435E-01 0.13729010E+04</pdfrwt>
<totfact> 0.58882237E+01</totfact>
</mgrwt>
</event>
<event>
12    6  0.1556619E-007  0.1944662E+04  0.7818608E-02  0.8632939E-01
          2   -1    0    0  501    0  0.00000000000E+00  0.00000000000E+00  0.75976930093E+03  0.75976930093E+03  0.00000000000E+00 0. -1.
         -1   -1    0    0    0  501 -0.00000000000E+00 -0.00000000000E+00 -0.12443613013E+04  0.12443613013E+04  0.00000000000E+00 0.  1.
         24    2    1    2    0    0 -0.30696939108E+03 -0.55448498470E+03  0.24331811526E+03  0.68323137304E+03  0.76925929131E+02 0.  0.
        254    2    1    2    0    0  0.30696939108E+03  0.55448498470E+03 -0.72791011562E+03  0.13208992292E+04  0.90179700150E+03 0.  0.
         23    2    4    4    0    0  0.51658176958E+03  0.23939936062E+03 -0.73210236841E+03  0.93127640343E+03  0.84457582470E+02 0.  0.
         23    2    4    4    0    0 -0.20961237850E+03  0.31508562409E+03  0.41922527852E+01  0.38962282575E+03  0.92585482868E+02 0.  0.
          4    1    3    3  502    0 -0.24901385442E+03 -0.38174319880E+03  0.18536100929E+03  0.49203096781E+03  0.00000000000E+00 0. -1.
         -3    1    3    3    0  502 -0.57955536664E+02 -0.17274178591E+03  0.57957105969E+02  0.19120040523E+03  0.00000000000E+00 0.  1.
         11    1    5    5    0    0  0.14895270957E+03  0.11104576149E+03 -0.25302284435E+03  0.31390863415E+03  0.00000000000E+00 0. -1.
        -11    1    5    5    0    0  0.36762906001E+03  0.12835359912E+03 -0.47907952406E+03  0.61736776928E+03  0.00000000000E+00 0.  1.
          3    1    6    6  503    0 -0.43164536235E+01  0.68873045640E+02  0.22154181547E+01  0.69043727197E+02  0.00000000000E+00 0. -1.
         -3    1    6    6    0  503 -0.20529592487E+03  0.24621257845E+03  0.19768346305E+01  0.32057909855E+03  0.00000000000E+00 0.  1.
<mgrwt>
<rscale>  0 0.19446619E+04</rscale>
<asrwt>0</asrwt>
<pdfrwt beam="1">  1        2 0.11688758E+00 0.19446619E+04</pdfrwt>
<pdfrwt beam="2">  1       -1 0.19144020E+00 0.19446619E+04</pdfrwt>
<totfact> 0.67800731E+00</totfact>
</mgrwt>
</event>
<event>
12    6  0.1556619E-007  0.2424615E+04  0.7818608E-02  0.8430345E-01
          2   -1    0    0  501    0  0.00000000000E+00  0.00000000000E+00  0.17584388363E+04  0.17584388363E+04  0.00000000000E+00 0. -1.
         -1   -1    0    0    0  501 -0.00000000000E+00 -0.00000000000E+00 -0.83579193750E+03  0.83579193750E+03  0.00000000000E+00 0.  1.
         24    2    1    2    0    0 -0.76075149059E+03 -0.34289916493E+03 -0.26304730056E+03  0.87907365536E+03  0.85170073783E+02 0.  0.
        254    2    1    2    0    0  0.76075149059E+03  0.34289916493E+03  0.11856941994E+04  0.17151571185E+04  0.91628081877E+03 0.  0.
         23    2    4    4    0    0  0.24914688352E+03  0.59186789358E+03  0.49231017692E+03  0.81472571837E+03  0.95010067092E+02 0.  0.
         23    2    4    4    0    0  0.51160460707E+03 -0.24896872866E+03  0.69338402247E+03  0.90043140011E+03  0.79187131885E+02 0.  0.
          2    1    3    3  502    0 -0.35404857476E+03 -0.15745707581E+03 -0.77770573179E+02  0.39521055915E+03  0.00000000000E+00 0. -1.
         -1    1    3    3    0  502 -0.40670291584E+03 -0.18544208912E+03 -0.18527672738E+03  0.48386309621E+03  0.00000000000E+00 0.  1.
         11    1    5    5    0    0  0.86006375525E+02  0.10656525328E+03  0.11279765985E+03  0.17741635186E+03  0.00000000000E+00 0.  1.
        -11    1    5    5    0    0  0.16314050800E+03  0.48530264030E+03  0.37951251707E+03  0.63730936652E+03  0.00000000000E+00 0. -1.
          1    1    6    6  503    0  0.39581400310E+03 -0.22358282351E+03  0.57373470832E+03  0.73200377017E+03  0.00000000000E+00 0. -1.
         -1    1    6    6    0  503  0.11579060397E+03 -0.25385905150E+02  0.11964931415E+03  0.16842762993E+03  0.00000000000E+00 0.  1.
<mgrwt>
<rscale>  0 0.24246146E+04</rscale>
<asrwt>0</asrwt>
<pdfrwt beam="1">  1        2 0.27052905E+00 0.24246146E+04</pdfrwt>
<pdfrwt beam="2">  1       -1 0.12858338E+00 0.24246146E+04</pdfrwt>
<totfact> 0.48470926E+00</totfact>
</mgrwt>
</event>
<event>
12    6  0.1556619E-007  0.2744035E+04  0.7818608E-02  0.8320857E-01
         -1   -1    0    0    0  501 -0.00000000000E+00  0.00000000000E+00  0.19777290426E+04  0.19777290426E+04  0.00000000000E+00 0.  1.
          2   -1    0    0  501    0  0.00000000000E+00 -0.00000000000E+00 -0.95181511488E+03  0.95181511488E+03  0.00000000000E+00 0. -1.
         24    2    1    2    0    0  0.39263478013E+03  0.11547872245E+04  0.52865170076E+03  0.13317675906E+04  0.80228985525E+02 0.  0.
        254    2    1    2    0    0 -0.39263478013E+03 -0.11547872245E+04  0.49726222698E+03  0.15977765669E+04  0.90439185704E+03 0.  0.
         23    2    4    4    0    0 -0.44101099788E+03 -0.17003757836E+03 -0.16738041969E+02  0.48221053966E+03  0.94039163142E+02 0.  0.
         23    2    4    4    0    0  0.48376217753E+02 -0.98474964613E+03  0.51400026895E+03  0.11155660273E+04  0.90659587179E+02 0.  0.
          2    1    3    3  502    0  0.38923079554E+03  0.11548180219E+04  0.52862457037E+03  0.13283633585E+04  0.00000000000E+00 0. -1.
         -1    1    3    3    0  502  0.34039845885E+01 -0.30797411009E-01  0.27130389436E-01  0.34042320158E+01  0.00000000000E+00 0.  1.
         11    1    5    5    0    0 -0.43765452328E+03 -0.15661022866E+03 -0.62980629527E+01  0.46487408087E+03  0.00000000000E+00 0.  1.
        -11    1    5    5    0    0 -0.33564746063E+01 -0.13427349697E+02 -0.10439979016E+02  0.17336458794E+02  0.00000000000E+00 0. -1.
          1    1    6    6  503    0  0.53742286419E+02 -0.85299590201E+03  0.41171807847E+03  0.94868436181E+03  0.00000000000E+00 0.  1.
         -1    1    6    6    0  503 -0.53660686663E+01 -0.13175374412E+03  0.10228219048E+03  0.16688166547E+03  0.00000000000E+00 0. -1.
<mgrwt>
<rscale>  0 0.27440353E+04</rscale>
<asrwt>0</asrwt>
<pdfrwt beam="1">  1        2 0.14643309E+00 0.27440353E+04</pdfrwt>
<pdfrwt beam="2">  1       -1 0.30426601E+00 0.27440353E+04</pdfrwt>
<totfact> 0.83594812E-01</totfact>
</mgrwt>
</event>
<event>
12    6  0.1556619E-007  0.1423470E+04  0.7818608E-02  0.8937003E-01
          2   -1    0    0  501    0  0.00000000000E+00  0.00000000000E+00  0.12924693513E+04  0.12924693513E+04  0.00000000000E+00 0. -1.
         -1   -1    0    0    0  501 -0.00000000000E+00 -0.00000000000E+00 -0.39193732082E+03  0.39193732082E+03  0.00000000000E+00 0.  1.
         24    2    1    2    0    0  0.11892763731E+02  0.13993230430E+03 -0.20150305257E+03  0.25752833519E+03  0.77426582095E+02 0.  0.
        254    2    1    2    0    0 -0.11892763731E+02 -0.13993230430E+03  0.11020350831E+04  0.14268783370E+04  0.89542055847E+03 0.  0.
         23    2    4    4    0    0  0.36567391527E+03 -0.13759012781E+02  0.17814339229E+03  0.41673364971E+03  0.89583167201E+02 0.  0.
         23    2    4    4    0    0 -0.37756667900E+03 -0.12617329152E+03  0.92389169078E+03  0.10101446872E+04  0.91324346550E+02 0.  0.
          4    1    3    3  502    0 -0.25326197796E+02  0.13983609413E+02 -0.32902389596E+02  0.43812382589E+02  0.00000000000E+00 0. -1.
         -3    1    3    3    0  502  0.37218961526E+02  0.12594869489E+03 -0.16860066297E+03  0.21371595260E+03  0.00000000000E+00 0.  1.
         11    1    5    5    0    0  0.21579023596E+02 -0.15273531053E+02 -0.50400074502E+01  0.26913503772E+02  0.00000000000E+00 0. -1.
        -11    1    5    5    0    0  0.34409489167E+03  0.15145182724E+01  0.18318339974E+03  0.38982014594E+03  0.00000000000E+00 0.  1.
          1    1    6    6  503    0 -0.52398913506E+02 -0.20543785173E+02  0.66624969261E+02  0.87215708303E+02  0.00000000000E+00 0. -1.
         -1    1    6    6    0  503 -0.32516776550E+03 -0.10562950635E+03  0.85726672152E+03  0.92292897893E+03  0.00000000000E+00 0.  1.
<mgrwt>
<rscale>  0 0.14234704E+04</rscale>
<asrwt>0</asrwt>
<pdfrwt beam="1">  1        2 0.19884144E+00 0.14234704E+04</pdfrwt>
<pdfrwt beam="2">  1       -1 0.60298050E-01 0.14234704E+04</pdfrwt>
<totfact> 0.51587023E+01</totfact>
</mgrwt>
</event>
<event>
12    6  0.1556619E-007  0.2071923E+04  0.7818608E-02  0.8573713E-01
          2   -1    0    0  501    0  0.00000000000E+00  0.00000000000E+00  0.26339847433E+04  0.26339847433E+04  0.00000000000E+00 0. -1.
         -1   -1    0    0    0  501 -0.00000000000E+00 -0.00000000000E+00 -0.40744976349E+03  0.40744976349E+03  0.00000000000E+00 0.  1.
         24    2    1    2    0    0  0.81358385681E+01  0.30305962924E+03  0.20558273666E+04  0.20795628323E+04  0.79019502581E+02 0.  0.
        254    2    1    2    0    0 -0.81358385681E+01 -0.30305962924E+03  0.17070761322E+03  0.96187167442E+03  0.89674115446E+03 0.  0.
         23    2    4    4    0    0  0.31681579683E+03 -0.42124980218E+03 -0.57277097656E+02  0.53798742768E+03  0.91247802522E+02 0.  0.
         23    2    4    4    0    0 -0.32495163540E+03  0.11819017294E+03  0.22798471087E+03  0.42388424675E+03  0.90212770261E+02 0.  0.
          2    1    3    3  502    0 -0.94963839313E+01  0.25618381076E+03  0.15270687566E+04  0.15484377009E+04  0.00000000000E+00 0. -1.
         -1    1    3    3    0  502  0.17632222499E+02  0.46875818479E+02  0.52875860997E+03  0.53112513144E+03  0.00000000000E+00 0.  1.
         11    1    5    5    0    0  0.13269791036E+03 -0.25217743494E+03 -0.30452577368E+02  0.28658254234E+03  0.00000000000E+00 0. -1.
        -11    1    5    5    0    0  0.18411788647E+03 -0.16907236724E+03 -0.26824520288E+02  0.25140488534E+03  0.00000000000E+00 0.  1.
          2    1    6    6  503    0 -0.32235981980E+03  0.98986024933E+02  0.20885325793E+03  0.39665321113E+03  0.00000000000E+00 0. -1.
         -2    1    6    6    0  503 -0.25918155972E+01  0.19204148004E+02  0.19131452946E+02  0.27231035611E+02  0.00000000000E+00 0.  1.
<mgrwt>
<rscale>  0 0.20719232E+04</rscale>
<asrwt>0</asrwt>
<pdfrwt beam="1">  1        2 0.40522841E+00 0.20719232E+04</pdfrwt>
<pdfrwt beam="2">  1       -1 0.62684581E-01 0.20719232E+04</pdfrwt>
<totfact> 0.78916037E+00</totfact>
</mgrwt>
</event>
<event>
12    6  0.1556619E-007  0.9949573E+03  0.7818608E-02  0.9314093E-01
          4   -1    0    0  501    0  0.00000000000E+00  0.00000000000E+00  0.14617865511E+04  0.14617865511E+04  0.00000000000E+00 0. -1.
         -3   -1    0    0    0  501 -0.00000000000E+00 -0.00000000000E+00 -0.16930312038E+03  0.16930312038E+03  0.00000000000E+00 0.  1.
         24    2    1    2    0    0 -0.34202192325E+02 -0.17835886624E+02  0.76587289821E+02  0.11784464034E+03  0.80832156242E+02 0.  0.
        254    2    1    2    0    0  0.34202192325E+02  0.17835886624E+02  0.12158961409E+04  0.15132450312E+04  0.90001066106E+03 0.  0.
         23    2    4    4    0    0  0.30682174133E+03 -0.31121361517E+03  0.46484915032E+03  0.64447225206E+03  0.90918952399E+02 0.  0.
         23    2    4    4    0    0 -0.27261954900E+03  0.32904950179E+03  0.75104699062E+03  0.86877277912E+03  0.89997591616E+02 0.  0.
          2    1    3    3  502    0 -0.14850271775E+02 -0.15280589686E+02  0.91075891309E+02  0.93535260574E+02  0.00000000000E+00 0. -1.
         -1    1    3    3    0  502 -0.19351920550E+02 -0.25552969379E+01 -0.14488601488E+02  0.24309379764E+02  0.00000000000E+00 0.  1.
         11    1    5    5    0    0  0.87418796822E+02 -0.84850030147E+02  0.19284097914E+03  0.22809913829E+03  0.00000000000E+00 0.  1.
        -11    1    5    5    0    0  0.21940294450E+03 -0.22636358502E+03  0.27200817119E+03  0.41637311377E+03  0.00000000000E+00 0. -1.
          3    1    6    6  503    0 -0.22505679077E+02  0.34553712111E+02  0.13886828101E+03  0.14486153417E+03  0.00000000000E+00 0. -1.
         -3    1    6    6    0  503 -0.25011386992E+03  0.29449578968E+03  0.61217870961E+03  0.72391124495E+03  0.00000000000E+00 0.  1.
<mgrwt>
<rscale>  0 0.99495733E+03</rscale>
<asrwt>0</asrwt>
<pdfrwt beam="1">  1        4 0.22489023E+00 0.99495733E+03</pdfrwt>
<pdfrwt beam="2">  1       -3 0.26046635E-01 0.99495733E+03</pdfrwt>
<totfact> 0.29452320E+00</totfact>
</mgrwt>
</event>
<event>
12    6  0.1556619E-007  0.2119078E+04  0.7818608E-02  0.8552886E-01
         -1   -1    0    0    0  501 -0.00000000000E+00  0.00000000000E+00  0.46661931113E+03  0.46661931113E+03  0.00000000000E+00 0.  1.
          2   -1    0    0  501    0  0.00000000000E+00 -0.00000000000E+00 -0.24058636824E+04  0.24058636824E+04  0.00000000000E+00 0. -1.
         24    2    1    2    0    0  0.86214390741E+03  0.10921008885E+03 -0.83707354585E+03  0.12096280275E+04  0.85374955720E+02 0.  0.
        254    2    1    2    0    0 -0.86214390741E+03 -0.10921008885E+03 -0.11021708254E+04  0.16628549661E+04  0.89167659450E+03 0.  0.
         23    2    4    4    0    0 -0.76707776054E+03 -0.42374025345E+03 -0.92939413631E+03  0.12804976079E+04  0.89087428986E+02 0.  0.
         23    2    4    4    0    0 -0.95066146876E+02  0.31453016460E+03 -0.17277668912E+03  0.38235735823E+03  0.91534520061E+02 0.  0.
          2    1    3    3  502    0  0.53974571703E+03  0.10729298327E+03 -0.54759275145E+03  0.77633436401E+03  0.00000000000E+00 0. -1.
         -1    1    3    3    0  502  0.32239819039E+03  0.19171055781E+01 -0.28948079440E+03  0.43329366345E+03  0.00000000000E+00 0.  1.
         11    1    5    5    0    0 -0.20084776021E+03 -0.88906876379E+02 -0.18578212009E+03  0.28767907744E+03  0.00000000000E+00 0.  1.
        -11    1    5    5    0    0 -0.56623000032E+03 -0.33483337707E+03 -0.74361201622E+03  0.99281853042E+03  0.00000000000E+00 0. -1.
          4    1    6    6  503    0 -0.99878195317E+02  0.21602581267E+03 -0.93052570774E+02  0.25554175112E+03  0.00000000000E+00 0. -1.
         -4    1    6    6    0  503  0.48120484408E+01  0.98504351928E+02 -0.79724118346E+02  0.12681560710E+03  0.00000000000E+00 0.  1.
<mgrwt>
<rscale>  0 0.21190776E+04</rscale>
<asrwt>0</asrwt>
<pdfrwt beam="1">  1        2 0.37013287E+00 0.21190776E+04</pdfrwt>
<pdfrwt beam="2">  1       -1 0.71787588E-01 0.21190776E+04</pdfrwt>
<totfact> 0.80922286E+00</totfact>
</mgrwt>
</event>
<event>
12    6  0.1556619E-007  0.2093666E+04  0.7818608E-02  0.8564039E-01
          2   -1    0    0  501    0  0.00000000000E+00  0.00000000000E+00  0.12794713406E+04  0.12794713406E+04  0.00000000000E+00 0. -1.
         -1   -1    0    0    0  501 -0.00000000000E+00 -0.00000000000E+00 -0.85649398638E+03  0.85649398638E+03  0.00000000000E+00 0.  1.
         24    2    1    2    0    0  0.66316503527E+03 -0.10244784253E+03  0.71022990707E+03  0.98019478535E+03  0.77922216975E+02 0.  0.
        254    2    1    2    0    0 -0.66316503527E+03  0.10244784253E+03 -0.28725255286E+03  0.11557705416E+04  0.89610718740E+03 0.  0.
         23    2    4    4    0    0  0.19352088712E+03  0.12602850176E+03 -0.13065146486E+03  0.27986349483E+03  0.88995805858E+02 0.  0.
         23    2    4    4    0    0 -0.85668592239E+03 -0.23580659224E+02 -0.15660108800E+03  0.87590704679E+03  0.90677652968E+02 0.  0.
          2    1    3    3  502    0  0.48074355667E+03 -0.10856522866E+03  0.50852382593E+03  0.70816471085E+03  0.00000000000E+00 0. -1.
         -1    1    3    3    0  502  0.18242147860E+03  0.61173861237E+01  0.20170608114E+03  0.27203007450E+03  0.00000000000E+00 0.  1.
         11    1    5    5    0    0  0.15466089857E+03  0.70552755885E+02 -0.12670107096E+03  0.21201614630E+03  0.00000000000E+00 0.  1.
        -11    1    5    5    0    0  0.38859988550E+02  0.55475745873E+02 -0.39503938992E+01  0.67847348528E+02  0.00000000000E+00 0. -1.
          4    1    6    6  503    0 -0.81381963528E+03 -0.41957966221E+02 -0.15290122326E+03  0.82912101274E+03  0.00000000000E+00 0. -1.
         -4    1    6    6    0  503 -0.42866287111E+02  0.18377306997E+02 -0.36998647383E+01  0.46786034051E+02  0.00000000000E+00 0.  1.
<mgrwt>
<rscale>  0 0.20936662E+04</rscale>
<asrwt>0</asrwt>
<pdfrwt beam="1">  1        2 0.19684174E+00 0.20936662E+04</pdfrwt>
<pdfrwt beam="2">  1       -1 0.13176831E+00 0.20936662E+04</pdfrwt>
<totfact> 0.87539681E+00</totfact>
</mgrwt>
</event>
<event>
12    6  0.1556619E-007  0.1281956E+04  0.7818608E-02  0.9043998E-01
          2   -1    0    0  501    0  0.00000000000E+00  0.00000000000E+00  0.12584982724E+04  0.12584982724E+04  0.00000000000E+00 0. -1.
         -1   -1    0    0    0  501 -0.00000000000E+00 -0.00000000000E+00 -0.32646268962E+03  0.32646268962E+03  0.00000000000E+00 0.  1.
         24    2    1    2    0    0 -0.35349600101E+02 -0.22523874994E+03  0.51868227148E+03  0.57227514867E+03  0.80532343418E+02 0.  0.
        254    2    1    2    0    0  0.35349600101E+02  0.22523874994E+03  0.41335331131E+03  0.10126858134E+04  0.89592941012E+03 0.  0.
         23    2    4    4    0    0 -0.82665707708E+02  0.45666091178E+03 -0.48093047932E+02  0.47534141196E+03  0.90904945342E+02 0.  0.
         23    2    4    4    0    0  0.11801530781E+03 -0.23142216184E+03  0.46144635924E+03  0.53734440140E+03  0.91227371985E+02 0.  0.
          2    1    3    3  502    0 -0.13102464273E+02 -0.21684943493E+03  0.47994479588E+03  0.52682289158E+03  0.00000000000E+00 0. -1.
         -1    1    3    3    0  502 -0.22247135829E+02 -0.83893150138E+01  0.38737475600E+02  0.45452257093E+02  0.00000000000E+00 0.  1.
         11    1    5    5    0    0 -0.86387619605E+01  0.15392577567E+03  0.22474290975E+02  0.15579751724E+03  0.00000000000E+00 0.  1.
        -11    1    5    5    0    0 -0.74026945748E+02  0.30273513611E+03 -0.70567338908E+02  0.31954389472E+03  0.00000000000E+00 0. -1.
          4    1    6    6  503    0  0.83347308022E+02 -0.15191757782E+03  0.38309377141E+03  0.42045994090E+03  0.00000000000E+00 0. -1.
         -4    1    6    6    0  503  0.34667999788E+02 -0.79504584015E+02  0.78352587829E+02  0.11688446051E+03  0.00000000000E+00 0.  1.
<mgrwt>
<rscale>  0 0.12819559E+04</rscale>
<asrwt>0</asrwt>
<pdfrwt beam="1">  1        2 0.19361512E+00 0.12819559E+04</pdfrwt>
<pdfrwt beam="2">  1       -1 0.50225030E-01 0.12819559E+04</pdfrwt>
<totfact> 0.77823731E+01</totfact>
</mgrwt>
</event>
<event>
12    6  0.1556619E-007  0.1382672E+04  0.7818608E-02  0.8966458E-01
         -1   -1    0    0    0  501 -0.00000000000E+00  0.00000000000E+00  0.44022200512E+03  0.44022200512E+03  0.00000000000E+00 0.  1.
          2   -1    0    0  501    0  0.00000000000E+00 -0.00000000000E+00 -0.10856912041E+04  0.10856912041E+04  0.00000000000E+00 0. -1.
         24    2    1    2    0    0 -0.38543382341E+03 -0.42334379062E+02 -0.15201400799E+03  0.42496092551E+03  0.84451747798E+02 0.  0.
        254    2    1    2    0    0  0.38543382341E+03  0.42334379062E+02 -0.49345519096E+03  0.11009522837E+04  0.90456977264E+03 0.  0.
         23    2    4    4    0    0 -0.17773023085E+03 -0.25313945030E+03 -0.27011858876E+03  0.42082940887E+03  0.92009364325E+02 0.  0.
         23    2    4    4    0    0  0.56316405426E+03  0.29547382936E+03 -0.22333660220E+03  0.68012287481E+03  0.90715770982E+02 0.  0.
          4    1    3    3  502    0 -0.24684670407E+02  0.14448181754E+02 -0.25961814146E+02  0.38627693471E+02  0.00000000000E+00 0. -1.
         -3    1    3    3    0  502 -0.36074915300E+03 -0.56782560817E+02 -0.12605219385E+03  0.38633323204E+03  0.00000000000E+00 0.  1.
         11    1    5    5    0    0 -0.10333274269E+03 -0.13426732987E+03 -0.20574372747E+03  0.26652552031E+03  0.00000000000E+00 0. -1.
        -11    1    5    5    0    0 -0.74397488158E+02 -0.11887212043E+03 -0.64374861285E+02  0.15430388856E+03  0.00000000000E+00 0.  1.
          2    1    6    6  503    0  0.13187827954E+03  0.37377170545E+02 -0.74105344773E+02  0.15582212814E+03  0.00000000000E+00 0.  1.
         -2    1    6    6    0  503  0.43128577472E+03  0.25809665882E+03 -0.14923125743E+03  0.52430074667E+03  0.00000000000E+00 0. -1.
<mgrwt>
<rscale>  0 0.13826716E+04</rscale>
<asrwt>0</asrwt>
<pdfrwt beam="1">  1        2 0.16702941E+00 0.13826716E+04</pdfrwt>
<pdfrwt beam="2">  1       -1 0.67726464E-01 0.13826716E+04</pdfrwt>
<totfact> 0.54567034E+01</totfact>
</mgrwt>
</event>
<event>
12    6  0.1556619E-007  0.1360752E+04  0.7818608E-02  0.8982729E-01
          2   -1    0    0  501    0  0.00000000000E+00  0.00000000000E+00  0.12998172752E+04  0.12998172752E+04  0.00000000000E+00 0. -1.
         -1   -1    0    0    0  501 -0.00000000000E+00 -0.00000000000E+00 -0.35613572318E+03  0.35613572318E+03  0.00000000000E+00 0.  1.
         24    2    1    2    0    0 -0.29178585180E+03  0.70283382450E+02  0.36393293912E+03  0.47842218843E+03  0.79761325476E+02 0.  0.
        254    2    1    2    0    0  0.29178585180E+03 -0.70283382450E+02  0.57974861286E+03  0.11775308099E+04  0.97999572297E+03 0.  0.
         23    2    4    4    0    0 -0.34071402232E+03  0.37673361590E+02  0.93372095114E+02  0.36728751375E+03  0.93147423133E+02 0.  0.
         23    2    4    4    0    0  0.63249987412E+03 -0.10795674404E+03  0.48637651774E+03  0.81024329616E+03  0.90671564570E+02 0.  0.
          2    1    3    3  502    0 -0.21520874101E+03  0.63392866388E+02  0.31694737142E+03  0.38831571430E+03  0.00000000000E+00 0. -1.
         -1    1    3    3    0  502 -0.76577110788E+02  0.68905160620E+01  0.46985567696E+02  0.90106474129E+02  0.00000000000E+00 0.  1.
         11    1    5    5    0    0 -0.20874220845E+03 -0.22123609898E+02  0.64024066351E+02  0.21945807065E+03  0.00000000000E+00 0. -1.
        -11    1    5    5    0    0 -0.13197181387E+03  0.59796971488E+02  0.29348028763E+02  0.14782944310E+03  0.00000000000E+00 0.  1.
          4    1    6    6  503    0  0.10000925191E+03  0.60614270251E+01  0.47690786092E+02  0.11096396912E+03  0.00000000000E+00 0. -1.
         -4    1    6    6    0  503  0.53249062221E+03 -0.11401817107E+03  0.43868573165E+03  0.69927932704E+03  0.00000000000E+00 0.  1.
<mgrwt>
<rscale>  0 0.13607518E+04</rscale>
<asrwt>0</asrwt>
<pdfrwt beam="1">  1        2 0.19997189E+00 0.13607518E+04</pdfrwt>
<pdfrwt beam="2">  1       -1 0.54790112E-01 0.13607518E+04</pdfrwt>
<totfact> 0.61916775E+01</totfact>
</mgrwt>
</event>
<event>
12    6  0.1556619E-007  0.2467992E+04  0.7818608E-02  0.8414478E-01
         -1   -1    0    0    0  501 -0.00000000000E+00  0.00000000000E+00  0.63476100314E+03  0.63476100314E+03  0.00000000000E+00 0.  1.
          2   -1    0    0  501    0  0.00000000000E+00 -0.00000000000E+00 -0.23989276615E+04  0.23989276615E+04  0.00000000000E+00 0. -1.
         24    2    1    2    0    0  0.67717310373E+03 -0.58916894244E+03 -0.47346506157E+02  0.90237451112E+03  0.79715817284E+02 0.  0.
        254    2    1    2    0    0 -0.67717310373E+03  0.58916894244E+03 -0.17168201522E+04  0.21313141535E+04  0.88845097265E+03 0.  0.
         23    2    4    4    0    0 -0.63137396941E+03  0.89677798028E+02 -0.13667266948E+04  0.15109864647E+04  0.91994790277E+02 0.  0.
         23    2    4    4    0    0 -0.45799134321E+02  0.49949114441E+03 -0.35009345732E+03  0.62032768877E+03  0.10320876197E+03 0.  0.
          4    1    3    3  502    0  0.89880458663E+02 -0.89828134960E+02 -0.33316883753E+02  0.13136820553E+03  0.00000000000E+00 0. -1.
         -3    1    3    3    0  502  0.58729264507E+03 -0.49934080748E+03 -0.14029622404E+02  0.77100630559E+03  0.00000000000E+00 0.  1.
         11    1    5    5    0    0 -0.37799053310E+03  0.42823289350E+02 -0.70943067090E+03  0.80498605828E+03  0.00000000000E+00 0. -1.
        -11    1    5    5    0    0 -0.25338343631E+03  0.46854508678E+02 -0.65729602395E+03  0.70600040643E+03  0.00000000000E+00 0.  1.
          4    1    6    6  503    0 -0.77364518316E+02  0.40303099485E+03 -0.28770994525E+03  0.50119483647E+03  0.00000000000E+00 0.  1.
         -4    1    6    6    0  503  0.31565383995E+02  0.96460149557E+02 -0.62383512065E+02  0.11913285230E+03  0.00000000000E+00 0. -1.
<mgrwt>
<rscale>  0 0.24679917E+04</rscale>
<asrwt>0</asrwt>
<pdfrwt beam="1">  1        2 0.36906580E+00 0.24679917E+04</pdfrwt>
<pdfrwt beam="2">  1       -1 0.97655538E-01 0.24679917E+04</pdfrwt>
<totfact> 0.40734849E+00</totfact>
</mgrwt>
</event>
<event>
12    6  0.1556619E-007  0.2800622E+04  0.7818608E-02  0.8303075E-01
          2   -1    0    0  501    0  0.00000000000E+00  0.00000000000E+00  0.15573755046E+04  0.15573755046E+04  0.00000000000E+00 0. -1.
         -1   -1    0    0    0  501 -0.00000000000E+00 -0.00000000000E+00 -0.12590868319E+04  0.12590868319E+04  0.00000000000E+00 0.  1.
         24    2    1    2    0    0  0.19733504278E+03 -0.38693565599E+03  0.13144748395E+04  0.13866250262E+04  0.78895744860E+02 0.  0.
        254    2    1    2    0    0 -0.19733504278E+03  0.38693565599E+03 -0.10161861668E+04  0.14298373103E+04  0.90727068034E+03 0.  0.
         23    2    4    4    0    0 -0.14456243290E+03 -0.24564923152E+03 -0.58099814735E+03  0.65398356777E+03  0.94307039725E+02 0.  0.
         23    2    4    4    0    0 -0.52772609882E+02  0.63258488751E+03 -0.43518801947E+03  0.77585374256E+03  0.98039937278E+02 0.  0.
          2    1    3    3  502    0  0.14027076482E+03 -0.33567507420E+03  0.11182120449E+04  0.11759046817E+04  0.00000000000E+00 0. -1.
         -1    1    3    3    0  502  0.57064277967E+02 -0.51260581788E+02  0.19626279460E+03  0.21072034455E+03  0.00000000000E+00 0.  1.
         11    1    5    5    0    0 -0.69573369393E+02 -0.13369319340E+03 -0.20405026857E+03  0.25367466526E+03  0.00000000000E+00 0. -1.
        -11    1    5    5    0    0 -0.74989063509E+02 -0.11195603812E+03 -0.37694787878E+03  0.40030890251E+03  0.00000000000E+00 0.  1.
          3    1    6    6  503    0 -0.31382233979E+02  0.77705328924E+02 -0.84987934897E+02  0.11935623918E+03  0.00000000000E+00 0. -1.
         -3    1    6    6    0  503 -0.21390375903E+02  0.55487955858E+03 -0.35020008457E+03  0.65649750338E+03  0.00000000000E+00 0.  1.
<mgrwt>
<rscale>  0 0.28006221E+04</rscale>
<asrwt>0</asrwt>
<pdfrwt beam="1">  1        2 0.23959623E+00 0.28006221E+04</pdfrwt>
<pdfrwt beam="2">  1       -1 0.19370567E+00 0.28006221E+04</pdfrwt>
<totfact> 0.19431532E+00</totfact>
</mgrwt>
</event>
<event>
12    6  0.1556619E-007  0.1152297E+04  0.7818608E-02  0.9155667E-01
          2   -1    0    0  501    0  0.00000000000E+00  0.00000000000E+00  0.37936436285E+03  0.37936436285E+03  0.00000000000E+00 0. -1.
         -1   -1    0    0    0  501 -0.00000000000E+00 -0.00000000000E+00 -0.87500852863E+03  0.87500852863E+03  0.00000000000E+00 0.  1.
         24    2    1    2    0    0 -0.12581660420E+03  0.89506030558E+02  0.63107425591E+02  0.18496954958E+03  0.79937723953E+02 0.  0.
        254    2    1    2    0    0  0.12581660420E+03 -0.89506030558E+02 -0.55875159137E+03  0.10694033419E+04  0.89865400427E+03 0.  0.
         23    2    4    4    0    0  0.28008375094E+03  0.26528524676E+03 -0.14043072710E+02  0.39532406397E+03  0.85209964034E+02 0.  0.
         23    2    4    4    0    0 -0.15426714675E+03 -0.35479127731E+03 -0.54470851866E+03  0.67407927792E+03  0.89444393930E+02 0.  0.
          4    1    3    3  502    0 -0.11734019223E+03  0.10415833932E+03  0.55722492422E+02  0.16650128085E+03  0.00000000000E+00 0. -1.
         -3    1    3    3    0  502 -0.84764119637E+01 -0.14652308767E+02  0.73849331688E+01  0.18468268730E+02  0.00000000000E+00 0.  1.
         11    1    5    5    0    0  0.52888388580E+02  0.89773490789E+02 -0.28004961728E+02  0.10789225726E+03  0.00000000000E+00 0. -1.
        -11    1    5    5    0    0  0.22719536236E+03  0.17551175597E+03  0.13961889018E+02  0.28743180671E+03  0.00000000000E+00 0.  1.
          3    1    6    6  503    0 -0.39857244914E+02 -0.10475749029E+03 -0.94795779988E+02  0.14679567994E+03  0.00000000000E+00 0. -1.
         -3    1    6    6    0  503 -0.11440990183E+03 -0.25003378702E+03 -0.44991273867E+03  0.52728359799E+03  0.00000000000E+00 0.  1.
<mgrwt>
<rscale>  0 0.11522969E+04</rscale>
<asrwt>0</asrwt>
<pdfrwt beam="1">  1        2 0.58363749E-01 0.11522969E+04</pdfrwt>
<pdfrwt beam="2">  1       -1 0.13461670E+00 0.11522969E+04</pdfrwt>
<totfact> 0.44391379E+01</totfact>
</mgrwt>
</event>
<event>
12    6  0.1755055E-007  0.1884964E+04  0.7818608E-02  0.8662377E-01
          2   -1    0    0  501    0  0.00000000000E+00  0.00000000000E+00  0.17719726611E+04  0.17719726611E+04  0.00000000000E+00 0. -1.
         -1   -1    0    0    0  501 -0.00000000000E+00 -0.00000000000E+00 -0.50129011215E+03  0.50129011215E+03  0.00000000000E+00 0.  1.
         24    2    1    2    0    0  0.38473205600E+03  0.23844770442E+01 -0.25210951510E+03  0.46699515128E+03  0.80627681773E+02 0.  0.
        254    2    1    2    0    0 -0.38473205600E+03 -0.23844770442E+01  0.15227920641E+04  0.18062676220E+04  0.89201043222E+03 0.  0.
         23    2    4    4    0    0  0.10629401488E+03 -0.69082365313E+02 -0.42115961328E+02  0.16235474681E+03  0.92274150313E+02 0.  0.
         23    2    4    4    0    0 -0.49102607088E+03  0.66697888269E+02  0.15649080254E+04  0.16439128752E+04  0.89203153732E+02 0.  0.
          4    1    3    3  502    0  0.31632009706E+02  0.32556823982E+01  0.21572355993E+01  0.31872200604E+02  0.00000000000E+00 0. -1.
         -3    1    3    3    0  502  0.35310004629E+03 -0.87120535402E+00 -0.25426675070E+03  0.43512295067E+03  0.00000000000E+00 0.  1.
         11    1    5    5    0    0  0.46272185210E+02 -0.13983526888E+02 -0.61872545512E+02  0.78516660884E+02  0.00000000000E+00 0.  1.
        -11    1    5    5    0    0  0.60021829671E+02 -0.55098838425E+02  0.19756584184E+02  0.83838085925E+02  0.00000000000E+00 0. -1.
          3    1    6    6  503    0 -0.64447627945E+02  0.30941248087E+02  0.16022981581E+03  0.17545498413E+03  0.00000000000E+00 0. -1.
         -3    1    6    6    0  503 -0.42657844293E+03  0.35756640182E+02  0.14046782096E+04  0.14684578910E+04  0.00000000000E+00 0.  1.
<mgrwt>
<rscale>  0 0.18849641E+04</rscale>
<asrwt>0</asrwt>
<pdfrwt beam="1">  1        2 0.27261117E+00 0.18849641E+04</pdfrwt>
<pdfrwt beam="2">  1       -1 0.77121557E-01 0.18849641E+04</pdfrwt>
<totfact> 0.16103336E+01</totfact>
</mgrwt>
</event>
<event>
12    6  0.1556619E-007  0.1816638E+04  0.7818608E-02  0.8697501E-01
          2   -1    0    0  501    0  0.00000000000E+00  0.00000000000E+00  0.27397313314E+04  0.27397313314E+04  0.00000000000E+00 0. -1.
         -1   -1    0    0    0  501 -0.00000000000E+00 -0.00000000000E+00 -0.30114041992E+03  0.30114041992E+03  0.00000000000E+00 0.  1.
         24    2    1    2    0    0  0.34635074505E+03  0.40571855264E+03  0.20814641356E+03  0.57847521371E+03  0.82111271098E+02 0.  0.
        254    2    1    2    0    0 -0.34635074505E+03 -0.40571855264E+03  0.22304444979E+04  0.24623965376E+04  0.89663128855E+03 0.  0.
         23    2    4    4    0    0 -0.52828318267E+02  0.10763515373E+03  0.15461255947E+04  0.15535103646E+04  0.92271017129E+02 0.  0.
         23    2    4    4    0    0 -0.29352242678E+03 -0.51335370638E+03  0.68431890320E+03  0.90888617305E+03  0.89968168945E+02 0.  0.
          4    1    3    3  502    0 -0.32061987968E+01  0.53743813837E+01 -0.25528739399E+01  0.67587610799E+01  0.00000000000E+00 0. -1.
         -3    1    3    3    0  502  0.34955694384E+03  0.40034417126E+03  0.21069928750E+03  0.57171645263E+03  0.00000000000E+00 0.  1.
         11    1    5    5    0    0 -0.76747350913E+02  0.62958500268E+02  0.92103493713E+03  0.92636887040E+03  0.00000000000E+00 0. -1.
        -11    1    5    5    0    0  0.23919032646E+02  0.44676653466E+02  0.62509065761E+03  0.62714149418E+03  0.00000000000E+00 0.  1.
          2    1    6    6  503    0 -0.19078973225E+02 -0.64743284285E+02  0.45292868052E+02  0.81284340286E+02  0.00000000000E+00 0. -1.
         -2    1    6    6    0  503 -0.27444345356E+03 -0.44861042209E+03  0.63902603515E+03  0.82760183277E+03  0.00000000000E+00 0.  1.
<mgrwt>
<rscale>  0 0.18166385E+04</rscale>
<asrwt>0</asrwt>
<pdfrwt beam="1">  1        2 0.42149711E+00 0.18166385E+04</pdfrwt>
<pdfrwt beam="2">  1       -1 0.46329297E-01 0.18166385E+04</pdfrwt>
<totfact> 0.12541647E+01</totfact>
</mgrwt>
</event>
<event>
12    6  0.1556619E-007  0.3177107E+04  0.7818608E-02  0.8194889E-01
          2   -1    0    0  501    0  0.00000000000E+00  0.00000000000E+00  0.25064183937E+04  0.25064183937E+04  0.00000000000E+00 0. -1.
         -1   -1    0    0    0  501 -0.00000000000E+00 -0.00000000000E+00 -0.10068162136E+04  0.10068162136E+04  0.00000000000E+00 0.  1.
         24    2    1    2    0    0 -0.70210960625E+01  0.32528197315E+03  0.22602838510E+04  0.22850173659E+04  0.81016154613E+02 0.  0.
        254    2    1    2    0    0  0.70210960625E+01 -0.32528197315E+03 -0.76068167085E+03  0.12282172414E+04  0.90775730785E+03 0.  0.
         23    2    4    4    0    0 -0.21334898064E+03 -0.17555418811E+03  0.11178798617E+03  0.31146014239E+03  0.90409103211E+02 0.  0.
         23    2    4    4    0    0  0.22037007671E+03 -0.14972778504E+03 -0.87246965702E+03  0.91675709905E+03  0.90878467856E+02 0.  0.
          4    1    3    3  502    0 -0.41725408520E+02  0.12771381109E+03  0.85649016694E+03  0.86696437835E+03  0.00000000000E+00 0. -1.
         -3    1    3    3    0  502  0.34704312457E+02  0.19756816206E+03  0.14037936841E+04  0.14180529875E+04  0.00000000000E+00 0.  1.
         11    1    5    5    0    0 -0.15949498603E+03 -0.83716263320E+02  0.44604788034E+02  0.18557114654E+03  0.00000000000E+00 0. -1.
        -11    1    5    5    0    0 -0.53853994616E+02 -0.91837924785E+02  0.67183198134E+02  0.12588899585E+03  0.00000000000E+00 0.  1.
          1    1    6    6  503    0  0.13652241186E+03 -0.82844885750E+02 -0.37038728822E+03  0.40334648543E+03  0.00000000000E+00 0. -1.
         -1    1    6    6    0  503  0.83847664845E+02 -0.66882899292E+02 -0.50208236879E+03  0.51341061361E+03  0.00000000000E+00 0.  1.
<mgrwt>
<rscale>  0 0.31771073E+04</rscale>
<asrwt>0</asrwt>
<pdfrwt beam="1">  1        2 0.38560283E+00 0.31771073E+04</pdfrwt>
<pdfrwt beam="2">  1       -1 0.15489480E+00 0.31771073E+04</pdfrwt>
<totfact> 0.10577762E+00</totfact>
</mgrwt>
</event>
<event>
12    6  0.1556619E-007  0.1902306E+04  0.7818608E-02  0.8653709E-01
          2   -1    0    0  501    0  0.00000000000E+00  0.00000000000E+00  0.19726069336E+04  0.19726069336E+04  0.00000000000E+00 0. -1.
         -1   -1    0    0    0  501 -0.00000000000E+00 -0.00000000000E+00 -0.45862762448E+03  0.45862762448E+03  0.00000000000E+00 0.  1.
         24    2    1    2    0    0  0.35559657548E+03  0.46451852778E+02  0.14095756560E+04  0.14567098748E+04  0.80581822419E+02 0.  0.
        254    2    1    2    0    0 -0.35559657548E+03 -0.46451852778E+02  0.10440365313E+03  0.97452468332E+03  0.90010640288E+03 0.  0.
         23    2    4    4    0    0 -0.60417890192E+02 -0.78969666380E+01 -0.38224331922E+03  0.39694450470E+03  0.87990347093E+02 0.  0.
         23    2    4    4    0    0 -0.29517868529E+03 -0.38554886140E+02  0.48664697235E+03  0.57758017863E+03  0.90314182481E+02 0.  0.
          4    1    3    3  502    0  0.35707563324E+03  0.52847839652E+02  0.13818335727E+04  0.14282016401E+04  0.00000000000E+00 0. -1.
         -3    1    3    3    0  502 -0.14790577662E+01 -0.63959868743E+01  0.27742083281E+02  0.28508234683E+02  0.00000000000E+00 0.  1.
         11    1    5    5    0    0 -0.27811573671E+02 -0.45723588834E+02 -0.24810282541E+03  0.25380926339E+03  0.00000000000E+00 0. -1.
        -11    1    5    5    0    0 -0.32606316522E+02  0.37826622196E+02 -0.13414049381E+03  0.14313524130E+03  0.00000000000E+00 0.  1.
          1    1    6    6  503    0 -0.16443144309E+03 -0.92634137882E+01  0.18603970178E+03  0.24846384234E+03  0.00000000000E+00 0. -1.
         -1    1    6    6    0  503 -0.13074724219E+03 -0.29291472351E+02  0.30060727056E+03  0.32911633629E+03  0.00000000000E+00 0.  1.
<mgrwt>
<rscale>  0 0.19023060E+04</rscale>
<asrwt>0</asrwt>
<pdfrwt beam="1">  1        2 0.30347798E+00 0.19023060E+04</pdfrwt>
<pdfrwt beam="2">  1       -1 0.70558097E-01 0.19023060E+04</pdfrwt>
<totfact> 0.14976055E+01</totfact>
</mgrwt>
</event>
<event>
12    6  0.1556619E-007  0.1904929E+04  0.7818608E-02  0.8652407E-01
         -1   -1    0    0    0  501 -0.00000000000E+00  0.00000000000E+00  0.58591564098E+03  0.58591564098E+03  0.00000000000E+00 0.  1.
          2   -1    0    0  501    0  0.00000000000E+00 -0.00000000000E+00 -0.15483270718E+04  0.15483270718E+04  0.00000000000E+00 0. -1.
         24    2    1    2    0    0  0.51237494587E+03 -0.28792989991E+03  0.13818544514E+03  0.60877488267E+03  0.77973893689E+02 0.  0.
        254    2    1    2    0    0 -0.51237494587E+03  0.28792989991E+03 -0.11005968760E+04  0.15254678301E+04  0.87767129662E+03 0.  0.
         23    2    4    4    0    0 -0.38339503808E+03 -0.20433870209E+03 -0.19981081279E+03  0.48676778104E+03  0.90953017269E+02 0.  0.
         23    2    4    4    0    0 -0.12897990779E+03  0.49226860200E+03 -0.90078606319E+03  0.10387000491E+04  0.92293375761E+02 0.  0.
          2    1    3    3  502    0  0.18293266537E+03 -0.12784402425E+03  0.20794459913E+02  0.22414473931E+03  0.00000000000E+00 0. -1.
         -1    1    3    3    0  502  0.32944228050E+03 -0.16008587566E+03  0.11739098523E+03  0.38463014336E+03  0.00000000000E+00 0.  1.
         11    1    5    5    0    0 -0.21098741141E+03 -0.16032612402E+03 -0.10393390471E+03  0.28464435769E+03  0.00000000000E+00 0. -1.
        -11    1    5    5    0    0 -0.17240762667E+03 -0.44012578071E+02 -0.95876908074E+02  0.20212342334E+03  0.00000000000E+00 0.  1.
          1    1    6    6  503    0 -0.92674263583E+02  0.42860132299E+03 -0.71217798082E+03  0.83635225209E+03  0.00000000000E+00 0. -1.
         -1    1    6    6    0  503 -0.36305644203E+02  0.63667279013E+02 -0.18860808237E+03  0.20234779701E+03  0.00000000000E+00 0.  1.
<mgrwt>
<rscale>  0 0.19049294E+04</rscale>
<asrwt>0</asrwt>
<pdfrwt beam="1">  1        2 0.23820416E+00 0.19049294E+04</pdfrwt>
<pdfrwt beam="2">  1       -1 0.90140868E-01 0.19049294E+04</pdfrwt>
<totfact> 0.15307281E+01</totfact>
</mgrwt>
</event>
<event>
12    6  0.1556619E-007  0.1617259E+04  0.7818608E-02  0.8810015E-01
         -1   -1    0    0    0  501 -0.00000000000E+00  0.00000000000E+00  0.26707688852E+03  0.26707688852E+03  0.00000000000E+00 0.  1.
          2   -1    0    0  501    0  0.00000000000E+00 -0.00000000000E+00 -0.24482901865E+04  0.24482901865E+04  0.00000000000E+00 0. -1.
         24    2    1    2    0    0 -0.47551236634E+03  0.99892608929E+02 -0.11794736848E+04  0.12779957425E+04  0.77617014180E+02 0.  0.
        254    2    1    2    0    0  0.47551236634E+03 -0.99892608929E+02 -0.10017396131E+04  0.14373713325E+04  0.90910040756E+03 0.  0.
         23    2    4    4    0    0  0.31989186524E+03  0.18968338000E+03 -0.52028703258E+01  0.38408369090E+03  0.95825996781E+02 0.  0.
         23    2    4    4    0    0  0.15562050110E+03 -0.28957598893E+03 -0.99653674281E+03  0.10532876416E+04  0.90870140298E+02 0.  0.
          2    1    3    3  502    0 -0.13394640124E+03  0.59273518704E+02 -0.40101881239E+03  0.42693216829E+03  0.00000000000E+00 0. -1.
         -3    1    3    3    0  502 -0.34156596510E+03  0.40619090225E+02 -0.77845487244E+03  0.85106357425E+03  0.00000000000E+00 0.  1.
         11    1    5    5    0    0  0.20006319618E+03  0.64143569164E+02  0.59315746397E+01  0.21017817086E+03  0.00000000000E+00 0.  1.
        -11    1    5    5    0    0  0.11982866906E+03  0.12553981083E+03 -0.11134444965E+02  0.17390552004E+03  0.00000000000E+00 0. -1.
          2    1    6    6  503    0  0.14377143293E+03 -0.28782147991E+03 -0.89546908619E+03  0.95151264497E+03  0.00000000000E+00 0. -1.
         -2    1    6    6    0  503  0.11849068173E+02 -0.17545090178E+01 -0.10106765662E+03  0.10177499660E+03  0.00000000000E+00 0.  1.
<mgrwt>
<rscale>  0 0.16172591E+04</rscale>
<asrwt>0</asrwt>
<pdfrwt beam="1">  1        2 0.37666004E+00 0.16172591E+04</pdfrwt>
<pdfrwt beam="2">  1       -1 0.41088751E-01 0.16172591E+04</pdfrwt>
<totfact> 0.23621626E+01</totfact>
</mgrwt>
</event>
<event>
12    6  0.1556619E-007  0.1865368E+04  0.7818608E-02  0.8672290E-01
         -1   -1    0    0    0  501 -0.00000000000E+00  0.00000000000E+00  0.30481951120E+03  0.30481951120E+03  0.00000000000E+00 0.  1.
          2   -1    0    0  501    0  0.00000000000E+00 -0.00000000000E+00 -0.28538174286E+04  0.28538174286E+04  0.00000000000E+00 0. -1.
         24    2    1    2    0    0  0.43941810623E+03  0.27708068622E+03 -0.20684292267E+03  0.56488972328E+03  0.80339442639E+02 0.  0.
        254    2    1    2    0    0 -0.43941810623E+03 -0.27708068622E+03 -0.23421549947E+04  0.25937472165E+04  0.98588672021E+03 0.  0.
         23    2    4    4    0    0 -0.60697063566E+03  0.15941564663E+03 -0.14434722946E+04  0.15766325658E+04  0.91275852197E+02 0.  0.
         23    2    4    4    0    0  0.16755252943E+03 -0.43649633286E+03 -0.89868270010E+03  0.10171146507E+04  0.91042399768E+02 0.  0.
          2    1    3    3  502    0  0.35223890574E+03  0.18962611602E+03 -0.13598324444E+03  0.42251834677E+03  0.00000000000E+00 0. -1.
         -1    1    3    3    0  502  0.87179200491E+02  0.87454570207E+02 -0.70859678232E+02  0.14237137650E+03  0.00000000000E+00 0.  1.
         11    1    5    5    0    0 -0.57926749890E+01  0.14224885462E+02 -0.43667212931E+02  0.46289609364E+02  0.00000000000E+00 0. -1.
        -11    1    5    5    0    0 -0.60117796067E+03  0.14519076117E+03 -0.13998050817E+04  0.15303429564E+04  0.00000000000E+00 0.  1.
          1    1    6    6  503    0  0.89148464839E+01  0.31300966921E+00 -0.37455531732E+02  0.38503107929E+02  0.00000000000E+00 0. -1.
         -1    1    6    6    0  503  0.15863768294E+03 -0.43680934253E+03 -0.86122716837E+03  0.97861154280E+03  0.00000000000E+00 0.  1.
<mgrwt>
<rscale>  0 0.18653678E+04</rscale>
<asrwt>0</asrwt>
<pdfrwt beam="1">  1        2 0.43904881E+00 0.18653678E+04</pdfrwt>
<pdfrwt beam="2">  1       -1 0.46895313E-01 0.18653678E+04</pdfrwt>
<totfact> 0.10417790E+01</totfact>
</mgrwt>
</event>
<event>
12    6  0.1556619E-007  0.2605644E+04  0.7818608E-02  0.8366287E-01
         -1   -1    0    0    0  501 -0.00000000000E+00  0.00000000000E+00  0.12007134396E+04  0.12007134396E+04  0.00000000000E+00 0.  1.
          2   -1    0    0  501    0  0.00000000000E+00 -0.00000000000E+00 -0.14136140468E+04  0.14136140468E+04  0.00000000000E+00 0. -1.
         24    2    1    2    0    0 -0.30731012501E+03 -0.95022729044E+03 -0.65859440043E+03  0.11987311162E+04  0.76408691926E+02 0.  0.
        254    2    1    2    0    0  0.30731012501E+03  0.95022729044E+03  0.44569379320E+03  0.14155963702E+04  0.89883185842E+03 0.  0.
         23    2    4    4    0    0 -0.64448191333E+02  0.31695836654E+03 -0.23471856476E+03  0.41002233842E+03  0.91702442007E+02 0.  0.
         23    2    4    4    0    0  0.37175831635E+03  0.63326892390E+03  0.68041235796E+03  0.10055740318E+04  0.94785974007E+02 0.  0.
          4    1    3    3  502    0 -0.22097052454E+03 -0.73334301393E+03 -0.53800510928E+03  0.93598581528E+03  0.00000000000E+00 0. -1.
         -3    1    3    3    0  502 -0.86339600480E+02 -0.21688427651E+03 -0.12058929115E+03  0.26274530090E+03  0.00000000000E+00 0.  1.
         11    1    5    5    0    0 -0.17620888652E+02  0.26527326498E+03 -0.19557150090E+03  0.33004334987E+03  0.00000000000E+00 0. -1.
        -11    1    5    5    0    0 -0.46827302682E+02  0.51685101566E+02 -0.39147063862E+02  0.79978988549E+02  0.00000000000E+00 0.  1.
          3    1    6    6  503    0  0.24833171711E+03  0.35070080435E+03  0.43526940403E+03  0.61165280183E+03  0.00000000000E+00 0. -1.
         -3    1    6    6    0  503  0.12342659924E+03  0.28256811955E+03  0.24514295393E+03  0.39392123000E+03  0.00000000000E+00 0.  1.
<mgrwt>
<rscale>  0 0.26056442E+04</rscale>
<asrwt>0</asrwt>
<pdfrwt beam="1">  1        2 0.21747908E+00 0.26056442E+04</pdfrwt>
<pdfrwt beam="2">  1       -1 0.18472515E+00 0.26056442E+04</pdfrwt>
<totfact> 0.27562291E+00</totfact>
</mgrwt>
</event>
<event>
12    6  0.1556619E-007  0.1364389E+04  0.7818608E-02  0.8980007E-01
          2   -1    0    0  501    0  0.00000000000E+00  0.00000000000E+00  0.16310615879E+04  0.16310615879E+04  0.00000000000E+00 0. -1.
         -1   -1    0    0    0  501 -0.00000000000E+00 -0.00000000000E+00 -0.28532919727E+03  0.28532919727E+03  0.00000000000E+00 0.  1.
         24    2    1    2    0    0 -0.33801271870E+03 -0.14337504711E+03  0.38107536531E+03  0.53494239655E+03  0.78332186505E+02 0.  0.
        254    2    1    2    0    0  0.33801271870E+03  0.14337504711E+03  0.96465702531E+03  0.13814483886E+04  0.91816527475E+03 0.  0.
         23    2    4    4    0    0  0.28290889654E+03 -0.35201099259E+03  0.60541415478E+03  0.76088675085E+03  0.92049802626E+02 0.  0.
         23    2    4    4    0    0  0.55103822160E+02  0.49538603970E+03  0.35924287053E+03  0.62056163775E+03  0.87163906982E+02 0.  0.
          4    1    3    3  502    0 -0.15140320525E+03 -0.37311518389E+02  0.20344350133E+03  0.25632857469E+03  0.00000000000E+00 0. -1.
         -3    1    3    3    0  502 -0.18660951345E+03 -0.10606352872E+03  0.17763186398E+03  0.27861382187E+03  0.00000000000E+00 0.  1.
         11    1    5    5    0    0  0.21789829610E+03 -0.28215453793E+03  0.40929064016E+03  0.54277958587E+03  0.00000000000E+00 0. -1.
        -11    1    5    5    0    0  0.65010600447E+02 -0.69856454662E+02  0.19612351462E+03  0.21810716498E+03  0.00000000000E+00 0.  1.
          3    1    6    6  503    0  0.22182260522E+02  0.39730329232E+03  0.31722469709E+03  0.50889435762E+03  0.00000000000E+00 0. -1.
         -3    1    6    6    0  503  0.32921561638E+02  0.98082747379E+02  0.42018173439E+02  0.11166728014E+03  0.00000000000E+00 0.  1.
<mgrwt>
<rscale>  0 0.13643892E+04</rscale>
<asrwt>0</asrwt>
<pdfrwt beam="1">  1        2 0.25093255E+00 0.13643892E+04</pdfrwt>
<pdfrwt beam="2">  1       -1 0.43896801E-01 0.13643892E+04</pdfrwt>
<totfact> 0.61095317E+01</totfact>
</mgrwt>
</event>
<event>
12    6  0.1556619E-007  0.1376993E+04  0.7818608E-02  0.8970642E-01
         -1   -1    0    0    0  501 -0.00000000000E+00  0.00000000000E+00  0.54058339103E+03  0.54058339103E+03  0.00000000000E+00 0.  1.
          2   -1    0    0  501    0  0.00000000000E+00 -0.00000000000E+00 -0.87688144752E+03  0.87688144752E+03  0.00000000000E+00 0. -1.
         24    2    1    2    0    0 -0.25974603692E+03  0.16520300806E+03  0.12364069336E+03  0.34109698806E+03  0.79373148079E+02 0.  0.
        254    2    1    2    0    0  0.25974603692E+03 -0.16520300806E+03 -0.45993874986E+03  0.10763678505E+04  0.92318148724E+03 0.  0.
         23    2    4    4    0    0  0.14935205793E+03 -0.31868153306E+02 -0.72535921237E+03  0.74676766702E+03  0.90522622207E+02 0.  0.
         23    2    4    4    0    0  0.11039397900E+03 -0.13333485476E+03  0.26542046252E+03  0.32960018347E+03  0.90682109206E+02 0.  0.
          2    1    3    3  502    0 -0.32232837617E+02  0.34857952103E+02 -0.72658119332E+01  0.48029414620E+02  0.00000000000E+00 0. -1.
         -1    1    3    3    0  502 -0.22751319931E+03  0.13034505596E+03  0.13090650529E+03  0.29306757344E+03  0.00000000000E+00 0.  1.
         11    1    5    5    0    0  0.94116761127E+02 -0.76898438865E+01 -0.24380894290E+03  0.26145726048E+03  0.00000000000E+00 0.  1.
        -11    1    5    5    0    0  0.55235296800E+02 -0.24178309419E+02 -0.48155026948E+03  0.48531040654E+03  0.00000000000E+00 0. -1.
          1    1    6    6  503    0 -0.12440916520E+02 -0.57334079090E+01  0.48479725040E+01  0.14531042891E+02  0.00000000000E+00 0. -1.
         -1    1    6    6    0  503  0.12283489552E+03 -0.12760144685E+03  0.26057249001E+03  0.31506914058E+03  0.00000000000E+00 0.  1.
<mgrwt>
<rscale>  0 0.13769932E+04</rscale>
<asrwt>0</asrwt>
<pdfrwt beam="1">  1        2 0.13490484E+00 0.13769932E+04</pdfrwt>
<pdfrwt beam="2">  1       -1 0.83166676E-01 0.13769932E+04</pdfrwt>
<totfact> 0.48578069E+01</totfact>
</mgrwt>
</event>
<event>
12    6  0.1556619E-007  0.1086079E+04  0.7818608E-02  0.9218868E-01
         -3   -1    0    0    0  501 -0.00000000000E+00  0.00000000000E+00  0.25446683962E+03  0.25446683962E+03  0.00000000000E+00 0.  1.
          2   -1    0    0  501    0  0.00000000000E+00 -0.00000000000E+00 -0.11588610202E+04  0.11588610202E+04  0.00000000000E+00 0. -1.
         24    2    1    2    0    0 -0.11992531250E+03  0.81241622479E+02 -0.24906715251E+03  0.30044332298E+03  0.85143772882E+02 0.  0.
        254    2    1    2    0    0  0.11992531250E+03 -0.81241622479E+02 -0.65532702806E+03  0.11128845368E+04  0.88773655824E+03 0.  0.
         23    2    4    4    0    0  0.29208505564E+03 -0.41404056862E+03 -0.37115152206E+03  0.63449637843E+03  0.89938477418E+02 0.  0.
         23    2    4    4    0    0 -0.17215974314E+03  0.33279894614E+03 -0.28417550600E+03  0.47838815841E+03  0.87780386120E+02 0.  0.
          2    1    3    3  502    0 -0.82030870104E+02  0.40621127847E+02 -0.21881080148E+03  0.23718622752E+03  0.00000000000E+00 0. -1.
         -1    1    3    3    0  502 -0.37894442399E+02  0.40620494631E+02 -0.30256351028E+02  0.63257095463E+02  0.00000000000E+00 0.  1.
         11    1    5    5    0    0  0.81468919480E+02 -0.59564294608E+02 -0.92007234660E+02  0.13656654518E+03  0.00000000000E+00 0.  1.
        -11    1    5    5    0    0  0.21061613616E+03 -0.35447627401E+03 -0.27914428740E+03  0.49792983325E+03  0.00000000000E+00 0. -1.
          1    1    6    6  503    0 -0.12733051941E+03  0.28161220421E+03 -0.19209015434E+03  0.36389163514E+03  0.00000000000E+00 0. -1.
         -1    1    6    6    0  503 -0.44829223735E+02  0.51186741930E+02 -0.92085351662E+02  0.11449652327E+03  0.00000000000E+00 0.  1.
<mgrwt>
<rscale>  0 0.10860786E+04</rscale>
<asrwt>0</asrwt>
<pdfrwt beam="1">  1        2 0.17828631E+00 0.10860786E+04</pdfrwt>
<pdfrwt beam="2">  1       -3 0.39148745E-01 0.10860786E+04</pdfrwt>
<totfact> 0.82665474E+01</totfact>
</mgrwt>
</event>
<event>
12    6  0.1556619E-007  0.2906537E+04  0.7818608E-02  0.8270935E-01
          2   -1    0    0  501    0  0.00000000000E+00  0.00000000000E+00  0.37476757587E+04  0.37476757587E+04  0.00000000000E+00 0. -1.
         -1   -1    0    0    0  501 -0.00000000000E+00 -0.00000000000E+00 -0.56354630159E+03  0.56354630159E+03  0.00000000000E+00 0.  1.
         24    2    1    2    0    0 -0.86344490661E+03  0.98061993492E+03  0.15218284198E+04  0.20078479410E+04  0.91318406888E+02 0.  0.
        254    2    1    2    0    0  0.86344490661E+03 -0.98061993492E+03  0.16623010373E+04  0.23033741193E+04  0.91385722693E+03 0.  0.
         23    2    4    4    0    0  0.25640145137E+03 -0.50836609017E+03  0.13688956537E+03  0.59261571498E+03  0.90977176479E+02 0.  0.
         23    2    4    4    0    0  0.60704345524E+03 -0.47225384476E+03  0.15254114720E+04  0.17107584043E+04  0.91042345697E+02 0.  0.
          2    1    3    3  502    0 -0.17541219289E+03  0.22195635243E+03  0.38403926240E+03  0.47699079117E+03  0.00000000000E+00 0. -1.
         -1    1    3    3    0  502 -0.68803271372E+03  0.75866358250E+03  0.11377891574E+04  0.15308571499E+04  0.00000000000E+00 0.  1.
         11    1    5    5    0    0  0.18750774826E+03 -0.31552349930E+03  0.51028894622E+02  0.37056468040E+03  0.00000000000E+00 0. -1.
        -11    1    5    5    0    0  0.68893703107E+02 -0.19284259086E+03  0.85860670753E+02  0.22205103459E+03  0.00000000000E+00 0.  1.
          4    1    6    6  503    0  0.49469556737E+03 -0.42092182655E+03  0.13177787910E+04  0.14691629694E+04  0.00000000000E+00 0. -1.
         -4    1    6    6    0  503  0.11234788787E+03 -0.51332018205E+02  0.20763268092E+03  0.24159543494E+03  0.00000000000E+00 0.  1.
<mgrwt>
<rscale>  0 0.29065366E+04</rscale>
<asrwt>0</asrwt>
<pdfrwt beam="1">  1        2 0.57656548E+00 0.29065366E+04</pdfrwt>
<pdfrwt beam="2">  1       -1 0.86699434E-01 0.29065366E+04</pdfrwt>
<totfact> 0.69111878E-01</totfact>
</mgrwt>
</event>
<event>
12    6  0.1556619E-007  0.1393659E+04  0.7818608E-02  0.8958421E-01
         -1   -1    0    0    0  501 -0.00000000000E+00  0.00000000000E+00  0.12594496041E+04  0.12594496041E+04  0.00000000000E+00 0.  1.
          2   -1    0    0  501    0  0.00000000000E+00 -0.00000000000E+00 -0.38554261063E+03  0.38554261063E+03  0.00000000000E+00 0. -1.
         24    2    1    2    0    0  0.36494929520E+03  0.84340925421E+02  0.11219977574E+03  0.39911878681E+03  0.80035220604E+02 0.  0.
        254    2    1    2    0    0 -0.36494929520E+03 -0.84340925421E+02  0.76170721776E+03  0.12458734279E+04  0.91197660777E+03 0.  0.
         23    2    4    4    0    0 -0.51199036478E+03 -0.96080618664E+02  0.88577736937E+03  0.10316896814E+04  0.91741112495E+02 0.  0.
         23    2    4    4    0    0  0.14704106958E+03  0.11739693243E+02 -0.12407015161E+03  0.21418374655E+03  0.93393673366E+02 0.  0.
          4    1    3    3  502    0  0.22081297014E+03  0.70769348842E+02  0.10394809400E+03  0.25410996588E+03  0.00000000000E+00 0. -1.
         -3    1    3    3    0  502  0.14413632507E+03  0.13571576579E+02  0.82516817476E+01  0.14500882093E+03  0.00000000000E+00 0.  1.
         11    1    5    5    0    0 -0.31244963836E+03 -0.96389219731E+02  0.59697751831E+03  0.68065983836E+03  0.00000000000E+00 0.  1.
        -11    1    5    5    0    0 -0.19954072642E+03  0.30860106686E+00  0.28879985105E+03  0.35102984304E+03  0.00000000000E+00 0. -1.
          4    1    6    6  503    0  0.55305965153E+02 -0.40618148655E+02 -0.55484414781E+02  0.88244569608E+02  0.00000000000E+00 0. -1.
         -4    1    6    6    0  503  0.91735104423E+02  0.52357841898E+02 -0.68585736827E+02  0.12593917694E+03  0.00000000000E+00 0.  1.
<mgrwt>
<rscale>  0 0.13936592E+04</rscale>
<asrwt>0</asrwt>
<pdfrwt beam="1">  1        2 0.59314248E-01 0.13936592E+04</pdfrwt>
<pdfrwt beam="2">  1       -1 0.19376148E+00 0.13936592E+04</pdfrwt>
<totfact> 0.15359292E+01</totfact>
</mgrwt>
</event>
<event>
12    6  0.1556619E-007  0.1329337E+04  0.7818608E-02  0.9006619E-01
         -3   -1    0    0    0  501 -0.00000000000E+00  0.00000000000E+00  0.91273706531E+03  0.91273706531E+03  0.00000000000E+00 0.  1.
          4   -1    0    0  501    0  0.00000000000E+00 -0.00000000000E+00 -0.48402134957E+03  0.48402134957E+03  0.00000000000E+00 0. -1.
         24    2    1    2    0    0 -0.85167454401E+02  0.28573175769E+03  0.28781021498E+03  0.42227664632E+03  0.81158570332E+02 0.  0.
        254    2    1    2    0    0  0.85167454401E+02 -0.28573175769E+03  0.14090550076E+03  0.97448176856E+03  0.91698649088E+03 0.  0.
         23    2    4    4    0    0  0.72153306561E+02 -0.52295749278E+03 -0.18001837530E+03  0.56472948107E+03  0.88442820182E+02 0.  0.
         23    2    4    4    0    0  0.13014147840E+02  0.23722573509E+03  0.32092387606E+03  0.40975228749E+03  0.91974917494E+02 0.  0.
          4    1    3    3  502    0 -0.16317206524E+02  0.10472908345E+03  0.54874053875E+02  0.11935490748E+03  0.00000000000E+00 0. -1.
         -3    1    3    3    0  502 -0.68850247877E+02  0.18100267423E+03  0.23293616111E+03  0.30292173885E+03  0.00000000000E+00 0.  1.
         11    1    5    5    0    0  0.80313715510E+02 -0.42282841024E+03 -0.11651734837E+03  0.44588165456E+03  0.00000000000E+00 0. -1.
        -11    1    5    5    0    0 -0.81604089484E+01 -0.10012908254E+03 -0.63501026924E+02  0.11884782650E+03  0.00000000000E+00 0.  1.
          3    1    6    6  503    0  0.28072188220E+02  0.58284179112E+02  0.14303808467E+03  0.15698721907E+03  0.00000000000E+00 0.  1.
         -3    1    6    6    0  503 -0.15058040380E+02  0.17894155597E+03  0.17788579139E+03  0.25276506842E+03  0.00000000000E+00 0. -1.
<mgrwt>
<rscale>  0 0.13293370E+04</rscale>
<asrwt>0</asrwt>
<pdfrwt beam="1">  1        4 0.74464823E-01 0.13293370E+04</pdfrwt>
<pdfrwt beam="2">  1       -3 0.14042109E+00 0.13293370E+04</pdfrwt>
<totfact> 0.13954003E+00</totfact>
</mgrwt>
</event>
<event>
12    6  0.1556619E-007  0.1101860E+04  0.7818608E-02  0.9203381E-01
         -1   -1    0    0    0  501 -0.00000000000E+00  0.00000000000E+00  0.10603837027E+04  0.10603837027E+04  0.00000000000E+00 0.  1.
          2   -1    0    0  501    0  0.00000000000E+00 -0.00000000000E+00 -0.28623958060E+03  0.28623958060E+03  0.00000000000E+00 0. -1.
         24    2    1    2    0    0 -0.80063950576E+02 -0.11875950896E+03  0.57706734710E+02  0.17400090209E+03  0.80200932344E+02 0.  0.
        254    2    1    2    0    0  0.80063950576E+02  0.11875950896E+03  0.71643738741E+03  0.11726223812E+04  0.91719499657E+03 0.  0.
         23    2    4    4    0    0 -0.29933060596E+03 -0.23550078474E+02  0.68794321844E+03  0.75633617241E+03  0.92871502775E+02 0.  0.
         23    2    4    4    0    0  0.37939455654E+03  0.14230958743E+03  0.28494168965E+02  0.41628620882E+03  0.91049666593E+02 0.  0.
          4    1    3    3  502    0  0.12234189723E+02 -0.41558596416E+01  0.16946927915E+02  0.21310676509E+02  0.00000000000E+00 0. -1.
         -3    1    3    3    0  502 -0.92298140298E+02 -0.11460364932E+03  0.40759806795E+02  0.15269022559E+03  0.00000000000E+00 0.  1.
         11    1    5    5    0    0 -0.20545184987E+03 -0.43655376128E+02  0.54568328027E+03  0.58471060948E+03  0.00000000000E+00 0. -1.
        -11    1    5    5    0    0 -0.93878756088E+02  0.20105297654E+02  0.14225993818E+03  0.17162556292E+03  0.00000000000E+00 0.  1.
          4    1    6    6  503    0  0.38470024428E+03  0.14051654161E+03  0.29397144738E+02  0.41061340520E+03  0.00000000000E+00 0. -1.
         -4    1    6    6    0  503 -0.53056877384E+01  0.17930458204E+01 -0.90297577317E+00  0.56728036224E+01  0.00000000000E+00 0.  1.
<mgrwt>
<rscale>  0 0.11018599E+04</rscale>
<asrwt>0</asrwt>
<pdfrwt beam="1">  1        2 0.44036859E-01 0.11018599E+04</pdfrwt>
<pdfrwt beam="2">  1       -1 0.16313595E+00 0.11018599E+04</pdfrwt>
<totfact> 0.36437835E+01</totfact>
</mgrwt>
</event>
<event>
12    6  0.1556619E-007  0.1667263E+04  0.7818608E-02  0.8780259E-01
          2   -1    0    0  501    0  0.00000000000E+00  0.00000000000E+00  0.19531089950E+04  0.19531089950E+04  0.00000000000E+00 0. -1.
         -1   -1    0    0    0  501 -0.00000000000E+00 -0.00000000000E+00 -0.35581292148E+03  0.35581292148E+03  0.00000000000E+00 0.  1.
         24    2    1    2    0    0 -0.44131050899E+03  0.82364577791E+02  0.55401870420E+02  0.45926029866E+03  0.79446621464E+02 0.  0.
        254    2    1    2    0    0  0.44131050899E+03 -0.82364577791E+02  0.15418942031E+04  0.18496616178E+04  0.91775349513E+03 0.  0.
         23    2    4    4    0    0  0.81687656280E+02  0.68138437758E+02  0.14253249665E+04  0.14329253170E+04  0.10201952816E+03 0.  0.
         23    2    4    4    0    0  0.35962285271E+03 -0.15050301555E+03  0.11656923658E+03  0.41673630077E+03  0.90005575280E+02 0.  0.
          4    1    3    3  502    0 -0.17934288056E+03  0.72926204065E+02  0.17415029661E+02  0.19438462723E+03  0.00000000000E+00 0. -1.
         -3    1    3    3    0  502 -0.26196762843E+03  0.94383737258E+01  0.37986840759E+02  0.26487567143E+03  0.00000000000E+00 0.  1.
         11    1    5    5    0    0  0.50894330902E+01  0.24733312891E+01  0.19590292340E+01  0.59881125895E+01  0.00000000000E+00 0.  1.
        -11    1    5    5    0    0  0.76598223190E+02  0.65665106469E+02  0.14233659373E+04  0.14269372045E+04  0.00000000000E+00 0. -1.
          4    1    6    6  503    0  0.24405798464E+03 -0.58881236914E+02  0.55545301338E+02  0.25713144582E+03  0.00000000000E+00 0. -1.
         -4    1    6    6    0  503  0.11556486807E+03 -0.91621778635E+02  0.61023935238E+02  0.15960485495E+03  0.00000000000E+00 0.  1.
<mgrwt>
<rscale>  0 0.16672629E+04</rscale>
<asrwt>0</asrwt>
<pdfrwt beam="1">  1        2 0.30047830E+00 0.16672629E+04</pdfrwt>
<pdfrwt beam="2">  1       -1 0.54740451E-01 0.16672629E+04</pdfrwt>
<totfact> 0.25996572E+01</totfact>
</mgrwt>
</event>
<event>
12    6  0.1556619E-007  0.3217090E+04  0.7818608E-02  0.8184318E-01
          2   -1    0    0  501    0  0.00000000000E+00  0.00000000000E+00  0.23683394852E+04  0.23683394852E+04  0.00000000000E+00 0. -1.
         -1   -1    0    0    0  501 -0.00000000000E+00 -0.00000000000E+00 -0.10925027789E+04  0.10925027789E+04  0.00000000000E+00 0.  1.
         24    2    1    2    0    0  0.50535379582E+03 -0.49689128195E+03 -0.81458125656E+03  0.10822566657E+04  0.73847558102E+02 0.  0.
        254    2    1    2    0    0 -0.50535379582E+03  0.49689128195E+03  0.20904179628E+04  0.23785855984E+04  0.88630625884E+03 0.  0.
         23    2    4    4    0    0 -0.30323048511E+03  0.35382254542E+03  0.28461045573E+03  0.55350901024E+03  0.90719304208E+02 0.  0.
         23    2    4    4    0    0 -0.20212331071E+03  0.14306873653E+03  0.18058075071E+04  0.18250765881E+04  0.92958613244E+02 0.  0.
          4    1    3    3  502    0  0.14543389114E+02 -0.16622975694E+01 -0.24253268765E+02  0.28328332918E+02  0.00000000000E+00 0. -1.
         -3    1    3    3    0  502  0.49081040671E+03 -0.49522898438E+03 -0.79032798779E+03  0.10539283328E+04  0.00000000000E+00 0.  1.
         11    1    5    5    0    0 -0.28613108140E+03  0.32048700366E+03  0.28582824378E+03  0.51602393375E+03  0.00000000000E+00 0. -1.
        -11    1    5    5    0    0 -0.17099403701E+02  0.33335541768E+02 -0.12177880461E+01  0.37485076492E+02  0.00000000000E+00 0.  1.
          1    1    6    6  503    0 -0.19734151701E+03  0.11216939407E+03  0.16878547926E+04  0.17030500428E+04  0.00000000000E+00 0. -1.
         -1    1    6    6    0  503 -0.47817937028E+01  0.30899342456E+02  0.11795271448E+03  0.12202654534E+03  0.00000000000E+00 0.  1.
<mgrwt>
<rscale>  0 0.32170903E+04</rscale>
<asrwt>0</asrwt>
<pdfrwt beam="1">  1        2 0.36435992E+00 0.32170903E+04</pdfrwt>
<pdfrwt beam="2">  1       -1 0.16807735E+00 0.32170903E+04</pdfrwt>
<totfact> 0.10071055E+00</totfact>
</mgrwt>
</event>
<event>
12    6  0.1556619E-007  0.2294415E+04  0.7818608E-02  0.8480127E-01
          2   -1    0    0  501    0  0.00000000000E+00  0.00000000000E+00  0.23439055656E+04  0.23439055656E+04  0.00000000000E+00 0. -1.
         -1   -1    0    0    0  501 -0.00000000000E+00 -0.00000000000E+00 -0.56149222705E+03  0.56149222705E+03  0.00000000000E+00 0.  1.
         24    2    1    2    0    0  0.76274989074E+03  0.24619760167E+03  0.14682478793E+04  0.16742668933E+04  0.70831773051E+02 0.  0.
        254    2    1    2    0    0 -0.76274989074E+03 -0.24619760167E+03  0.31416545929E+03  0.12311308994E+04  0.88010380110E+03 0.  0.
         23    2    4    4    0    0 -0.36177104509E+03 -0.22885108622E+03 -0.27179664084E+03  0.51499498195E+03  0.89973933648E+02 0.  0.
         23    2    4    4    0    0 -0.40097884565E+03 -0.17346515451E+02  0.58596210013E+03  0.71613591742E+03  0.91728584314E+02 0.  0.
          2    1    3    3  502    0  0.67099269561E+03  0.19777243684E+03  0.13092474328E+04  0.14844103121E+04  0.00000000000E+00 0. -1.
         -3    1    3    3    0  502  0.91757195125E+02  0.48425164824E+02  0.15900044649E+03  0.18985658121E+03  0.00000000000E+00 0.  1.
         11    1    5    5    0    0 -0.22187859752E+03 -0.11716894432E+03 -0.20472145904E+03  0.32383568263E+03  0.00000000000E+00 0. -1.
        -11    1    5    5    0    0 -0.13989244757E+03 -0.11168214189E+03 -0.67075181803E+02  0.19115929933E+03  0.00000000000E+00 0.  1.
          1    1    6    6  503    0 -0.28962627376E+03 -0.27626143610E+02  0.48448531327E+03  0.56513060529E+03  0.00000000000E+00 0. -1.
         -1    1    6    6    0  503 -0.11135257188E+03  0.10279628159E+02  0.10147678686E+03  0.15100531213E+03  0.00000000000E+00 0.  1.
<mgrwt>
<rscale>  0 0.22944147E+04</rscale>
<asrwt>0</asrwt>
<pdfrwt beam="1">  1        2 0.36060085E+00 0.22944147E+04</pdfrwt>
<pdfrwt beam="2">  1       -1 0.86383421E-01 0.22944147E+04</pdfrwt>
<totfact> 0.58383281E+00</totfact>
</mgrwt>
</event>
<event>
12    6  0.1556619E-007  0.1945743E+04  0.7818608E-02  0.8632416E-01
         -3   -1    0    0    0  501 -0.00000000000E+00  0.00000000000E+00  0.32334720338E+03  0.32334720338E+03  0.00000000000E+00 0.  1.
          2   -1    0    0  501    0  0.00000000000E+00 -0.00000000000E+00 -0.29271284748E+04  0.29271284748E+04  0.00000000000E+00 0. -1.
         24    2    1    2    0    0  0.31745147707E+03 -0.51235335697E+03 -0.18383392270E+04  0.19363254143E+04  0.81139349313E+02 0.  0.
        254    2    1    2    0    0 -0.31745147707E+03  0.51235335697E+03 -0.76544204442E+03  0.13141502638E+04  0.88193423219E+03 0.  0.
         23    2    4    4    0    0 -0.81369058489E+01  0.81008530012E+02 -0.76539310158E+03  0.77571100688E+03  0.96293172525E+02 0.  0.
         23    2    4    4    0    0 -0.30931457122E+03  0.43134482696E+03 -0.48942840930E-01  0.53843925697E+03  0.90459755353E+02 0.  0.
          4    1    3    3  502    0  0.30536789757E+03 -0.45951833773E+03 -0.17160609150E+04  0.18025736378E+04  0.00000000000E+00 0. -1.
         -3    1    3    3    0  502  0.12083579503E+02 -0.52835019234E+02 -0.12227831195E+03  0.13375177653E+03  0.00000000000E+00 0.  1.
         11    1    5    5    0    0 -0.15725552658E+01 -0.21029640926E+01  0.23081456715E+01  0.34961299289E+01  0.00000000000E+00 0. -1.
        -11    1    5    5    0    0 -0.65643505831E+01  0.83111494105E+02 -0.76770124725E+03  0.77221487695E+03  0.00000000000E+00 0.  1.
          3    1    6    6  503    0 -0.46817021104E+02  0.91934255475E+02  0.32409406009E+02  0.10813931012E+03  0.00000000000E+00 0. -1.
         -3    1    6    6    0  503 -0.26249755012E+03  0.33941057148E+03 -0.32458348850E+02  0.43029994685E+03  0.00000000000E+00 0.  1.
<mgrwt>
<rscale>  0 0.19457428E+04</rscale>
<asrwt>0</asrwt>
<pdfrwt beam="1">  1        2 0.45032745E+00 0.19457428E+04</pdfrwt>
<pdfrwt beam="2">  1       -3 0.49745725E-01 0.19457428E+04</pdfrwt>
<totfact> 0.46770205E+00</totfact>
</mgrwt>
</event>
<event>
12    6  0.1556619E-007  0.1385416E+04  0.7818608E-02  0.8964444E-01
          2   -1    0    0  501    0  0.00000000000E+00  0.00000000000E+00  0.38147754544E+03  0.38147754544E+03  0.00000000000E+00 0. -1.
         -1   -1    0    0    0  501 -0.00000000000E+00 -0.00000000000E+00 -0.12578565524E+04  0.12578565524E+04  0.00000000000E+00 0.  1.
         24    2    1    2    0    0  0.36587139285E+03  0.16015875755E+02 -0.67937334813E+02  0.38079817543E+03  0.79204700420E+02 0.  0.
        254    2    1    2    0    0 -0.36587139285E+03 -0.16015875755E+02 -0.80844167214E+03  0.12585359224E+04  0.89230955748E+03 0.  0.
         23    2    4    4    0    0  0.26873658803E+03  0.12143356938E+03 -0.26960856144E+03  0.40995358679E+03  0.91693518852E+02 0.  0.
         23    2    4    4    0    0 -0.63460798088E+03 -0.13744944514E+03 -0.53883311069E+03  0.84858233562E+03  0.90173276452E+02 0.  0.
          4    1    3    3  502    0  0.29686029162E+03 -0.24094770379E+01 -0.82025690503E+02  0.30799359120E+03  0.00000000000E+00 0. -1.
         -3    1    3    3    0  502  0.69011101230E+02  0.18425352793E+02  0.14088355690E+02  0.72804584227E+02  0.00000000000E+00 0.  1.
         11    1    5    5    0    0  0.16357861153E+03  0.67756394547E+02 -0.21868240300E+03  0.28137321218E+03  0.00000000000E+00 0. -1.
        -11    1    5    5    0    0  0.10515797650E+03  0.53677174834E+02 -0.50926158441E+02  0.12858037461E+03  0.00000000000E+00 0.  1.
          4    1    6    6  503    0 -0.22938208865E+03 -0.56913577099E+02 -0.14197396603E+03  0.27570256597E+03  0.00000000000E+00 0. -1.
         -4    1    6    6    0  503 -0.40522589223E+03 -0.80535868037E+02 -0.39685914467E+03  0.57287976965E+03  0.00000000000E+00 0.  1.
<mgrwt>
<rscale>  0 0.13854155E+04</rscale>
<asrwt>0</asrwt>
<pdfrwt beam="1">  1        2 0.58688855E-01 0.13854155E+04</pdfrwt>
<pdfrwt beam="2">  1       -1 0.19351639E+00 0.13854155E+04</pdfrwt>
<totfact> 0.15615227E+01</totfact>
</mgrwt>
</event>
<event>
12    6  0.1556619E-007  0.1884845E+04  0.7818608E-02  0.8662437E-01
          2   -1    0    0  501    0  0.00000000000E+00  0.00000000000E+00  0.11313311398E+04  0.11313311398E+04  0.00000000000E+00 0. -1.
         -1   -1    0    0    0  501 -0.00000000000E+00 -0.00000000000E+00 -0.78505768014E+03  0.78505768014E+03  0.00000000000E+00 0.  1.
         24    2    1    2    0    0 -0.62716881698E+03 -0.33580526532E+03 -0.38991388909E+02  0.71685478320E+03  0.79085716560E+02 0.  0.
        254    2    1    2    0    0  0.62716881698E+03  0.33580526532E+03  0.38526484855E+03  0.11995340367E+04  0.88563367175E+03 0.  0.
         23    2    4    4    0    0 -0.20122405463E+01  0.34949809577E+03 -0.12720138241E+03  0.38289152637E+03  0.90954720732E+02 0.  0.
         23    2    4    4    0    0  0.62918105753E+03 -0.13692830440E+02  0.51246623096E+03  0.81664251036E+03  0.90703115109E+02 0.  0.
          4    1    3    3  502    0 -0.38512775098E+02 -0.11599497107E+01  0.10332569001E+01  0.38544090973E+02  0.00000000000E+00 0. -1.
         -3    1    3    3    0  502 -0.58865604189E+03 -0.33464531561E+03 -0.40024645809E+02  0.67831069222E+03  0.00000000000E+00 0.  1.
         11    1    5    5    0    0  0.34629483929E+01  0.35005254481E+03 -0.11331193952E+03  0.36795158890E+03  0.00000000000E+00 0.  1.
        -11    1    5    5    0    0 -0.54751889392E+01 -0.55444904521E+00 -0.13889442890E+02  0.14939937465E+02  0.00000000000E+00 0. -1.
          2    1    6    6  503    0  0.21821237886E+03  0.30926076546E+02  0.20997450254E+03  0.30440492147E+03  0.00000000000E+00 0. -1.
         -2    1    6    6    0  503  0.41096867867E+03 -0.44618906987E+02  0.30249172843E+03  0.51223758889E+03  0.00000000000E+00 0.  1.
<mgrwt>
<rscale>  0 0.18848450E+04</rscale>
<asrwt>0</asrwt>
<pdfrwt beam="1">  1        2 0.17405095E+00 0.18848450E+04</pdfrwt>
<pdfrwt beam="2">  1       -1 0.12077810E+00 0.18848450E+04</pdfrwt>
<totfact> 0.13581596E+01</totfact>
</mgrwt>
</event>
<event>
12    6  0.1556619E-007  0.1628090E+04  0.7818608E-02  0.8803475E-01
          2   -1    0    0  501    0  0.00000000000E+00  0.00000000000E+00  0.48951920023E+03  0.48951920023E+03  0.00000000000E+00 0. -1.
         -1   -1    0    0    0  501 -0.00000000000E+00 -0.00000000000E+00 -0.13537144193E+04  0.13537144193E+04  0.00000000000E+00 0.  1.
         24    2    1    2    0    0 -0.12667654424E+03 -0.53493605039E+03 -0.14453789425E+03  0.57359158988E+03  0.76893330283E+02 0.  0.
        254    2    1    2    0    0  0.12667654424E+03  0.53493605039E+03 -0.71965732483E+03  0.12696420297E+04  0.88987678554E+03 0.  0.
         23    2    4    4    0    0 -0.25839072827E+03 -0.46643041782E+02 -0.23414914951E+02  0.27947232732E+03  0.92818003059E+02 0.  0.
         23    2    4    4    0    0  0.38506727251E+03  0.58157909217E+03 -0.69624240988E+03  0.99016970235E+03  0.95767955623E+02 0.  0.
          4    1    3    3  502    0 -0.11982783991E+03 -0.48806357741E+03 -0.15329653168E+03  0.52541849362E+03  0.00000000000E+00 0. -1.
         -3    1    3    3    0  502 -0.68487043369E+01 -0.46872472976E+02  0.87586374248E+01  0.48173096262E+02  0.00000000000E+00 0.  1.
         11    1    5    5    0    0 -0.23142141778E+03 -0.84137642063E+01 -0.22672993891E+02  0.23268160368E+03  0.00000000000E+00 0.  1.
        -11    1    5    5    0    0 -0.26969310485E+02 -0.38229277576E+02 -0.74192105963E+00  0.46790723641E+02  0.00000000000E+00 0. -1.
          3    1    6    6  503    0  0.98300449194E+02  0.20328292514E+03 -0.17927935504E+03  0.28831929022E+03  0.00000000000E+00 0. -1.
         -3    1    6    6    0  503  0.28676682332E+03  0.37829616703E+03 -0.51696305484E+03  0.70185041214E+03  0.00000000000E+00 0.  1.
<mgrwt>
<rscale>  0 0.16280899E+04</rscale>
<asrwt>0</asrwt>
<pdfrwt beam="1">  1        2 0.75310646E-01 0.16280899E+04</pdfrwt>
<pdfrwt beam="2">  1       -1 0.20826376E+00 0.16280899E+04</pdfrwt>
<totfact> 0.91185630E+00</totfact>
</mgrwt>
</event>
<event>
12    6  0.1556619E-007  0.1394827E+04  0.7818608E-02  0.8957572E-01
         -1   -1    0    0    0  501 -0.00000000000E+00  0.00000000000E+00  0.60025733820E+03  0.60025733820E+03  0.00000000000E+00 0.  1.
          2   -1    0    0  501    0  0.00000000000E+00 -0.00000000000E+00 -0.81029516463E+03  0.81029516463E+03  0.00000000000E+00 0. -1.
         24    2    1    2    0    0 -0.86412063699E+02  0.24963255235E+03 -0.35336112617E+03  0.44806671609E+03  0.78206397643E+02 0.  0.
        254    2    1    2    0    0  0.86412063699E+02 -0.24963255235E+03  0.14332329974E+03  0.96248578675E+03  0.91435981183E+03 0.  0.
         23    2    4    4    0    0  0.39187965580E+03 -0.23362206543E+03  0.35131483598E+03  0.58272219587E+03  0.89409784125E+02 0.  0.
         23    2    4    4    0    0 -0.30546759210E+03 -0.16010486919E+02 -0.20799153624E+03  0.37976359087E+03  0.85983255863E+02 0.  0.
          4    1    3    3  502    0 -0.10087371916E+03  0.22963924394E+03 -0.32252315874E+03  0.40857175318E+03  0.00000000000E+00 0. -1.
         -3    1    3    3    0  502  0.14461655459E+02  0.19993308409E+02 -0.30837967437E+02  0.39494962912E+02  0.00000000000E+00 0.  1.
         11    1    5    5    0    0  0.39336105691E+03 -0.23391111073E+03  0.33704295497E+03  0.56837072612E+03  0.00000000000E+00 0. -1.
        -11    1    5    5    0    0 -0.14814011078E+01  0.28904530348E+00  0.14271881014E+02  0.14351469754E+02  0.00000000000E+00 0.  1.
          4    1    6    6  503    0 -0.20325261445E+03 -0.25740978389E+02 -0.91208096472E+02  0.22426132103E+03  0.00000000000E+00 0. -1.
         -4    1    6    6    0  503 -0.10221497765E+03  0.97304914702E+01 -0.11678343977E+03  0.15550226984E+03  0.00000000000E+00 0.  1.
<mgrwt>
<rscale>  0 0.13948270E+04</rscale>
<asrwt>0</asrwt>
<pdfrwt beam="1">  1        2 0.12466079E+00 0.13948270E+04</pdfrwt>
<pdfrwt beam="2">  1       -1 0.92347283E-01 0.13948270E+04</pdfrwt>
<totfact> 0.42961430E+01</totfact>
</mgrwt>
</event>
<event>
12    6  0.1556619E-007  0.1661656E+04  0.7818608E-02  0.8783541E-01
         -1   -1    0    0    0  501 -0.00000000000E+00  0.00000000000E+00  0.36968154093E+03  0.36968154093E+03  0.00000000000E+00 0.  1.
          2   -1    0    0  501    0  0.00000000000E+00 -0.00000000000E+00 -0.18672156473E+04  0.18672156473E+04  0.00000000000E+00 0. -1.
         24    2    1    2    0    0  0.10354173912E+03 -0.34812152438E+02  0.24020272444E+03  0.27483144184E+03  0.76825743719E+02 0.  0.
        254    2    1    2    0    0 -0.10354173912E+03  0.34812152438E+02 -0.17377368308E+04  0.19620657464E+04  0.90445559440E+03 0.  0.
         23    2    4    4    0    0 -0.38019896200E+03  0.31217800367E+03 -0.10825336564E+04  0.11923501126E+04  0.88392970435E+02 0.  0.
         23    2    4    4    0    0  0.27665722287E+03 -0.27736585123E+03 -0.65520317441E+03  0.76971563373E+03  0.98488185322E+02 0.  0.
          2    1    3    3  502    0  0.17088050876E+02 -0.29124991297E+02  0.22648943141E+02  0.40660069186E+02  0.00000000000E+00 0. -1.
         -1    1    3    3    0  502  0.86453688249E+02 -0.56871611407E+01  0.21755378130E+03  0.23417137266E+03  0.00000000000E+00 0.  1.
         11    1    5    5    0    0 -0.78366286435E+02  0.44117778384E+02 -0.13281157883E+03  0.16039503948E+03  0.00000000000E+00 0. -1.
        -11    1    5    5    0    0 -0.30183267556E+03  0.26806022528E+03 -0.94972207755E+03  0.10319550732E+04  0.00000000000E+00 0.  1.
          1    1    6    6  503    0  0.32734407795E+02 -0.78339562984E+02 -0.97450273267E+02  0.12924853710E+03  0.00000000000E+00 0. -1.
         -1    1    6    6    0  503  0.24392281508E+03 -0.19902628825E+03 -0.55775290115E+03  0.64046709663E+03  0.00000000000E+00 0.  1.
<mgrwt>
<rscale>  0 0.16616560E+04</rscale>
<asrwt>0</asrwt>
<pdfrwt beam="1">  1        2 0.28726396E+00 0.16616560E+04</pdfrwt>
<pdfrwt beam="2">  1       -1 0.56874081E-01 0.16616560E+04</pdfrwt>
<totfact> 0.26941523E+01</totfact>
</mgrwt>
</event>
<event>
12    6  0.1556619E-007  0.1658577E+04  0.7818608E-02  0.8785349E-01
          2   -1    0    0  501    0  0.00000000000E+00  0.00000000000E+00  0.88226008256E+03  0.88226008256E+03  0.00000000000E+00 0. -1.
         -1   -1    0    0    0  501 -0.00000000000E+00 -0.00000000000E+00 -0.77949690764E+03  0.77949690764E+03  0.00000000000E+00 0.  1.
         24    2    1    2    0    0 -0.17857616014E+03 -0.36335404657E+03 -0.37726212529E+03  0.56004981454E+03  0.86101541595E+02 0.  0.
        254    2    1    2    0    0  0.17857616014E+03  0.36335404657E+03  0.48002530021E+03  0.11017071757E+04  0.90521754508E+03 0.  0.
         23    2    4    4    0    0 -0.30397436860E+03 -0.75897704469E+02  0.99557463127E+02  0.34086991919E+03  0.90109572364E+02 0.  0.
         23    2    4    4    0    0  0.48255052875E+03  0.43925175104E+03  0.38046783708E+03  0.76083725646E+03  0.91216457901E+02 0.  0.
          4    1    3    3  502    0 -0.93462211632E+02 -0.15263320934E+03 -0.11369912430E+03  0.21203672432E+03  0.00000000000E+00 0. -1.
         -3    1    3    3    0  502 -0.85113948510E+02 -0.21072083723E+03 -0.26356300099E+03  0.34801309022E+03  0.00000000000E+00 0.  1.
         11    1    5    5    0    0 -0.12608531010E+02  0.12254121817E+02  0.19198105275E+02  0.26032783214E+02  0.00000000000E+00 0.  1.
        -11    1    5    5    0    0 -0.29136583759E+03 -0.88151826286E+02  0.80359357853E+02  0.31483713598E+03  0.00000000000E+00 0. -1.
          4    1    6    6  503    0  0.41363065397E+03  0.35905470996E+03  0.28075146902E+03  0.61549328997E+03  0.00000000000E+00 0. -1.
         -4    1    6    6    0  503  0.68919874780E+02  0.80197041076E+02  0.99716368054E+02  0.14534396649E+03  0.00000000000E+00 0.  1.
<mgrwt>
<rscale>  0 0.16585765E+04</rscale>
<asrwt>0</asrwt>
<pdfrwt beam="1">  1        2 0.13573232E+00 0.16585765E+04</pdfrwt>
<pdfrwt beam="2">  1       -1 0.11992260E+00 0.16585765E+04</pdfrwt>
<totfact> 0.20372309E+01</totfact>
</mgrwt>
</event>
<event>
12    6  0.1556619E-007  0.1489083E+04  0.7818608E-02  0.8891745E-01
          2   -1    0    0  501    0  0.00000000000E+00  0.00000000000E+00  0.66425829373E+03  0.66425829373E+03  0.00000000000E+00 0. -1.
         -1   -1    0    0    0  501 -0.00000000000E+00 -0.00000000000E+00 -0.83452816560E+03  0.83452816560E+03  0.00000000000E+00 0.  1.
         24    2    1    2    0    0  0.16553225481E+03  0.22627036521E+03 -0.43111984978E+03  0.52059541644E+03  0.80969483078E+02 0.  0.
        254    2    1    2    0    0 -0.16553225481E+03 -0.22627036521E+03  0.26084997792E+03  0.97819104289E+03  0.90011988083E+03 0.  0.
         23    2    4    4    0    0  0.30836925456E+02  0.29094365988E+03 -0.85488557971E+02  0.31839947645E+03  0.92036970102E+02 0.  0.
         23    2    4    4    0    0 -0.19636918027E+03 -0.51721402509E+03  0.34633853589E+03  0.65979156644E+03  0.96453755756E+02 0.  0.
          4    1    3    3  502    0  0.99605278603E+02  0.15412039803E+03 -0.34299069797E+03  0.38899476540E+03  0.00000000000E+00 0. -1.
         -3    1    3    3    0  502  0.65926976207E+02  0.72149967172E+02 -0.88129151809E+02  0.13160065104E+03  0.00000000000E+00 0.  1.
         11    1    5    5    0    0  0.24912298744E+02  0.25553350433E+02  0.86925671191E+01  0.36730873529E+02  0.00000000000E+00 0.  1.
        -11    1    5    5    0    0  0.59246267119E+01  0.26539030945E+03 -0.94181125090E+02  0.28166860292E+03  0.00000000000E+00 0. -1.
          2    1    6    6  503    0  0.90620617012E+01 -0.29438816816E+02  0.31011176120E+02  0.43708785640E+02  0.00000000000E+00 0. -1.
         -2    1    6    6    0  503 -0.20543124197E+03 -0.48777520827E+03  0.31532735977E+03  0.61608278080E+03  0.00000000000E+00 0.  1.
<mgrwt>
<rscale>  0 0.14890833E+04</rscale>
<asrwt>0</asrwt>
<pdfrwt beam="1">  1        2 0.10219358E+00 0.14890833E+04</pdfrwt>
<pdfrwt beam="2">  1       -1 0.12838895E+00 0.14890833E+04</pdfrwt>
<totfact> 0.25307969E+01</totfact>
</mgrwt>
</event>
<event>
12    6  0.1556619E-007  0.1710522E+04  0.7818608E-02  0.8755386E-01
         -1   -1    0    0    0  501 -0.00000000000E+00  0.00000000000E+00  0.11649951027E+04  0.11649951027E+04  0.00000000000E+00 0.  1.
          2   -1    0    0  501    0  0.00000000000E+00 -0.00000000000E+00 -0.62787470243E+03  0.62787470243E+03  0.00000000000E+00 0. -1.
         24    2    1    2    0    0  0.12648257059E+03  0.34725076239E+03 -0.32352842336E+03  0.49703349184E+03  0.76096771567E+02 0.  0.
        254    2    1    2    0    0 -0.12648257059E+03 -0.34725076239E+03  0.86064882362E+03  0.12958363133E+04  0.89548557810E+03 0.  0.
         23    2    4    4    0    0  0.11472620506E+03  0.25606690916E+03  0.38698235114E+03  0.48656607938E+03  0.90878189958E+02 0.  0.
         23    2    4    4    0    0 -0.24120877566E+03 -0.60331767155E+03  0.47366647247E+03  0.80927023390E+03  0.91566904902E+02 0.  0.
          4    1    3    3  502    0  0.12659592495E+03  0.35115114801E+03 -0.31865068183E+03  0.49078703527E+03  0.00000000000E+00 0. -1.
         -3    1    3    3    0  502 -0.11335436102E+00 -0.39003856173E+01 -0.48777415349E+01  0.62464565680E+01  0.00000000000E+00 0.  1.
         11    1    5    5    0    0  0.18260394408E+02  0.14871161722E+03  0.21482853729E+03  0.26191580238E+03  0.00000000000E+00 0.  1.
        -11    1    5    5    0    0  0.96465810657E+02  0.10735529195E+03  0.17215381385E+03  0.22465027700E+03  0.00000000000E+00 0. -1.
          1    1    6    6  503    0 -0.15204377952E+03 -0.34600344652E+03  0.32807952797E+03  0.50047165011E+03  0.00000000000E+00 0. -1.
         -1    1    6    6    0  503 -0.89164996135E+02 -0.25731422504E+03  0.14558694451E+03  0.30879858379E+03  0.00000000000E+00 0.  1.
<mgrwt>
<rscale>  0 0.17105215E+04</rscale>
<asrwt>0</asrwt>
<pdfrwt beam="1">  1        2 0.96596108E-01 0.17105215E+04</pdfrwt>
<pdfrwt beam="2">  1       -1 0.17923002E+00 0.17105215E+04</pdfrwt>
<totfact> 0.10740583E+01</totfact>
</mgrwt>
</event>
<event>
12    6  0.1556619E-007  0.1368948E+04  0.7818608E-02  0.8976607E-01
          2   -1    0    0  501    0  0.00000000000E+00  0.00000000000E+00  0.54839526310E+03  0.54839526310E+03  0.00000000000E+00 0. -1.
         -1   -1    0    0    0  501 -0.00000000000E+00 -0.00000000000E+00 -0.85431953720E+03  0.85431953720E+03  0.00000000000E+00 0.  1.
         24    2    1    2    0    0 -0.26395653909E+03  0.96046968550E+02 -0.34832221288E+03  0.45449749504E+03  0.79633751098E+02 0.  0.
        254    2    1    2    0    0  0.26395653909E+03 -0.96046968550E+02  0.42397938772E+02  0.94821730526E+03  0.90466590413E+03 0.  0.
         23    2    4    4    0    0  0.47839167119E+03  0.34300794845E+02 -0.25361167012E+03  0.54975648323E+03  0.88759089883E+02 0.  0.
         23    2    4    4    0    0 -0.21443513210E+03 -0.13034776339E+03  0.29600960890E+03  0.39846082204E+03  0.90423298096E+02 0.  0.
          2    1    3    3  502    0 -0.53776282766E+02  0.18702685372E+02 -0.27479679779E+02  0.63220343474E+02  0.00000000000E+00 0. -1.
         -1    1    3    3    0  502 -0.21018025632E+03  0.77344283178E+02 -0.32084253310E+03  0.39127715156E+03  0.00000000000E+00 0.  1.
         11    1    5    5    0    0  0.44833103747E+03  0.11298144823E+02 -0.22185704850E+03  0.50034879555E+03  0.00000000000E+00 0.  1.
        -11    1    5    5    0    0  0.30060633721E+02  0.23002650022E+02 -0.31754621620E+02  0.49407687681E+02  0.00000000000E+00 0. -1.
          3    1    6    6  503    0 -0.22642821774E+02 -0.56697073522E+02  0.60858889823E+02  0.86203596180E+02  0.00000000000E+00 0. -1.
         -3    1    6    6    0  503 -0.19179231033E+03 -0.73650689872E+02  0.23515071907E+03  0.31225722586E+03  0.00000000000E+00 0.  1.
<mgrwt>
<rscale>  0 0.13689482E+04</rscale>
<asrwt>0</asrwt>
<pdfrwt beam="1">  1        2 0.84368503E-01 0.13689482E+04</pdfrwt>
<pdfrwt beam="2">  1       -1 0.13143377E+00 0.13689482E+04</pdfrwt>
<totfact> 0.30391620E+01</totfact>
</mgrwt>
</event>
<event>
12    6  0.1556619E-007  0.1847213E+04  0.7818608E-02  0.8681587E-01
         -1   -1    0    0    0  501 -0.00000000000E+00  0.00000000000E+00  0.29747138385E+03  0.29747138385E+03  0.00000000000E+00 0.  1.
          2   -1    0    0  501    0  0.00000000000E+00 -0.00000000000E+00 -0.28676685745E+04  0.28676685745E+04  0.00000000000E+00 0. -1.
         24    2    1    2    0    0 -0.28289136213E+03  0.43757930425E+02 -0.20806508229E+04  0.21016247264E+04  0.76002400302E+02 0.  0.
        254    2    1    2    0    0  0.28289136213E+03 -0.43757930425E+02 -0.48954636781E+03  0.10635152319E+04  0.89970368626E+03 0.  0.
         23    2    4    4    0    0  0.52880412294E+03  0.63624457813E+01 -0.57305574225E+03  0.78506072775E+03  0.90847021827E+02 0.  0.
         23    2    4    4    0    0 -0.24591276082E+03 -0.50120376206E+02  0.83509374439E+02  0.27845450418E+03  0.87051463141E+02 0.  0.
          2    1    3    3  502    0 -0.18132824313E+03  0.57549091184E+02 -0.11925147309E+04  0.12075939769E+04  0.00000000000E+00 0. -1.
         -1    1    3    3    0  502 -0.10156311900E+03 -0.13791160760E+02 -0.88813609199E+03  0.89403074955E+03  0.00000000000E+00 0.  1.
         11    1    5    5    0    0  0.19330456116E+03  0.45618889694E+02 -0.22221162616E+03  0.29803647975E+03  0.00000000000E+00 0. -1.
        -11    1    5    5    0    0  0.33549956178E+03 -0.39256443913E+02 -0.35084411610E+03  0.48702424800E+03  0.00000000000E+00 0.  1.
          3    1    6    6  503    0 -0.10559770622E+03 -0.48537905534E+02  0.74065094769E+02  0.13781306939E+03  0.00000000000E+00 0. -1.
         -3    1    6    6    0  503 -0.14031505460E+03 -0.15824706723E+01  0.94442796704E+01  0.14064143479E+03  0.00000000000E+00 0.  1.
<mgrwt>
<rscale>  0 0.18472134E+04</rscale>
<asrwt>0</asrwt>
<pdfrwt beam="1">  1        2 0.44117979E+00 0.18472134E+04</pdfrwt>
<pdfrwt beam="2">  1       -1 0.45764827E-01 0.18472134E+04</pdfrwt>
<totfact> 0.10713725E+01</totfact>
</mgrwt>
</event>
<event>
12    6  0.1556619E-007  0.1956925E+04  0.7818608E-02  0.8627029E-01
          2   -1    0    0  501    0  0.00000000000E+00  0.00000000000E+00  0.11843652685E+04  0.11843652685E+04  0.00000000000E+00 0. -1.
         -1   -1    0    0    0  501 -0.00000000000E+00 -0.00000000000E+00 -0.80835574271E+03  0.80835574271E+03  0.00000000000E+00 0.  1.
         24    2    1    2    0    0 -0.74494260004E+03  0.19853520110E+03  0.27427583666E+03  0.82209828335E+03  0.79136903323E+02 0.  0.
        254    2    1    2    0    0  0.74494260004E+03 -0.19853520110E+03  0.10173368912E+03  0.11706227279E+04  0.87501549931E+03 0.  0.
         23    2    4    4    0    0  0.88673619638E+03 -0.29537674480E+03 -0.23040988705E+02  0.93978965082E+03  0.95525898580E+02 0.  0.
         23    2    4    4    0    0 -0.14179359633E+03  0.96841543699E+02  0.12477467783E+03  0.23083307704E+03  0.90727507848E+02 0.  0.
          2    1    3    3  502    0 -0.73214670856E+03  0.18332427022E+03  0.27114219350E+03  0.80197548592E+03  0.00000000000E+00 0. -1.
         -1    1    3    3    0  502 -0.12795891479E+02  0.15210930879E+02  0.31336431638E+01  0.20122797431E+02  0.00000000000E+00 0.  1.
         11    1    5    5    0    0  0.57695894275E+03 -0.22484832201E+03 -0.48157375541E+02  0.62109381123E+03  0.00000000000E+00 0. -1.
        -11    1    5    5    0    0  0.30977725362E+03 -0.70528422789E+02  0.25116386836E+02  0.31869583959E+03  0.00000000000E+00 0.  1.
          4    1    6    6  503    0 -0.11531888190E+03  0.31995628291E+02  0.10180975517E+03  0.15712221677E+03  0.00000000000E+00 0. -1.
         -4    1    6    6    0  503 -0.26474714428E+02  0.64845915408E+02  0.22964922655E+02  0.73710860270E+02  0.00000000000E+00 0.  1.
<mgrwt>
<rscale>  0 0.19569246E+04</rscale>
<asrwt>0</asrwt>
<pdfrwt beam="1">  1        2 0.18221004E+00 0.19569246E+04</pdfrwt>
<pdfrwt beam="2">  1       -1 0.12436242E+00 0.19569246E+04</pdfrwt>
<totfact> 0.11662566E+01</totfact>
</mgrwt>
</event>
<event>
12    6  0.1556619E-007  0.1822414E+04  0.7818608E-02  0.8694470E-01
         -1   -1    0    0    0  501 -0.00000000000E+00  0.00000000000E+00  0.70337332824E+03  0.70337332824E+03  0.00000000000E+00 0.  1.
          2   -1    0    0  501    0  0.00000000000E+00 -0.00000000000E+00 -0.11804512179E+04  0.11804512179E+04  0.00000000000E+00 0. -1.
         24    2    1    2    0    0  0.63628839178E+02  0.40448518954E+03 -0.62891393096E+03  0.75462903641E+03  0.79217121323E+02 0.  0.
        254    2    1    2    0    0 -0.63628839178E+02 -0.40448518954E+03  0.15183604126E+03  0.11291955098E+04  0.10413315601E+04 0.  0.
         23    2    4    4    0    0 -0.16086024502E+03 -0.51740965665E+02 -0.41004305470E+03  0.45261206573E+03  0.90383789348E+02 0.  0.
         23    2    4    4    0    0  0.97231405843E+02 -0.35274422387E+03  0.56187909596E+03  0.67658344404E+03  0.90413519491E+02 0.  0.
          4    1    3    3  502    0 -0.12838452683E+02  0.16768536612E+03 -0.25847959228E+03  0.30837462202E+03  0.00000000000E+00 0. -1.
         -3    1    3    3    0  502  0.76467291861E+02  0.23679982342E+03 -0.37043433868E+03  0.44625441439E+03  0.00000000000E+00 0.  1.
         11    1    5    5    0    0 -0.66860307524E+01 -0.18273785587E+02 -0.12776464599E+03  0.12923791631E+03  0.00000000000E+00 0.  1.
        -11    1    5    5    0    0 -0.15417421427E+03 -0.33467180078E+02 -0.28227840872E+03  0.32337414942E+03  0.00000000000E+00 0. -1.
          3    1    6    6  503    0  0.51506241189E+02 -0.31019639778E+03  0.46962828708E+03  0.56517734040E+03  0.00000000000E+00 0. -1.
         -3    1    6    6    0  503  0.45725164654E+02 -0.42547826096E+02  0.92250808880E+02  0.11140610364E+03  0.00000000000E+00 0.  1.
<mgrwt>
<rscale>  0 0.18224137E+04</rscale>
<asrwt>0</asrwt>
<pdfrwt beam="1">  1        2 0.18160788E+00 0.18224137E+04</pdfrwt>
<pdfrwt beam="2">  1       -1 0.10821128E+00 0.18224137E+04</pdfrwt>
<totfact> 0.16590980E+01</totfact>
</mgrwt>
</event>
<event>
12    6  0.1556619E-007  0.1768646E+04  0.7818608E-02  0.8723153E-01
         -1   -1    0    0    0  501 -0.00000000000E+00  0.00000000000E+00  0.32540750365E+03  0.32540750365E+03  0.00000000000E+00 0.  1.
          2   -1    0    0  501    0  0.00000000000E+00 -0.00000000000E+00 -0.24032237862E+04  0.24032237862E+04  0.00000000000E+00 0. -1.
         24    2    1    2    0    0 -0.32855751938E+02  0.36733235323E+03 -0.15577570459E+04  0.16027666931E+04  0.79003166362E+02 0.  0.
        254    2    1    2    0    0  0.32855751938E+02 -0.36733235323E+03 -0.52005923664E+03  0.11258645967E+04  0.92795308201E+03 0.  0.
         23    2    4    4    0    0  0.15318617883E+03 -0.65062158198E+03 -0.39899787326E+03  0.78374180629E+03  0.90980589927E+02 0.  0.
         23    2    4    4    0    0 -0.12033042689E+03  0.28328922875E+03 -0.12106136338E+03  0.34212279045E+03  0.87521147620E+02 0.  0.
          2    1    3    3  502    0 -0.50223057152E+02  0.34379166064E+03 -0.14566425586E+04  0.14975054607E+04  0.00000000000E+00 0. -1.
         -1    1    3    3    0  502  0.17367305214E+02  0.23540692595E+02 -0.10111448735E+03  0.10526123242E+03  0.00000000000E+00 0.  1.
         11    1    5    5    0    0  0.77677654299E+02 -0.36988587800E+03 -0.27638952332E+03  0.46823129896E+03  0.00000000000E+00 0.  1.
        -11    1    5    5    0    0  0.75508524531E+02 -0.28073570398E+03 -0.12260834995E+03  0.31551050734E+03  0.00000000000E+00 0. -1.
          2    1    6    6  503    0  0.13092158413E+02  0.41969037887E+02 -0.11826081054E+02  0.45526486205E+02  0.00000000000E+00 0. -1.
         -2    1    6    6    0  503 -0.13342258530E+03  0.24132019086E+03 -0.10923528232E+03  0.29659630424E+03  0.00000000000E+00 0.  1.
<mgrwt>
<rscale>  0 0.17686459E+04</rscale>
<asrwt>0</asrwt>
<pdfrwt beam="1">  1        2 0.36972674E+00 0.17686459E+04</pdfrwt>
<pdfrwt beam="2">  1       -1 0.50062693E-01 0.17686459E+04</pdfrwt>
<totfact> 0.17098732E+01</totfact>
</mgrwt>
</event>
<event>
12    6  0.1556619E-007  0.2093337E+04  0.7818608E-02  0.8564184E-01
          2   -1    0    0  501    0  0.00000000000E+00  0.00000000000E+00  0.18870232261E+04  0.18870232261E+04  0.00000000000E+00 0. -1.
         -3   -1    0    0    0  501 -0.00000000000E+00 -0.00000000000E+00 -0.58055174263E+03  0.58055174263E+03  0.00000000000E+00 0.  1.
         24    2    1    2    0    0  0.63623005057E+03  0.41645417590E+03  0.81156162899E+02  0.76875349355E+03  0.78567507232E+02 0.  0.
        254    2    1    2    0    0 -0.63623005057E+03 -0.41645417590E+03  0.12253153206E+04  0.16988214752E+04  0.89798330263E+03 0.  0.
         23    2    4    4    0    0 -0.47054987396E+03 -0.66947878159E+03  0.67807736625E+03  0.10667324842E+04  0.92251045690E+02 0.  0.
         23    2    4    4    0    0 -0.16568017661E+03  0.25302460568E+03  0.54723795431E+03  0.63208899093E+03  0.92713223492E+02 0.  0.
          2    1    3    3  502    0  0.53537623855E+03  0.34239269451E+03  0.38919216597E+02  0.63669080367E+03  0.00000000000E+00 0. -1.
         -1    1    3    3    0  502  0.10085381201E+03  0.74061481395E+02  0.42236946302E+02  0.13206268987E+03  0.00000000000E+00 0.  1.
         11    1    5    5    0    0 -0.33222113973E+03 -0.42237008261E+03  0.40060457822E+03  0.67026218785E+03  0.00000000000E+00 0.  1.
        -11    1    5    5    0    0 -0.13832873423E+03 -0.24710869898E+03  0.27747278803E+03  0.39647029639E+03  0.00000000000E+00 0. -1.
          1    1    6    6  503    0  0.23049918245E+01 -0.55368174279E+01  0.24183168956E+02  0.24915757971E+02  0.00000000000E+00 0. -1.
         -1    1    6    6    0  503 -0.16798516843E+03  0.25856142311E+03  0.52305478535E+03  0.60717323295E+03  0.00000000000E+00 0.  1.
<mgrwt>
<rscale>  0 0.20933367E+04</rscale>
<asrwt>0</asrwt>
<pdfrwt beam="1">  1        2 0.29031126E+00 0.20933367E+04</pdfrwt>
<pdfrwt beam="2">  1       -3 0.89315654E-01 0.20933367E+04</pdfrwt>
<totfact> 0.51536312E+00</totfact>
</mgrwt>
</event>
<event>
12    6  0.1556619E-007  0.2258692E+04  0.7818608E-02  0.8494389E-01
         -1   -1    0    0    0  501 -0.00000000000E+00  0.00000000000E+00  0.89242460255E+03  0.89242460255E+03  0.00000000000E+00 0.  1.
          2   -1    0    0  501    0  0.00000000000E+00 -0.00000000000E+00 -0.14291649175E+04  0.14291649175E+04  0.00000000000E+00 0. -1.
         24    2    1    2    0    0 -0.66132609179E+03  0.10859213446E+02 -0.92613483454E+03  0.11411166216E+04  0.83374397371E+02 0.  0.
        254    2    1    2    0    0  0.66132609179E+03 -0.10859213446E+02  0.38939451959E+03  0.11804728985E+04  0.89689355550E+03 0.  0.
         23    2    4    4    0    0  0.88356767929E+02 -0.36772176576E+03  0.30728292258E+03  0.49407274692E+03  0.81601895131E+02 0.  0.
         23    2    4    4    0    0  0.57296932386E+03  0.35686255232E+03  0.82111597009E+02  0.68640015153E+03  0.93584861633E+02 0.  0.
          4    1    3    3  502    0 -0.52221229514E+03  0.12558562891E+02 -0.66922684947E+03  0.84895699229E+03  0.00000000000E+00 0. -1.
         -3    1    3    3    0  502 -0.13911379665E+03 -0.16993494445E+01 -0.25690798507E+03  0.29215962931E+03  0.00000000000E+00 0.  1.
         11    1    5    5    0    0  0.32732032393E+01 -0.18695453250E+03  0.14244737885E+03  0.23506162346E+03  0.00000000000E+00 0.  1.
        -11    1    5    5    0    0  0.85083564690E+02 -0.18076723326E+03  0.16483554373E+03  0.25901112346E+03  0.00000000000E+00 0. -1.
          4    1    6    6  503    0  0.23449573982E+02  0.11555790017E+02  0.22802871984E+02  0.34689908815E+02  0.00000000000E+00 0. -1.
         -4    1    6    6    0  503  0.54951974988E+03  0.34530676230E+03  0.59308725025E+02  0.65171024272E+03  0.00000000000E+00 0.  1.
<mgrwt>
<rscale>  0 0.22586916E+04</rscale>
<asrwt>0</asrwt>
<pdfrwt beam="1">  1        2 0.21987153E+00 0.22586916E+04</pdfrwt>
<pdfrwt beam="2">  1       -1 0.13729609E+00 0.22586916E+04</pdfrwt>
<totfact> 0.63657364E+00</totfact>
</mgrwt>
</event>
<event>
12    6  0.1556619E-007  0.1998481E+04  0.7818608E-02  0.8607331E-01
          2   -1    0    0  501    0  0.00000000000E+00  0.00000000000E+00  0.12099121330E+04  0.12099121330E+04  0.00000000000E+00 0. -1.
         -1   -1    0    0    0  501 -0.00000000000E+00 -0.00000000000E+00 -0.82525157171E+03  0.82525157171E+03  0.00000000000E+00 0.  1.
         24    2    1    2    0    0 -0.52042350396E+02 -0.62606768070E+03 -0.33867104531E+03  0.71832057868E+03  0.81346356824E+02 0.  0.
        254    2    1    2    0    0  0.52042350396E+02  0.62606768070E+03  0.72333160658E+03  0.13168431260E+04  0.90343680377E+03 0.  0.
         23    2    4    4    0    0  0.42779456185E+03  0.10430167281E+03  0.31439655427E+03  0.54869235322E+03  0.91274744809E+02 0.  0.
         23    2    4    4    0    0 -0.37575221146E+03  0.52176600789E+03  0.40893505231E+03  0.76815077280E+03  0.96944527136E+02 0.  0.
          4    1    3    3  502    0 -0.43808386633E+02 -0.26639152652E+03 -0.18400564662E+03  0.32671348018E+03  0.00000000000E+00 0. -1.
         -1    1    3    3    0  502 -0.82339637629E+01 -0.35967615418E+03 -0.15466539869E+03  0.39160709850E+03  0.00000000000E+00 0.  1.
         11    1    5    5    0    0  0.41993275878E+02  0.25847328709E+02  0.68889445122E+02  0.84718801158E+02  0.00000000000E+00 0.  1.
        -11    1    5    5    0    0  0.38580128598E+03  0.78454344103E+02  0.24550710915E+03  0.46397355206E+03  0.00000000000E+00 0. -1.
          3    1    6    6  503    0 -0.33242864831E+03  0.47586334213E+03  0.39868563537E+03  0.70420519911E+03  0.00000000000E+00 0. -1.
         -3    1    6    6    0  503 -0.43323563144E+02  0.45902665760E+02  0.10249416946E+02  0.63945573694E+02  0.00000000000E+00 0.  1.
<mgrwt>
<rscale>  0 0.19984813E+04</rscale>
<asrwt>0</asrwt>
<pdfrwt beam="1">  1        2 0.18614033E+00 0.19984813E+04</pdfrwt>
<pdfrwt beam="2">  1       -1 0.12696178E+00 0.19984813E+04</pdfrwt>
<totfact> 0.10655134E+01</totfact>
</mgrwt>
</event>
<event>
12    6  0.1556619E-007  0.1992285E+04  0.7818608E-02  0.8610236E-01
          2   -1    0    0  501    0  0.00000000000E+00  0.00000000000E+00  0.25969309749E+04  0.25969309749E+04  0.00000000000E+00 0. -1.
         -1   -1    0    0    0  501 -0.00000000000E+00 -0.00000000000E+00 -0.38210473270E+03  0.38210473270E+03  0.00000000000E+00 0.  1.
         24    2    1    2    0    0  0.13862648900E+03  0.48966266752E+03  0.17809733413E+04  0.18538932955E+04  0.77894012871E+02 0.  0.
        254    2    1    2    0    0 -0.13862648900E+03 -0.48966266752E+03  0.43385290092E+03  0.11251424121E+04  0.90483715470E+03 0.  0.
         23    2    4    4    0    0 -0.13082015297E+03 -0.23730656799E+03  0.69373727700E+03  0.75064253044E+03  0.93618798177E+02 0.  0.
         23    2    4    4    0    0 -0.78063360310E+01 -0.25235609953E+03 -0.25988437608E+03  0.37449988170E+03  0.94687552561E+02 0.  0.
          4    1    3    3  502    0 -0.39640070615E+01  0.37531698970E+01  0.52006722361E+02  0.52292435466E+02  0.00000000000E+00 0. -1.
         -1    1    3    3    0  502  0.14259049607E+03  0.48590949762E+03  0.17289666190E+04  0.18016008600E+04  0.00000000000E+00 0.  1.
         11    1    5    5    0    0 -0.10758525545E+03 -0.13439127341E+03  0.51589202443E+03  0.54385676647E+03  0.00000000000E+00 0.  1.
        -11    1    5    5    0    0 -0.23234897525E+02 -0.10291529458E+03  0.17784525257E+03  0.20678576397E+03  0.00000000000E+00 0. -1.
          1    1    6    6  503    0  0.14096479637E+02  0.20957600310E+01 -0.14207173439E+02  0.20123288136E+02  0.00000000000E+00 0. -1.
         -1    1    6    6    0  503 -0.21902815668E+02 -0.25445185956E+03 -0.24567720264E+03  0.35437659356E+03  0.00000000000E+00 0.  1.
<mgrwt>
<rscale>  0 0.19922847E+04</rscale>
<asrwt>0</asrwt>
<pdfrwt beam="1">  1        2 0.39952783E+00 0.19922847E+04</pdfrwt>
<pdfrwt beam="2">  1       -1 0.58785345E-01 0.19922847E+04</pdfrwt>
<totfact> 0.94920468E+00</totfact>
</mgrwt>
</event>
<event>
12    6  0.1556619E-007  0.1199185E+04  0.7818608E-02  0.9113570E-01
          2   -1    0    0  501    0  0.00000000000E+00  0.00000000000E+00  0.91237231152E+03  0.91237231152E+03  0.00000000000E+00 0. -1.
         -1   -1    0    0    0  501 -0.00000000000E+00 -0.00000000000E+00 -0.39403989362E+03  0.39403989362E+03  0.00000000000E+00 0.  1.
         24    2    1    2    0    0  0.16431445543E+03  0.23684570684E+03  0.31110319757E+03  0.43132934338E+03  0.78515436774E+02 0.  0.
        254    2    1    2    0    0 -0.16431445543E+03 -0.23684570684E+03  0.20722922033E+03  0.87508286177E+03  0.79983181738E+03 0.  0.
         23    2    4    4    0    0  0.17657545959E+03 -0.29699930725E+03 -0.13341438918E+03  0.38101752912E+03  0.89372684964E+02 0.  0.
         23    2    4    4    0    0 -0.34088991501E+03  0.60153600411E+02  0.34064360951E+03  0.49406533265E+03  0.90763948945E+02 0.  0.
          4    1    3    3  502    0  0.36155205405E+02  0.36212694961E+02  0.10347691457E+03  0.11543842516E+03  0.00000000000E+00 0. -1.
         -3    1    3    3    0  502  0.12815925002E+03  0.20063301188E+03  0.20762628299E+03  0.31589091822E+03  0.00000000000E+00 0.  1.
         11    1    5    5    0    0  0.27209332838E+02 -0.26012043519E+02  0.11469794709E+02  0.39351370906E+02  0.00000000000E+00 0.  1.
        -11    1    5    5    0    0  0.14936612675E+03 -0.27098726373E+03 -0.14488418389E+03  0.34166615821E+03  0.00000000000E+00 0. -1.
          3    1    6    6  503    0 -0.25621842405E+03  0.68647234566E+02  0.29775784945E+03  0.39877319436E+03  0.00000000000E+00 0. -1.
         -3    1    6    6    0  503 -0.84671490966E+02 -0.84936341555E+01  0.42885760064E+02  0.95292138290E+02  0.00000000000E+00 0.  1.
<mgrwt>
<rscale>  0 0.11991849E+04</rscale>
<asrwt>0</asrwt>
<pdfrwt beam="1">  1        2 0.14036497E+00 0.11991849E+04</pdfrwt>
<pdfrwt beam="2">  1       -1 0.60621522E-01 0.11991849E+04</pdfrwt>
<totfact> 0.89376798E+01</totfact>
</mgrwt>
</event>
<event>
12    6  0.1556619E-007  0.1251864E+04  0.7818608E-02  0.9068633E-01
         -1   -1    0    0    0  501 -0.00000000000E+00  0.00000000000E+00  0.33734945472E+03  0.33734945472E+03  0.00000000000E+00 0.  1.
          2   -1    0    0  501    0  0.00000000000E+00 -0.00000000000E+00 -0.11613797874E+04  0.11613797874E+04  0.00000000000E+00 0. -1.
         24    2    1    2    0    0 -0.55374658773E+02 -0.19848764736E+03 -0.54820662640E+03  0.58853438003E+03  0.58124971040E+02 0.  0.
        254    2    1    2    0    0  0.55374658773E+02  0.19848764736E+03 -0.27582370627E+03  0.91019486209E+03  0.84256291815E+03 0.  0.
         23    2    4    4    0    0 -0.22444537371E+03  0.34265756846E+03 -0.37996699133E+03  0.56636716650E+03  0.92773475671E+02 0.  0.
         23    2    4    4    0    0  0.27982003249E+03 -0.14416992110E+03  0.10414328506E+03  0.34382769559E+03  0.91035398048E+02 0.  0.
          2    1    3    3  502    0 -0.67029063244E+02 -0.17376274293E+03 -0.49091832549E+03  0.52505922375E+03  0.00000000000E+00 0. -1.
         -1    1    3    3    0  502  0.11654404471E+02 -0.24724904429E+02 -0.57288300910E+02  0.63475156272E+02  0.00000000000E+00 0.  1.
         11    1    5    5    0    0 -0.20824043271E+03  0.33965733857E+03 -0.34233648212E+03  0.52528606725E+03  0.00000000000E+00 0.  1.
        -11    1    5    5    0    0 -0.16204941003E+02  0.30002298910E+01 -0.37630509207E+02  0.41081099248E+02  0.00000000000E+00 0. -1.
          4    1    6    6  503    0  0.20656176152E+02 -0.43849132200E+02  0.26688447440E+02  0.55332605529E+02  0.00000000000E+00 0. -1.
         -4    1    6    6    0  503  0.25916385634E+03 -0.10032078890E+03  0.77454837621E+02  0.28849509006E+03  0.00000000000E+00 0.  1.
<mgrwt>
<rscale>  0 0.12518640E+04</rscale>
<asrwt>0</asrwt>
<pdfrwt beam="1">  1        2 0.17867381E+00 0.12518640E+04</pdfrwt>
<pdfrwt beam="2">  1       -1 0.51899916E-01 0.12518640E+04</pdfrwt>
<totfact> 0.83716484E+01</totfact>
</mgrwt>
</event>
<event>
12    6  0.1556619E-007  0.1836331E+04  0.7818608E-02  0.8687214E-01
         -1   -1    0    0    0  501 -0.00000000000E+00  0.00000000000E+00  0.13681099120E+04  0.13681099120E+04  0.00000000000E+00 0.  1.
          2   -1    0    0  501    0  0.00000000000E+00 -0.00000000000E+00 -0.61619911813E+03  0.61619911813E+03  0.00000000000E+00 0. -1.
         24    2    1    2    0    0 -0.64363228151E+03  0.40475388526E+02 -0.19602943186E+02  0.64973630432E+03  0.76630404470E+02 0.  0.
        254    2    1    2    0    0  0.64363228151E+03 -0.40475388526E+02  0.77151373709E+03  0.13345727259E+04  0.87746802973E+03 0.  0.
         23    2    4    4    0    0  0.71336167929E+03  0.23436755696E+03  0.68744418101E+03  0.10220899893E+04  0.90969263736E+02 0.  0.
         23    2    4    4    0    0 -0.69729397785E+02 -0.27484294548E+03  0.84069556087E+02  0.31248273658E+03  0.10088080491E+03 0.  0.
          2    1    3    3  502    0 -0.53517399607E+03  0.28479122242E+02 -0.44620382860E+02  0.53778550096E+03  0.00000000000E+00 0. -1.
         -1    1    3    3    0  502 -0.10845828544E+03  0.11996266284E+02  0.25017439673E+02  0.11195080336E+03  0.00000000000E+00 0.  1.
         11    1    5    5    0    0  0.19718753256E+03  0.28073278249E+02  0.15531636661E+03  0.25257514859E+03  0.00000000000E+00 0.  1.
        -11    1    5    5    0    0  0.51617414673E+03  0.20629427871E+03  0.53212781440E+03  0.76951484069E+03  0.00000000000E+00 0. -1.
          1    1    6    6  503    0 -0.41284909074E+01 -0.19354986921E+03  0.33672822045E+02  0.19650052227E+03  0.00000000000E+00 0. -1.
         -1    1    6    6    0  503 -0.65600906878E+02 -0.81293076276E+02  0.50396734043E+02  0.11598221431E+03  0.00000000000E+00 0.  1.
<mgrwt>
<rscale>  0 0.18363313E+04</rscale>
<asrwt>0</asrwt>
<pdfrwt beam="1">  1        2 0.94799865E-01 0.18363313E+04</pdfrwt>
<pdfrwt beam="2">  1       -1 0.21047845E+00 0.18363313E+04</pdfrwt>
<totfact> 0.65859083E+00</totfact>
</mgrwt>
</event>
<event>
12    6  0.1556619E-007  0.1857047E+04  0.7818608E-02  0.8676537E-01
          2   -1    0    0  501    0  0.00000000000E+00  0.00000000000E+00  0.13173729693E+04  0.13173729693E+04  0.00000000000E+00 0. -1.
         -1   -1    0    0    0  501 -0.00000000000E+00 -0.00000000000E+00 -0.65445078759E+03  0.65445078759E+03  0.00000000000E+00 0.  1.
         24    2    1    2    0    0 -0.13474961843E+03 -0.60398275521E+03 -0.11398251120E+03  0.63434579944E+03  0.80311594177E+02 0.  0.
        254    2    1    2    0    0  0.13474961843E+03  0.60398275521E+03  0.77690469290E+03  0.13374779574E+04  0.89571968637E+03 0.  0.
         23    2    4    4    0    0 -0.13856316015E+03  0.74798335265E+03  0.53271253376E+03  0.93329411233E+03  0.92608915831E+02 0.  0.
         23    2    4    4    0    0  0.27331277858E+03 -0.14400059745E+03  0.24419215915E+03  0.40418384511E+03  0.91097327407E+02 0.  0.
          4    1    3    3  502    0 -0.98826026681E+01 -0.16109523102E+03 -0.54564727880E+02  0.17037208932E+03  0.00000000000E+00 0. -1.
         -3    1    3    3    0  502 -0.12486701576E+03 -0.44288752419E+03 -0.59417783315E+02  0.46397371012E+03  0.00000000000E+00 0.  1.
         11    1    5    5    0    0 -0.20305290927E+02  0.23520156383E+02  0.12001377166E+02  0.33309693030E+02  0.00000000000E+00 0.  1.
        -11    1    5    5    0    0 -0.11825786922E+03  0.72446319627E+03  0.52071115659E+03  0.89998441930E+03  0.00000000000E+00 0. -1.
          1    1    6    6  503    0  0.21935842901E+03 -0.72496361390E+02  0.15811908717E+03  0.27995622608E+03  0.00000000000E+00 0. -1.
         -1    1    6    6    0  503  0.53954349574E+02 -0.71504236059E+02  0.86073071972E+02  0.12422761903E+03  0.00000000000E+00 0.  1.
<mgrwt>
<rscale>  0 0.18570469E+04</rscale>
<asrwt>0</asrwt>
<pdfrwt beam="1">  1        2 0.20267276E+00 0.18570469E+04</pdfrwt>
<pdfrwt beam="2">  1       -1 0.10068474E+00 0.18570469E+04</pdfrwt>
<totfact> 0.16234844E+01</totfact>
</mgrwt>
</event>
<event>
12    6  0.1556619E-007  0.2615565E+04  0.7818608E-02  0.8362933E-01
         -1   -1    0    0    0  501 -0.00000000000E+00  0.00000000000E+00  0.98801534503E+03  0.98801534503E+03  0.00000000000E+00 0.  1.
          2   -1    0    0  501    0  0.00000000000E+00 -0.00000000000E+00 -0.17310403776E+04  0.17310403776E+04  0.00000000000E+00 0. -1.
         24    2    1    2    0    0 -0.77793830636E+02 -0.20801526251E+03 -0.15011071723E+04  0.15196326446E+04  0.81476390739E+02 0.  0.
        254    2    1    2    0    0  0.77793830636E+02  0.20801526251E+03  0.75808213969E+03  0.11994230781E+04  0.90255468543E+03 0.  0.
         23    2    4    4    0    0  0.10727203546E+02  0.43890943531E+03  0.57020195093E+02  0.45220053612E+03  0.92073106409E+02 0.  0.
         23    2    4    4    0    0  0.67066627090E+02 -0.23089417280E+03  0.70106194460E+03  0.74722254196E+03  0.95097978653E+02 0.  0.
          2    1    3    3  502    0 -0.66083766408E+02 -0.63900561371E+02 -0.59787133986E+03  0.60489708625E+03  0.00000000000E+00 0. -1.
         -1    1    3    3    0  502 -0.11710064228E+02 -0.14411470114E+03 -0.90323583240E+03  0.91473555830E+03  0.00000000000E+00 0.  1.
         11    1    5    5    0    0 -0.12517628358E+02  0.34260230671E+03  0.76423423062E+02  0.35124574186E+03  0.00000000000E+00 0.  1.
        -11    1    5    5    0    0  0.23244831905E+02  0.96307128595E+02 -0.19403227969E+02  0.10095479426E+03  0.00000000000E+00 0. -1.
          4    1    6    6  503    0  0.67324531168E+02 -0.18150400247E+03  0.64026712267E+03  0.66889332766E+03  0.00000000000E+00 0. -1.
         -4    1    6    6    0  503 -0.25790407817E+00 -0.49390170333E+02  0.60794821926E+02  0.78329214302E+02  0.00000000000E+00 0.  1.
<mgrwt>
<rscale>  0 0.26155645E+04</rscale>
<asrwt>0</asrwt>
<pdfrwt beam="1">  1        2 0.26631390E+00 0.26155645E+04</pdfrwt>
<pdfrwt beam="2">  1       -1 0.15200236E+00 0.26155645E+04</pdfrwt>
<totfact> 0.31902663E+00</totfact>
</mgrwt>
</event>
<event>
12    6  0.1556619E-007  0.2200287E+04  0.7818608E-02  0.8518309E-01
          2   -1    0    0  501    0  0.00000000000E+00  0.00000000000E+00  0.16347746013E+04  0.16347746013E+04  0.00000000000E+00 0. -1.
         -1   -1    0    0    0  501 -0.00000000000E+00 -0.00000000000E+00 -0.74035613788E+03  0.74035613788E+03  0.00000000000E+00 0.  1.
         24    2    1    2    0    0 -0.68785095792E+03 -0.47158230442E+03  0.75064529123E+03  0.11249205780E+04  0.80306559220E+02 0.  0.
        254    2    1    2    0    0  0.68785095792E+03  0.47158230442E+03  0.14377317223E+03  0.12502101612E+04  0.92023144478E+03 0.  0.
         23    2    4    4    0    0  0.86032234677E+03  0.52915114646E+03  0.21019411230E+03  0.10358441580E+04  0.92930504378E+02 0.  0.
         23    2    4    4    0    0 -0.17247138885E+03 -0.57568842041E+02 -0.66420940067E+02  0.21436600322E+03  0.92089578732E+02 0.  0.
          2    1    3    3  502    0 -0.50100744896E+03 -0.35110344027E+03  0.59599110461E+03  0.85410039601E+03  0.00000000000E+00 0. -1.
         -1    1    3    3    0  502 -0.18684350896E+03 -0.12047886415E+03  0.15465418662E+03  0.27082018201E+03  0.00000000000E+00 0.  1.
         11    1    5    5    0    0  0.71250035711E+03  0.41864627302E+03  0.20391177610E+03  0.85117652295E+03  0.00000000000E+00 0.  1.
        -11    1    5    5    0    0  0.14782198966E+03  0.11050487345E+03  0.62823361960E+01  0.18466763503E+03  0.00000000000E+00 0. -1.
          3    1    6    6  503    0 -0.14316493589E+03 -0.30597053548E+02 -0.86205951202E+02  0.16989362724E+03  0.00000000000E+00 0.  1.
         -3    1    6    6    0  503 -0.29306452959E+02 -0.26971788493E+02  0.19785011135E+02  0.44472375978E+02  0.00000000000E+00 0. -1.
<mgrwt>
<rscale>  0 0.22002867E+04</rscale>
<asrwt>0</asrwt>
<pdfrwt beam="1">  1        2 0.25150378E+00 0.22002867E+04</pdfrwt>
<pdfrwt beam="2">  1       -1 0.11390094E+00 0.22002867E+04</pdfrwt>
<totfact> 0.77969970E+00</totfact>
</mgrwt>
</event>
<event>
12    6  0.1556619E-007  0.1103765E+04  0.7818608E-02  0.9201530E-01
          2   -1    0    0  501    0  0.00000000000E+00  0.00000000000E+00  0.69412139799E+03  0.69412139799E+03  0.00000000000E+00 0. -1.
         -1   -1    0    0    0  501 -0.00000000000E+00 -0.00000000000E+00 -0.43879114768E+03  0.43879114768E+03  0.00000000000E+00 0.  1.
         24    2    1    2    0    0 -0.15861129330E+03  0.59851406244E+02  0.77649352750E+02  0.20342463272E+03  0.81316824961E+02 0.  0.
        254    2    1    2    0    0  0.15861129330E+03 -0.59851406244E+02  0.17768089756E+03  0.92948791296E+03  0.89645833467E+03 0.  0.
         23    2    4    4    0    0  0.22382696109E+03  0.28171105533E+03 -0.18844528064E+03  0.41632908552E+03  0.91425688100E+02 0.  0.
         23    2    4    4    0    0 -0.65215667794E+02 -0.34156246158E+03  0.36612617820E+03  0.51315882744E+03  0.91463683139E+02 0.  0.
          4    1    3    3  502    0 -0.51534433008E+01 -0.39602655989E+01  0.29766751048E+02  0.30468034879E+02  0.00000000000E+00 0. -1.
         -3    1    3    3    0  502 -0.15345785000E+03  0.63811671843E+02  0.47882601702E+02  0.17295659784E+03  0.00000000000E+00 0.  1.
         11    1    5    5    0    0 -0.58079419011E+01  0.36544687216E+01  0.36112864086E+01  0.77542710998E+01  0.00000000000E+00 0. -1.
        -11    1    5    5    0    0  0.22963490299E+03  0.27805658661E+03 -0.19205656705E+03  0.40857481442E+03  0.00000000000E+00 0.  1.
          2    1    6    6  503    0  0.92786381752E+01  0.40689154904E+00  0.64823013418E+01  0.11326028333E+02  0.00000000000E+00 0. -1.
         -2    1    6    6    0  503 -0.74494305970E+02 -0.34196935313E+03  0.35964387686E+03  0.50183279911E+03  0.00000000000E+00 0.  1.
<mgrwt>
<rscale>  0 0.11037651E+04</rscale>
<asrwt>0</asrwt>
<pdfrwt beam="1">  1        2 0.10678791E+00 0.11037651E+04</pdfrwt>
<pdfrwt beam="2">  1       -1 0.67506330E-01 0.11037651E+04</pdfrwt>
<totfact> 0.10437674E+02</totfact>
</mgrwt>
</event>
<event>
12    6  0.1556619E-007  0.1422985E+04  0.7818608E-02  0.8937347E-01
          2   -1    0    0  501    0  0.00000000000E+00  0.00000000000E+00  0.30577023044E+04  0.30577023044E+04  0.00000000000E+00 0. -1.
         -1   -1    0    0    0  501 -0.00000000000E+00 -0.00000000000E+00 -0.16555608968E+03  0.16555608968E+03  0.00000000000E+00 0.  1.
         24    2    1    2    0    0  0.33351307890E+03 -0.92461062110E+02  0.13786953250E+04  0.14237288940E+04  0.80144511426E+02 0.  0.
        254    2    1    2    0    0 -0.33351307890E+03  0.92461062110E+02  0.15134508897E+04  0.17995295000E+04  0.90994109928E+03 0.  0.
         23    2    4    4    0    0 -0.10421409791E+02  0.45132766409E+03  0.91891385896E+03  0.10282153991E+04  0.94968208578E+02 0.  0.
         23    2    4    4    0    0 -0.32309166911E+03 -0.35886660198E+03  0.59453703075E+03  0.77131410093E+03  0.90981848139E+02 0.  0.
          2    1    3    3  502    0  0.31966621693E+03 -0.10361912421E+03  0.12761099068E+04  0.13196135447E+04  0.00000000000E+00 0. -1.
         -1    1    3    3    0  502  0.13846861964E+02  0.11158062102E+02  0.10258541822E+03  0.10411534934E+03  0.00000000000E+00 0.  1.
         11    1    5    5    0    0 -0.11388586841E+01  0.39568857510E+03  0.85993686243E+03  0.94660559518E+03  0.00000000000E+00 0.  1.
        -11    1    5    5    0    0 -0.92825511069E+01  0.55639088991E+02  0.58976996525E+02  0.81609803933E+02  0.00000000000E+00 0. -1.
          2    1    6    6  503    0 -0.39181009621E+02 -0.88908982727E+02  0.15070502398E+03  0.17930968456E+03  0.00000000000E+00 0. -1.
         -2    1    6    6    0  503 -0.28391065949E+03 -0.26995761925E+03  0.44383200678E+03  0.59200441637E+03  0.00000000000E+00 0.  1.
<mgrwt>
<rscale>  0 0.14229845E+04</rscale>
<asrwt>0</asrwt>
<pdfrwt beam="1">  1        2 0.47041570E+00 0.14229845E+04</pdfrwt>
<pdfrwt beam="2">  1       -1 0.25470170E-01 0.14229845E+04</pdfrwt>
<totfact> 0.24264066E+01</totfact>
</mgrwt>
</event>
<event>
12    6  0.1556619E-007  0.1192231E+04  0.7818608E-02  0.9119684E-01
          2   -1    0    0  501    0  0.00000000000E+00  0.00000000000E+00  0.16079141320E+04  0.16079141320E+04  0.00000000000E+00 0. -1.
         -1   -1    0    0    0  501 -0.00000000000E+00 -0.00000000000E+00 -0.22100301762E+03  0.22100301762E+03  0.00000000000E+00 0.  1.
         24    2    1    2    0    0  0.16114444957E+03 -0.15828527302E+03  0.14385823522E+03  0.27942356769E+03  0.79753226002E+02 0.  0.
        254    2    1    2    0    0 -0.16114444957E+03  0.15828527302E+03  0.12430528791E+04  0.15494935819E+04  0.89706640710E+03 0.  0.
         23    2    4    4    0    0  0.21945490850E+03  0.10458902278E+03  0.10992246644E+04  0.11292250107E+04  0.88062144750E+02 0.  0.
         23    2    4    4    0    0 -0.38059935807E+03  0.53696250235E+02  0.14382821470E+03  0.42026857121E+03  0.90553619175E+02 0.  0.
          2    1    3    3  502    0  0.40227344960E+02 -0.32640374762E+02  0.76710569404E+02  0.92564273915E+02  0.00000000000E+00 0. -1.
         -1    1    3    3    0  502  0.12091710461E+03 -0.12564489826E+03  0.67147665818E+02  0.18685929378E+03  0.00000000000E+00 0.  1.
         11    1    5    5    0    0  0.19606062308E+03  0.11506510599E+03  0.10421800566E+04  0.10666859973E+04  0.00000000000E+00 0.  1.
        -11    1    5    5    0    0  0.23394285419E+02 -0.10476083210E+02  0.57044607866E+02  0.62539013394E+02  0.00000000000E+00 0. -1.
          3    1    6    6  503    0 -0.72613187314E+01 -0.13357210265E+02  0.21199346856E+01  0.15350437741E+02  0.00000000000E+00 0. -1.
         -3    1    6    6    0  503 -0.37333803934E+03  0.67053460500E+02  0.14170828002E+03  0.40491813346E+03  0.00000000000E+00 0.  1.
<mgrwt>
<rscale>  0 0.11922313E+04</rscale>
<asrwt>0</asrwt>
<pdfrwt beam="1">  1        2 0.24737140E+00 0.11922313E+04</pdfrwt>
<pdfrwt beam="2">  1       -1 0.34000465E-01 0.11922313E+04</pdfrwt>
<totfact> 0.10144559E+02</totfact>
</mgrwt>
</event>
<event>
12    6  0.1556619E-007  0.1769821E+04  0.7818608E-02  0.8722515E-01
         -1   -1    0    0    0  501 -0.00000000000E+00  0.00000000000E+00  0.11054688727E+04  0.11054688727E+04  0.00000000000E+00 0.  1.
          2   -1    0    0  501    0  0.00000000000E+00 -0.00000000000E+00 -0.70835724635E+03  0.70835724635E+03  0.00000000000E+00 0. -1.
         24    2    1    2    0    0  0.22956810733E+03  0.19889574881E+03  0.73743067179E+03  0.80151975301E+03  0.79805287927E+02 0.  0.
        254    2    1    2    0    0 -0.22956810733E+03 -0.19889574881E+03 -0.34031904542E+03  0.10123063660E+04  0.90370686136E+03 0.  0.
         23    2    4    4    0    0  0.11667268013E+03  0.50487748672E+02 -0.51756862013E+03  0.54045680861E+03  0.89748305740E+02 0.  0.
         23    2    4    4    0    0 -0.34624078745E+03 -0.24938349748E+03  0.17724957471E+03  0.47184955743E+03  0.95654489715E+02 0.  0.
          2    1    3    3  502    0  0.15257368976E+03  0.11122470615E+03  0.36063440112E+03  0.40707104704E+03  0.00000000000E+00 0. -1.
         -1    1    3    3    0  502  0.76994417570E+02  0.87671042662E+02  0.37679627066E+03  0.39444870597E+03  0.00000000000E+00 0.  1.
         11    1    5    5    0    0  0.10659034784E+03  0.13692706881E+02 -0.28132345442E+03  0.30115092309E+03  0.00000000000E+00 0. -1.
        -11    1    5    5    0    0  0.10082332292E+02  0.36795041790E+02 -0.23624516571E+03  0.23930588552E+03  0.00000000000E+00 0.  1.
          2    1    6    6  503    0 -0.33899744780E+03 -0.22202245510E+03  0.18000345866E+03  0.44341231976E+03  0.00000000000E+00 0. -1.
         -2    1    6    6    0  503 -0.72433396528E+01 -0.27361042386E+02 -0.27538839541E+01  0.28437237676E+02  0.00000000000E+00 0.  1.
<mgrwt>
<rscale>  0 0.17698213E+04</rscale>
<asrwt>0</asrwt>
<pdfrwt beam="1">  1        2 0.10897804E+00 0.17698213E+04</pdfrwt>
<pdfrwt beam="2">  1       -1 0.17007213E+00 0.17698213E+04</pdfrwt>
<totfact> 0.10717597E+01</totfact>
</mgrwt>
</event>
<event>
12    6  0.1556619E-007  0.2934309E+04  0.7818608E-02  0.8262742E-01
          2   -1    0    0  501    0  0.00000000000E+00  0.00000000000E+00  0.13869423208E+04  0.13869423208E+04  0.00000000000E+00 0. -1.
         -1   -1    0    0    0  501 -0.00000000000E+00 -0.00000000000E+00 -0.15520054984E+04  0.15520054984E+04  0.00000000000E+00 0.  1.
         24    2    1    2    0    0 -0.67534210800E+02 -0.82495060451E+02  0.12540399076E+04  0.12610603220E+04  0.79314193130E+02 0.  0.
        254    2    1    2    0    0  0.67534210800E+02  0.82495060451E+02 -0.14191030852E+04  0.16778874972E+04  0.88886814672E+03 0.  0.
         23    2    4    4    0    0 -0.33591054327E+03 -0.10254662291E+02 -0.10842821604E+04  0.11388240629E+04  0.91166834509E+02 0.  0.
         23    2    4    4    0    0  0.40344475407E+03  0.92749722742E+02 -0.33482092484E+03  0.53906343434E+03  0.84345443727E+02 0.  0.
          2    1    3    3  502    0 -0.41510701679E+02 -0.34767536288E+02  0.99014788808E+03  0.99162732929E+03  0.00000000000E+00 0. -1.
         -1    1    3    3    0  502 -0.26023509121E+02 -0.47727524163E+02  0.26389201949E+03  0.26943299267E+03  0.00000000000E+00 0.  1.
         11    1    5    5    0    0 -0.44914708051E+02  0.13280343413E+02 -0.77371443341E+02  0.90443566743E+02  0.00000000000E+00 0. -1.
        -11    1    5    5    0    0 -0.29099583522E+03 -0.23535005705E+02 -0.10069107170E+04  0.10483804962E+04  0.00000000000E+00 0.  1.
          1    1    6    6  503    0  0.23456725032E+02  0.27125498926E+02 -0.18748854840E+02  0.40466408279E+02  0.00000000000E+00 0. -1.
         -1    1    6    6    0  503  0.37998802904E+03  0.65624223816E+02 -0.31607207000E+03  0.49859702606E+03  0.00000000000E+00 0.  1.
<mgrwt>
<rscale>  0 0.29343089E+04</rscale>
<asrwt>0</asrwt>
<pdfrwt beam="1">  1        2 0.21337574E+00 0.29343089E+04</pdfrwt>
<pdfrwt beam="2">  1       -1 0.23877008E+00 0.29343089E+04</pdfrwt>
<totfact> 0.11919699E+00</totfact>
</mgrwt>
</event>
<event>
12    6  0.1606161E-007  0.1687692E+04  0.7818608E-02  0.8768415E-01
         -1   -1    0    0    0  501 -0.00000000000E+00  0.00000000000E+00  0.50629569071E+03  0.50629569071E+03  0.00000000000E+00 0.  1.
          2   -1    0    0  501    0  0.00000000000E+00 -0.00000000000E+00 -0.14064439077E+04  0.14064439077E+04  0.00000000000E+00 0. -1.
         24    2    1    2    0    0 -0.37251656752E+03 -0.34373913519E+03  0.39253676162E+02  0.51466447930E+03  0.80084262030E+02 0.  0.
        254    2    1    2    0    0  0.37251656752E+03  0.34373913519E+03 -0.93940189311E+03  0.13980751191E+04  0.90289143071E+03 0.  0.
         23    2    4    4    0    0 -0.21036782390E+03  0.15251248058E+03 -0.31523693440E+01  0.27511504642E+03  0.90353047925E+02 0.  0.
         23    2    4    4    0    0  0.58288439142E+03  0.19122665461E+03 -0.93624952377E+03  0.11229600727E+04  0.90301200621E+02 0.  0.
          2    1    3    3  502    0 -0.81457966579E+02 -0.93044441081E+02  0.41738209235E+02  0.13051722662E+03  0.00000000000E+00 0. -1.
         -1    1    3    3    0  502 -0.29105860094E+03 -0.25069469411E+03 -0.24845330725E+01  0.38414725268E+03  0.00000000000E+00 0.  1.
         11    1    5    5    0    0 -0.12850361892E+03  0.90494132586E+02 -0.46103110046E+02  0.16379213920E+03  0.00000000000E+00 0. -1.
        -11    1    5    5    0    0 -0.81864204974E+02  0.62018347995E+02  0.42950740702E+02  0.11132290722E+03  0.00000000000E+00 0.  1.
          1    1    6    6  503    0  0.52306864611E+01  0.15358447757E+02 -0.25179399759E+02  0.29954034295E+02  0.00000000000E+00 0. -1.
         -1    1    6    6    0  503  0.57765370496E+03  0.17586820685E+03 -0.91107012401E+03  0.10930060384E+04  0.00000000000E+00 0.  1.
<mgrwt>
<rscale>  0 0.16876925E+04</rscale>
<asrwt>0</asrwt>
<pdfrwt beam="1">  1        2 0.21637598E+00 0.16876925E+04</pdfrwt>
<pdfrwt beam="2">  1       -1 0.77891646E-01 0.16876925E+04</pdfrwt>
<totfact> 0.25715545E+01</totfact>
</mgrwt>
</event>
<event>
12    6  0.1556619E-007  0.2132474E+04  0.7818608E-02  0.8547072E-01
         -1   -1    0    0    0  501 -0.00000000000E+00  0.00000000000E+00  0.43456779974E+03  0.43456779974E+03  0.00000000000E+00 0.  1.
          2   -1    0    0  501    0  0.00000000000E+00 -0.00000000000E+00 -0.26160738152E+04  0.26160738152E+04  0.00000000000E+00 0. -1.
         24    2    1    2    0    0 -0.70125873311E+03 -0.39806717371E+03 -0.41518093096E+03  0.91093087184E+03  0.84844341525E+02 0.  0.
        254    2    1    2    0    0  0.70125873311E+03  0.39806717371E+03 -0.17663250845E+04  0.21397107431E+04  0.89901972974E+03 0.  0.
         23    2    4    4    0    0  0.74649368838E+03  0.33740137085E+03 -0.18300077211E+04  0.20070341111E+04  0.90361229684E+02 0.  0.
         23    2    4    4    0    0 -0.45234955269E+02  0.60665802857E+02  0.63682636592E+02  0.13267663205E+03  0.88436811761E+02 0.  0.
          2    1    3    3  502    0 -0.32809192421E+03 -0.20247883357E+03 -0.15358275831E+03  0.41500560529E+03  0.00000000000E+00 0. -1.
         -1    1    3    3    0  502 -0.37316680890E+03 -0.19558834014E+03 -0.26159817265E+03  0.49592526655E+03  0.00000000000E+00 0.  1.
         11    1    5    5    0    0  0.70251653075E+02  0.85241703037E+01 -0.19330527117E+03  0.20585160700E+03  0.00000000000E+00 0. -1.
        -11    1    5    5    0    0  0.67624203530E+03  0.32887720055E+03 -0.16367024499E+04  0.18011825041E+04  0.00000000000E+00 0.  1.
          1    1    6    6  503    0 -0.49831086332E+01  0.32098934280E+02 -0.18075918935E+02  0.37174074285E+02  0.00000000000E+00 0. -1.
         -1    1    6    6    0  503 -0.40251846636E+02  0.28566868577E+02  0.81758555527E+02  0.95502557766E+02  0.00000000000E+00 0.  1.
<mgrwt>
<rscale>  0 0.21324741E+04</rscale>
<asrwt>0</asrwt>
<pdfrwt beam="1">  1        2 0.40247288E+00 0.21324741E+04</pdfrwt>
<pdfrwt beam="2">  1       -1 0.66856587E-01 0.21324741E+04</pdfrwt>
<totfact> 0.70627556E+00</totfact>
</mgrwt>
</event>
<event>
12    6  0.1556619E-007  0.1779418E+04  0.7818608E-02  0.8717322E-01
          2   -1    0    0  501    0  0.00000000000E+00  0.00000000000E+00  0.99748191295E+03  0.99748191295E+03  0.00000000000E+00 0. -1.
         -1   -1    0    0    0  501 -0.00000000000E+00 -0.00000000000E+00 -0.79358065030E+03  0.79358065030E+03  0.00000000000E+00 0.  1.
         24    2    1    2    0    0 -0.59936536898E+03 -0.48945521434E+02 -0.20573631133E+03  0.64076217326E+03  0.81327875208E+02 0.  0.
        254    2    1    2    0    0  0.59936536898E+03  0.48945521434E+02  0.40963757397E+03  0.11503003900E+04  0.89092846827E+03 0.  0.
         23    2    4    4    0    0  0.80909523319E+03  0.14493059048E+03  0.32174121889E+03  0.88727801637E+03  0.90027184596E+02 0.  0.
         23    2    4    4    0    0 -0.20972986422E+03 -0.95985069051E+02  0.87896355085E+02  0.26302237361E+03  0.90858408297E+02 0.  0.
          4    1    3    3  502    0 -0.65718307254E+02  0.16306072460E+02 -0.91520831937E+01  0.68326748307E+02  0.00000000000E+00 0. -1.
         -3    1    3    3    0  502 -0.53364706173E+03 -0.65251593894E+02 -0.19658422814E+03  0.57243542496E+03  0.00000000000E+00 0.  1.
         11    1    5    5    0    0  0.10655729738E+02  0.11492608142E+01  0.18100103220E+02  0.21035187502E+02  0.00000000000E+00 0.  1.
        -11    1    5    5    0    0  0.79843950346E+03  0.14378132967E+03  0.30364111567E+03  0.86624282887E+03  0.00000000000E+00 0. -1.
          4    1    6    6  503    0 -0.21598535850E+03 -0.81578906715E+02  0.75168020973E+02  0.24280655774E+03  0.00000000000E+00 0. -1.
         -4    1    6    6    0  503  0.62554942817E+01 -0.14406162336E+02  0.12728334112E+02  0.20215815868E+02  0.00000000000E+00 0.  1.
<mgrwt>
<rscale>  0 0.17794183E+04</rscale>
<asrwt>0</asrwt>
<pdfrwt beam="1">  1        2 0.15345876E+00 0.17794183E+04</pdfrwt>
<pdfrwt beam="2">  1       -1 0.12208933E+00 0.17794183E+04</pdfrwt>
<totfact> 0.16185610E+01</totfact>
</mgrwt>
</event>
<event>
12    6  0.1556619E-007  0.2775032E+04  0.7818608E-02  0.8311062E-01
         -1   -1    0    0    0  501 -0.00000000000E+00  0.00000000000E+00  0.24429539955E+04  0.24429539955E+04  0.00000000000E+00 0.  1.
          2   -1    0    0  501    0  0.00000000000E+00 -0.00000000000E+00 -0.78806243865E+03  0.78806243865E+03  0.00000000000E+00 0. -1.
         24    2    1    2    0    0  0.22828143825E+03  0.92668755782E+02  0.21569934977E+04  0.21724803347E+04  0.79686525588E+02 0.  0.
        254    2    1    2    0    0 -0.22828143825E+03 -0.92668755782E+02 -0.50210194085E+03  0.10585360994E+04  0.89871708641E+03 0.  0.
         23    2    4    4    0    0 -0.15571848210E+03  0.22390560080E+03 -0.63214489054E+03  0.69441719001E+03  0.90697890927E+02 0.  0.
         23    2    4    4    0    0 -0.72562956154E+02 -0.31657435658E+03  0.13004294969E+03  0.36411890940E+03  0.10092921069E+03 0.  0.
          4    1    3    3  502    0  0.75439655190E+02 -0.69020976961E+01  0.55925847518E+03  0.56436585881E+03  0.00000000000E+00 0. -1.
         -3    1    3    3    0  502  0.15284178307E+03  0.99570853478E+02  0.15977350225E+04  0.16081144759E+04  0.00000000000E+00 0.  1.
         11    1    5    5    0    0 -0.21121198004E+02  0.80966334885E+02 -0.26740423428E+03  0.28019042971E+03  0.00000000000E+00 0.  1.
        -11    1    5    5    0    0 -0.13459728410E+03  0.14293926591E+03 -0.36474065626E+03  0.41422676031E+03  0.00000000000E+00 0. -1.
          2    1    6    6  503    0  0.21714066203E+02 -0.29807299772E+02  0.43658878656E+01  0.37135384307E+02  0.00000000000E+00 0. -1.
         -2    1    6    6    0  503 -0.94277022357E+02 -0.28676705681E+03  0.12567706182E+03  0.32698352509E+03  0.00000000000E+00 0.  1.
<mgrwt>
<rscale>  0 0.27750317E+04</rscale>
<asrwt>0</asrwt>
<pdfrwt beam="1">  1        2 0.12124038E+00 0.27750317E+04</pdfrwt>
<pdfrwt beam="2">  1       -1 0.37583907E+00 0.27750317E+04</pdfrwt>
<totfact> 0.36459956E-01</totfact>
</mgrwt>
</event>
<event>
12    6  0.1556619E-007  0.1379725E+04  0.7818608E-02  0.8968627E-01
          2   -1    0    0  501    0  0.00000000000E+00  0.00000000000E+00  0.78907824660E+03  0.78907824660E+03  0.00000000000E+00 0. -1.
         -1   -1    0    0    0  501 -0.00000000000E+00 -0.00000000000E+00 -0.60312193122E+03  0.60312193122E+03  0.00000000000E+00 0.  1.
         24    2    1    2    0    0 -0.65676686642E+02 -0.15937977371E+03  0.41081314602E+03  0.45324616672E+03  0.83362505193E+02 0.  0.
        254    2    1    2    0    0  0.65676686642E+02  0.15937977371E+03 -0.22485683064E+03  0.93895401110E+03  0.89518640586E+03 0.  0.
         23    2    4    4    0    0  0.39922376155E+03  0.25337673376E+03  0.54578323754E+02  0.48460114830E+03  0.90995046664E+02 0.  0.
         23    2    4    4    0    0 -0.33354707490E+03 -0.93996960047E+02 -0.27943515440E+03  0.45435286280E+03  0.90903458382E+02 0.  0.
          2    1    3    3  502    0 -0.64422620997E+02 -0.16739759271E+03  0.36466552545E+03  0.40639042015E+03  0.00000000000E+00 0. -1.
         -1    1    3    3    0  502 -0.12540656447E+01  0.80178190054E+01  0.46147620571E+02  0.46855746570E+02  0.00000000000E+00 0.  1.
         11    1    5    5    0    0  0.13033297759E+03  0.11450604150E+03  0.54896926264E+02  0.18196700553E+03  0.00000000000E+00 0. -1.
        -11    1    5    5    0    0  0.26889078395E+03  0.13887069226E+03 -0.31860250999E+00  0.30263414277E+03  0.00000000000E+00 0.  1.
          4    1    6    6  503    0 -0.29600038686E+02  0.11627234638E+02 -0.49614676133E+02  0.58931918035E+02  0.00000000000E+00 0. -1.
         -4    1    6    6    0  503 -0.30394703622E+03 -0.10562419469E+03 -0.22982047826E+03  0.39542094476E+03  0.00000000000E+00 0.  1.
<mgrwt>
<rscale>  0 0.13797252E+04</rscale>
<asrwt>0</asrwt>
<pdfrwt beam="1">  1        2 0.12139665E+00 0.13797252E+04</pdfrwt>
<pdfrwt beam="2">  1       -1 0.92787989E-01 0.13797252E+04</pdfrwt>
<totfact> 0.44090136E+01</totfact>
</mgrwt>
</event>
<event>
12    6  0.1556619E-007  0.2031894E+04  0.7818608E-02  0.8591853E-01
          2   -1    0    0  501    0  0.00000000000E+00  0.00000000000E+00  0.15678236931E+04  0.15678236931E+04  0.00000000000E+00 0. -1.
         -1   -1    0    0    0  501 -0.00000000000E+00 -0.00000000000E+00 -0.65833202422E+03  0.65833202422E+03  0.00000000000E+00 0.  1.
         24    2    1    2    0    0 -0.39970241545E+03 -0.40804343697E+03  0.10119761817E+04  0.11648607287E+04  0.80890404779E+02 0.  0.
        254    2    1    2    0    0  0.39970241545E+03  0.40804343697E+03 -0.10248451290E+03  0.10612949885E+04  0.88858455419E+03 0.  0.
         23    2    4    4    0    0  0.36959947566E+03  0.66693138074E+03 -0.14229366369E+03  0.78148469778E+03  0.95234484965E+02 0.  0.
         23    2    4    4    0    0  0.30102939787E+02 -0.25888794377E+03  0.39809150788E+02  0.27981029076E+03  0.93700992070E+02 0.  0.
          2    1    3    3  502    0 -0.30076299074E+03 -0.34016717604E+03  0.75044900903E+03  0.87712359415E+03  0.00000000000E+00 0. -1.
         -1    1    3    3    0  502 -0.98939424713E+02 -0.67876260931E+02  0.26152717271E+03  0.28773713460E+03  0.00000000000E+00 0.  1.
         11    1    5    5    0    0  0.28931665442E+03  0.58043819393E+03 -0.10047121456E+03  0.65628278086E+03  0.00000000000E+00 0. -1.
        -11    1    5    5    0    0  0.80282821244E+02  0.86493186804E+02 -0.41822449131E+02  0.12520191693E+03  0.00000000000E+00 0.  1.
          1    1    6    6  503    0 -0.18850033630E+02 -0.19474007937E+03  0.36665256892E+02  0.19905618138E+03  0.00000000000E+00 0. -1.
         -1    1    6    6    0  503  0.48952973417E+02 -0.64147864397E+02  0.31438938957E+01  0.80754109381E+02  0.00000000000E+00 0.  1.
<mgrwt>
<rscale>  0 0.20318942E+04</rscale>
<asrwt>0</asrwt>
<pdfrwt beam="1">  1        2 0.24120364E+00 0.20318942E+04</pdfrwt>
<pdfrwt beam="2">  1       -1 0.10128185E+00 0.20318942E+04</pdfrwt>
<totfact> 0.11358953E+01</totfact>
</mgrwt>
</event>
<event>
12    6  0.1556619E-007  0.1109878E+04  0.7818608E-02  0.9195617E-01
          2   -1    0    0  501    0  0.00000000000E+00  0.00000000000E+00  0.17748446855E+04  0.17748446855E+04  0.00000000000E+00 0. -1.
         -1   -1    0    0    0  501 -0.00000000000E+00 -0.00000000000E+00 -0.17351236455E+03  0.17351236455E+03  0.00000000000E+00 0.  1.
         24    2    1    2    0    0  0.14723710475E+03 -0.66704067398E+02  0.19186825144E+03  0.26227029045E+03  0.76446593915E+02 0.  0.
        254    2    1    2    0    0 -0.14723710475E+03  0.66704067398E+02  0.14094640695E+04  0.16860867596E+04  0.91113742106E+03 0.  0.
         23    2    4    4    0    0 -0.15292540885E+02  0.28304983938E+03  0.13833960913E+04  0.14149917719E+04  0.89810331708E+02 0.  0.
         23    2    4    4    0    0 -0.13194456386E+03 -0.21634577198E+03  0.26067978206E+02  0.27109498772E+03  0.92725896571E+02 0.  0.
          4    1    3    3  502    0  0.75265767403E+02 -0.39385270283E+01  0.12402205138E+03  0.14512724405E+03  0.00000000000E+00 0. -1.
         -3    1    3    3    0  502  0.71971337344E+02 -0.62765540370E+02  0.67846200062E+02  0.11714304640E+03  0.00000000000E+00 0.  1.
         11    1    5    5    0    0 -0.50913777660E+02  0.19101907911E+03  0.97530795163E+03  0.99514124718E+03  0.00000000000E+00 0. -1.
        -11    1    5    5    0    0  0.35621236774E+02  0.92030760269E+02  0.40808813969E+03  0.41985052471E+03  0.00000000000E+00 0.  1.
          2    1    6    6  503    0 -0.42820754043E+02 -0.80511623046E+02 -0.34799267522E+02  0.97604956034E+02  0.00000000000E+00 0. -1.
         -2    1    6    6    0  503 -0.89123809818E+02 -0.13583414893E+03  0.60867245728E+02  0.17349003169E+03  0.00000000000E+00 0.  1.
<mgrwt>
<rscale>  0 0.11098784E+04</rscale>
<asrwt>0</asrwt>
<pdfrwt beam="1">  1        2 0.27305302E+00 0.11098784E+04</pdfrwt>
<pdfrwt beam="2">  1       -1 0.26694211E-01 0.11098784E+04</pdfrwt>
<totfact> 0.12605751E+02</totfact>
</mgrwt>
</event>
<event>
12    6  0.1556619E-007  0.1148207E+04  0.7818608E-02  0.9159439E-01
         -1   -1    0    0    0  501 -0.00000000000E+00  0.00000000000E+00  0.43177908246E+03  0.43177908246E+03  0.00000000000E+00 0.  1.
          2   -1    0    0  501    0  0.00000000000E+00 -0.00000000000E+00 -0.76334104921E+03  0.76334104921E+03  0.00000000000E+00 0. -1.
         24    2    1    2    0    0 -0.13645030686E+03  0.50652723861E+02  0.93969219773E+02  0.18941037682E+03  0.76561686934E+02 0.  0.
        254    2    1    2    0    0  0.13645030686E+03 -0.50652723861E+02 -0.42553118652E+03  0.10057097548E+04  0.89955040749E+03 0.  0.
         23    2    4    4    0    0  0.46350526360E+03  0.13330237107E+03 -0.99901958856E+02  0.50041869084E+03  0.88497532418E+02 0.  0.
         23    2    4    4    0    0 -0.32705495674E+03 -0.18395509493E+03 -0.32562922766E+03  0.50529106401E+03  0.92088239084E+02 0.  0.
          4    1    3    3  502    0 -0.98409120611E+02  0.64538695032E+02  0.45313142480E+02  0.12610661782E+03  0.00000000000E+00 0. -1.
         -3    1    3    3    0  502 -0.38041186250E+02 -0.13885971170E+02  0.48656077293E+02  0.63303759005E+02  0.00000000000E+00 0.  1.
         11    1    5    5    0    0  0.32049833565E+03  0.58956110161E+02 -0.39354998773E+02  0.32824354070E+03  0.00000000000E+00 0. -1.
        -11    1    5    5    0    0  0.14300692795E+03  0.74346260912E+02 -0.60546960083E+02  0.17217515014E+03  0.00000000000E+00 0.  1.
          1    1    6    6  503    0 -0.17841285909E+03 -0.75315001227E+02 -0.21975117660E+03  0.29290626029E+03  0.00000000000E+00 0. -1.
         -1    1    6    6    0  503 -0.14864209764E+03 -0.10864009371E+03 -0.10587805106E+03  0.21238480371E+03  0.00000000000E+00 0.  1.
<mgrwt>
<rscale>  0 0.11482068E+04</rscale>
<asrwt>0</asrwt>
<pdfrwt beam="1">  1        2 0.11743708E+00 0.11482068E+04</pdfrwt>
<pdfrwt beam="2">  1       -1 0.66427552E-01 0.11482068E+04</pdfrwt>
<totfact> 0.95150826E+01</totfact>
</mgrwt>
</event>
<event>
12    6  0.1556619E-007  0.1678763E+04  0.7818608E-02  0.8773570E-01
         -3   -1    0    0    0  501 -0.00000000000E+00  0.00000000000E+00  0.75906114942E+03  0.75906114942E+03  0.00000000000E+00 0.  1.
          2   -1    0    0  501    0  0.00000000000E+00 -0.00000000000E+00 -0.92820107543E+03  0.92820107543E+03  0.00000000000E+00 0. -1.
         24    2    1    2    0    0  0.16938277157E+03  0.57148572986E+03 -0.30072392193E+02  0.60040619329E+03  0.65549869737E+02 0.  0.
        254    2    1    2    0    0 -0.16938277157E+03 -0.57148572986E+03 -0.13906753382E+03  0.10868560316E+04  0.89812571038E+03 0.  0.
         23    2    4    4    0    0 -0.22136060301E+03 -0.79408244591E+03 -0.72243708804E+02  0.83253808681E+03  0.91285623560E+02 0.  0.
         23    2    4    4    0    0  0.51977831438E+02  0.22259671605E+03 -0.66823825017E+02  0.25431794475E+03  0.89225559538E+02 0.  0.
          4    1    3    3  502    0  0.10468980298E+03  0.37759956477E+03  0.10678979885E+02  0.39198906461E+03  0.00000000000E+00 0. -1.
         -3    1    3    3    0  502  0.64692968589E+02  0.19388616509E+03 -0.40751372077E+02  0.20841712867E+03  0.00000000000E+00 0.  1.
         11    1    5    5    0    0 -0.22600610024E+03 -0.72430717008E+03 -0.75749128671E+02  0.76252053380E+03  0.00000000000E+00 0. -1.
        -11    1    5    5    0    0  0.46454972278E+01 -0.69775275827E+02  0.35054198674E+01  0.70017553012E+02  0.00000000000E+00 0.  1.
          4    1    6    6  503    0  0.72478214991E+02  0.19892859406E+03 -0.45844289954E+02  0.21662727460E+03  0.00000000000E+00 0. -1.
         -4    1    6    6    0  503 -0.20500383553E+02  0.23668121991E+02 -0.20979535063E+02  0.37690670143E+02  0.00000000000E+00 0.  1.
<mgrwt>
<rscale>  0 0.16787631E+04</rscale>
<asrwt>0</asrwt>
<pdfrwt beam="1">  1        2 0.14280017E+00 0.16787631E+04</pdfrwt>
<pdfrwt beam="2">  1       -3 0.11677864E+00 0.16787631E+04</pdfrwt>
<totfact> 0.10223156E+01</totfact>
</mgrwt>
</event>
<event>
12    6  0.1556619E-007  0.1675389E+04  0.7818608E-02  0.8775526E-01
         -1   -1    0    0    0  501 -0.00000000000E+00  0.00000000000E+00  0.77638070124E+03  0.77638070124E+03  0.00000000000E+00 0.  1.
          2   -1    0    0  501    0  0.00000000000E+00 -0.00000000000E+00 -0.90385099042E+03  0.90385099042E+03  0.00000000000E+00 0. -1.
         24    2    1    2    0    0 -0.67223377914E+02 -0.20270703748E+03 -0.60160568927E+03  0.64351698322E+03  0.81089930038E+02 0.  0.
        254    2    1    2    0    0  0.67223377914E+02  0.20270703748E+03  0.47413540008E+03  0.10367147084E+04  0.89686335832E+03 0.  0.
         23    2    4    4    0    0 -0.26761621277E+02  0.30341584063E+03  0.69309046635E+03  0.76263823835E+03  0.92007235180E+02 0.  0.
         23    2    4    4    0    0  0.93984999191E+02 -0.10070880315E+03 -0.21895506627E+03  0.27407647009E+03  0.90560186101E+02 0.  0.
          2    1    3    3  502    0 -0.55004090211E+02 -0.52052898524E+02 -0.16672229655E+03  0.18311547818E+03  0.00000000000E+00 0. -1.
         -1    1    3    3    0  502 -0.12219287702E+02 -0.15065413896E+03 -0.43488339272E+03  0.46040150504E+03  0.00000000000E+00 0.  1.
         11    1    5    5    0    0 -0.12366004055E+02  0.22640652606E+03  0.59730513939E+03  0.63889456300E+03  0.00000000000E+00 0.  1.
        -11    1    5    5    0    0 -0.14395617222E+02  0.77009314573E+02  0.95785326965E+02  0.12374367535E+03  0.00000000000E+00 0. -1.
          2    1    6    6  503    0  0.66810433963E+02 -0.69174023682E+01 -0.86391393329E+02  0.10943014842E+03  0.00000000000E+00 0. -1.
         -2    1    6    6    0  503  0.27174565228E+02 -0.93791400780E+02 -0.13256367294E+03  0.16464632167E+03  0.00000000000E+00 0.  1.
<mgrwt>
<rscale>  0 0.16753895E+04</rscale>
<asrwt>0</asrwt>
<pdfrwt beam="1">  1        2 0.13905400E+00 0.16753895E+04</pdfrwt>
<pdfrwt beam="2">  1       -1 0.11944318E+00 0.16753895E+04</pdfrwt>
<totfact> 0.19861393E+01</totfact>
</mgrwt>
</event>
<event>
12    6  0.1556619E-007  0.1633482E+04  0.7818608E-02  0.8800239E-01
         -1   -1    0    0    0  501 -0.00000000000E+00  0.00000000000E+00  0.89101208732E+03  0.89101208732E+03  0.00000000000E+00 0.  1.
          2   -1    0    0  501    0  0.00000000000E+00 -0.00000000000E+00 -0.74866089445E+03  0.74866089445E+03  0.00000000000E+00 0. -1.
         24    2    1    2    0    0 -0.48827274723E+03 -0.22186747808E+03 -0.12497197642E+03  0.55643866167E+03  0.79815636298E+02 0.  0.
        254    2    1    2    0    0  0.48827274723E+03  0.22186747808E+03  0.26732316929E+03  0.10832343201E+04  0.90238542866E+03 0.  0.
         23    2    4    4    0    0  0.37033496014E+02 -0.26013981065E+03 -0.13117421953E+03  0.30655799789E+03  0.87902953803E+02 0.  0.
         23    2    4    4    0    0  0.45123925122E+03  0.48200728873E+03  0.39849738882E+03  0.77667632220E+03  0.92076339781E+02 0.  0.
          2    1    3    3  502    0 -0.26393971280E+03 -0.15603171471E+03 -0.48288325285E+02  0.31038980387E+03  0.00000000000E+00 0. -1.
         -1    1    3    3    0  502 -0.22433303443E+03 -0.65835763375E+02 -0.76683651132E+02  0.24604885781E+03  0.00000000000E+00 0.  1.
         11    1    5    5    0    0  0.24987554329E+02 -0.23037501867E+03 -0.14304813854E+03  0.27232296458E+03  0.00000000000E+00 0. -1.
        -11    1    5    5    0    0  0.12045941685E+02 -0.29764791976E+02  0.11873919012E+02  0.34235033302E+02  0.00000000000E+00 0.  1.
          1    1    6    6  503    0  0.35540101020E+03  0.40403852734E+03  0.35939897517E+03  0.64708935471E+03  0.00000000000E+00 0. -1.
         -1    1    6    6    0  503  0.95838241015E+02  0.77968761393E+02  0.39098413645E+02  0.12958696749E+03  0.00000000000E+00 0.  1.
<mgrwt>
<rscale>  0 0.16334821E+04</rscale>
<asrwt>0</asrwt>
<pdfrwt beam="1">  1        2 0.11517860E+00 0.16334821E+04</pdfrwt>
<pdfrwt beam="2">  1       -1 0.13707878E+00 0.16334821E+04</pdfrwt>
<totfact> 0.18182100E+01</totfact>
</mgrwt>
</event>
<event>
12    6  0.1556619E-007  0.2596334E+04  0.7818608E-02  0.8369447E-01
          2   -1    0    0  501    0  0.00000000000E+00  0.00000000000E+00  0.16624673367E+04  0.16624673367E+04  0.00000000000E+00 0. -1.
         -1   -1    0    0    0  501 -0.00000000000E+00 -0.00000000000E+00 -0.10136967714E+04  0.10136967714E+04  0.00000000000E+00 0.  1.
         24    2    1    2    0    0 -0.54365477867E+03  0.53122325227E+01  0.13117411976E+04  0.14224533514E+04  0.84379079572E+02 0.  0.
        254    2    1    2    0    0  0.54365477867E+03 -0.53122325227E+01 -0.66297063236E+03  0.12537107567E+04  0.91469768994E+03 0.  0.
         23    2    4    4    0    0  0.67418026408E+03 -0.26473894259E+03 -0.60254230326E+03  0.94653608462E+03  0.90926322212E+02 0.  0.
         23    2    4    4    0    0 -0.13052548542E+03  0.25942671006E+03 -0.60428329108E+02  0.30717467211E+03  0.79784559858E+02 0.  0.
          4    1    3    3  502    0 -0.12844607795E+03 -0.28621254343E+02  0.36919640602E+03  0.39194841160E+03  0.00000000000E+00 0. -1.
         -3    1    3    3    0  502 -0.41520870071E+03  0.33933486866E+02  0.94254479161E+03  0.10305049398E+04  0.00000000000E+00 0.  1.
         11    1    5    5    0    0  0.10501869318E+03 -0.75304180396E+02 -0.12519376087E+03  0.17992532691E+03  0.00000000000E+00 0.  1.
        -11    1    5    5    0    0  0.56916157090E+03 -0.18943476219E+03 -0.47734854239E+03  0.76661075771E+03  0.00000000000E+00 0. -1.
          3    1    6    6  503    0 -0.73688400964E+02  0.14170824137E+03 -0.73459558304E+02  0.17580532647E+03  0.00000000000E+00 0. -1.
         -3    1    6    6    0  503 -0.56837084453E+02  0.11771846870E+03  0.13031229196E+02  0.13136934565E+03  0.00000000000E+00 0.  1.
<mgrwt>
<rscale>  0 0.25963342E+04</rscale>
<asrwt>0</asrwt>
<pdfrwt beam="1">  1        2 0.25576421E+00 0.25963342E+04</pdfrwt>
<pdfrwt beam="2">  1       -1 0.15595335E+00 0.25963342E+04</pdfrwt>
<totfact> 0.32530755E+00</totfact>
</mgrwt>
</event>
<event>
12    6  0.1556619E-007  0.1166466E+04  0.7818608E-02  0.9142726E-01
          2   -1    0    0  501    0  0.00000000000E+00  0.00000000000E+00  0.20320741680E+04  0.20320741680E+04  0.00000000000E+00 0. -1.
         -1   -1    0    0    0  501 -0.00000000000E+00 -0.00000000000E+00 -0.16739578586E+03  0.16739578586E+03  0.00000000000E+00 0.  1.
         24    2    1    2    0    0  0.18391511107E+03  0.37289829816E+02  0.51433032425E+03  0.55322638850E+03  0.79425782987E+02 0.  0.
        254    2    1    2    0    0 -0.18391511107E+03 -0.37289829816E+02  0.13503480579E+04  0.16462435654E+04  0.92274736500E+03 0.  0.
         23    2    4    4    0    0  0.22611199690E+03 -0.29519259984E+03  0.90143263844E+03  0.97951541683E+03  0.92759603357E+02 0.  0.
         23    2    4    4    0    0 -0.41002710796E+03  0.25790277003E+03  0.44891541948E+03  0.66672814857E+03  0.91462025995E+02 0.  0.
          4    1    3    3  502    0  0.17149143355E+03  0.47440620345E+02  0.40018143001E+03  0.43795559268E+03  0.00000000000E+00 0. -1.
         -3    1    3    3    0  502  0.12423677517E+02 -0.10150790529E+02  0.11414889424E+03  0.11527079582E+03  0.00000000000E+00 0.  1.
         11    1    5    5    0    0  0.66141410611E+02 -0.35934872234E+02  0.13174139168E+03  0.15172934958E+03  0.00000000000E+00 0.  1.
        -11    1    5    5    0    0  0.15997058629E+03 -0.25925772761E+03  0.76969124676E+03  0.82778606726E+03  0.00000000000E+00 0. -1.
          4    1    6    6  503    0 -0.34156307326E+03  0.24388200386E+03  0.41007416228E+03  0.58677472968E+03  0.00000000000E+00 0. -1.
         -4    1    6    6    0  503 -0.68464034700E+02  0.14020766171E+02  0.38841257195E+02  0.79953418888E+02  0.00000000000E+00 0.  1.
<mgrwt>
<rscale>  0 0.11664659E+04</rscale>
<asrwt>0</asrwt>
<pdfrwt beam="1">  1        2 0.31262678E+00 0.11664659E+04</pdfrwt>
<pdfrwt beam="2">  1       -1 0.25753199E-01 0.11664659E+04</pdfrwt>
<totfact> 0.96308718E+01</totfact>
</mgrwt>
</event>
<event>
12    6  0.1556619E-007  0.1742557E+04  0.7818608E-02  0.8737458E-01
          2   -1    0    0  501    0  0.00000000000E+00  0.00000000000E+00  0.28618145635E+03  0.28618145635E+03  0.00000000000E+00 0. -1.
         -1   -1    0    0    0  501 -0.00000000000E+00 -0.00000000000E+00 -0.26526040430E+04  0.26526040430E+04  0.00000000000E+00 0.  1.
         24    2    1    2    0    0  0.34028474541E+03  0.34565191266E+03 -0.18276804413E+03  0.52475095251E+03  0.81795180273E+02 0.  0.
        254    2    1    2    0    0 -0.34028474541E+03 -0.34565191266E+03 -0.21836545425E+04  0.24140345468E+04  0.90771508725E+03 0.  0.
         23    2    4    4    0    0 -0.20312703141E+03  0.23754426048E+03 -0.32689669048E+03  0.46121804294E+03  0.90403375590E+02 0.  0.
         23    2    4    4    0    0 -0.13715771400E+03 -0.58319617314E+03 -0.18567578520E+04  0.19528165039E+04  0.83741040805E+02 0.  0.
          2    1    3    3  502    0  0.81225054751E+02  0.66105497304E+02 -0.67555660497E+01  0.10494324164E+03  0.00000000000E+00 0. -1.
         -1    1    3    3    0  502  0.25905969066E+03  0.27954641536E+03 -0.17601247808E+03  0.41980771087E+03  0.00000000000E+00 0.  1.
         11    1    5    5    0    0 -0.17448705390E+02  0.79019574031E+02 -0.90016536109E+02  0.12104349290E+03  0.00000000000E+00 0.  1.
        -11    1    5    5    0    0 -0.18567832602E+03  0.15852468645E+03 -0.23688015437E+03  0.34017455005E+03  0.00000000000E+00 0. -1.
          4    1    6    6  503    0 -0.10805956144E+03 -0.54025700032E+03 -0.16456751750E+04  0.17354541990E+04  0.00000000000E+00 0. -1.
         -4    1    6    6    0  503 -0.29098152566E+02 -0.42939172824E+02 -0.21108267706E+03  0.21736230492E+03  0.00000000000E+00 0.  1.
<mgrwt>
<rscale>  0 0.17425568E+04</rscale>
<asrwt>0</asrwt>
<pdfrwt beam="1">  1        2 0.44027914E-01 0.17425568E+04</pdfrwt>
<pdfrwt beam="2">  1       -1 0.40809295E+00 0.17425568E+04</pdfrwt>
<totfact> 0.79379473E-01</totfact>
</mgrwt>
</event>
<event>
12    6  0.1556619E-007  0.1911051E+04  0.7818608E-02  0.8649375E-01
         -1   -1    0    0    0  501 -0.00000000000E+00  0.00000000000E+00  0.12116718933E+04  0.12116718933E+04  0.00000000000E+00 0.  1.
          2   -1    0    0  501    0  0.00000000000E+00 -0.00000000000E+00 -0.75352800371E+03  0.75352800371E+03  0.00000000000E+00 0. -1.
         24    2    1    2    0    0 -0.29929151707E+03  0.65416021469E+03  0.33555853842E+03  0.79785572467E+03  0.80456360971E+02 0.  0.
        254    2    1    2    0    0  0.29929151707E+03 -0.65416021469E+03  0.12258535122E+03  0.11673441724E+04  0.91113349724E+03 0.  0.
         23    2    4    4    0    0 -0.84985706688E+02  0.14082117519E+03 -0.14831676239E+03  0.23917770293E+03  0.90304694496E+02 0.  0.
         23    2    4    4    0    0  0.38427722376E+03 -0.79498138988E+03  0.27090211360E+03  0.92816646945E+03  0.91872982488E+02 0.  0.
          2    1    3    3  502    0 -0.14981866771E+03  0.24294612119E+03  0.15196832558E+03  0.32336175249E+03  0.00000000000E+00 0. -1.
         -1    1    3    3    0  502 -0.14947284936E+03  0.41121409350E+03  0.18359021284E+03  0.47449397219E+03  0.00000000000E+00 0.  1.
         11    1    5    5    0    0 -0.80360679050E+02  0.12500929464E+03 -0.16046371180E+03  0.21870931688E+03  0.00000000000E+00 0.  1.
        -11    1    5    5    0    0 -0.46250276381E+01  0.15811880550E+02  0.12146949416E+02  0.20468386046E+02  0.00000000000E+00 0. -1.
          2    1    6    6  503    0  0.11947233567E+03 -0.23540903768E+03  0.37869091528E+02  0.26669293599E+03  0.00000000000E+00 0. -1.
         -2    1    6    6    0  503  0.26480488809E+03 -0.55957235220E+03  0.23303302208E+03  0.66147353347E+03  0.00000000000E+00 0.  1.
<mgrwt>
<rscale>  0 0.19110507E+04</rscale>
<asrwt>0</asrwt>
<pdfrwt beam="1">  1        2 0.11592739E+00 0.19110507E+04</pdfrwt>
<pdfrwt beam="2">  1       -1 0.18641106E+00 0.19110507E+04</pdfrwt>
<totfact> 0.74563134E+00</totfact>
</mgrwt>
</event>
<event>
12    6  0.1556619E-007  0.1516831E+04  0.7818608E-02  0.8873337E-01
          2   -1    0    0  501    0  0.00000000000E+00  0.00000000000E+00  0.29929382131E+03  0.29929382131E+03  0.00000000000E+00 0. -1.
         -1   -1    0    0    0  501 -0.00000000000E+00 -0.00000000000E+00 -0.19218383550E+04  0.19218383550E+04  0.00000000000E+00 0.  1.
         24    2    1    2    0    0  0.19052962731E+03  0.25104923570E+03  0.13031979369E+02  0.32545050243E+03  0.80130764500E+02 0.  0.
        254    2    1    2    0    0 -0.19052962731E+03 -0.25104923570E+03 -0.16355765131E+04  0.18956816739E+04  0.90508078148E+03 0.  0.
         23    2    4    4    0    0  0.34026560289E+02 -0.39613985755E+03 -0.15455234570E+04  0.15988521173E+04  0.97983382251E+02 0.  0.
         23    2    4    4    0    0 -0.22455618760E+03  0.14509062185E+03 -0.90053056082E+02  0.29682955664E+03  0.92311769819E+02 0.  0.
          2    1    3    3  502    0  0.18742892673E+03  0.20766396824E+03 -0.10205127415E+01  0.27974089391E+03  0.00000000000E+00 0. -1.
         -1    1    3    3    0  502  0.31007005789E+01  0.43385267458E+02  0.14052492111E+02  0.45709608519E+02  0.00000000000E+00 0.  1.
         11    1    5    5    0    0  0.54726289298E+02 -0.35591299850E+03 -0.12882426772E+04  0.13376240969E+04  0.00000000000E+00 0.  1.
        -11    1    5    5    0    0 -0.20699729009E+02 -0.40226859054E+02 -0.25728077982E+03  0.26122802039E+03  0.00000000000E+00 0. -1.
          1    1    6    6  503    0 -0.17787381937E+01 -0.10530640709E+02 -0.45142930189E+00  0.10689344775E+02  0.00000000000E+00 0. -1.
         -1    1    6    6    0  503 -0.22277744940E+03  0.15562126256E+03 -0.89601626780E+02  0.28614021186E+03  0.00000000000E+00 0.  1.
<mgrwt>
<rscale>  0 0.15168314E+04</rscale>
<asrwt>0</asrwt>
<pdfrwt beam="1">  1        2 0.46045204E-01 0.15168314E+04</pdfrwt>
<pdfrwt beam="2">  1       -1 0.29566744E+00 0.15168314E+04</pdfrwt>
<totfact> 0.42949083E+00</totfact>
</mgrwt>
</event>
<event>
12    6  0.1556619E-007  0.2052657E+04  0.7818608E-02  0.8582390E-01
          2   -1    0    0  501    0  0.00000000000E+00  0.00000000000E+00  0.96637138605E+03  0.96637138605E+03  0.00000000000E+00 0. -1.
         -1   -1    0    0    0  501 -0.00000000000E+00 -0.00000000000E+00 -0.10900059716E+04  0.10900059716E+04  0.00000000000E+00 0.  1.
         24    2    1    2    0    0  0.16949932196E+02 -0.68962515027E+03 -0.50646915971E+03  0.85952266769E+03  0.79987864310E+02 0.  0.
        254    2    1    2    0    0 -0.16949932196E+02  0.68962515027E+03  0.38283457418E+03  0.11968546899E+04  0.90001593850E+03 0.  0.
         23    2    4    4    0    0  0.31424228721E+03 -0.18845930893E+02  0.14184318020E+02  0.32758644208E+03  0.89489094160E+02 0.  0.
         23    2    4    4    0    0 -0.33119221940E+03  0.70847108117E+03  0.36865025616E+03  0.86926824787E+03  0.90026198062E+02 0.  0.
          4    1    3    3  502    0  0.24349708487E+02 -0.35487876750E+03 -0.21526435547E+03  0.41577709252E+03  0.00000000000E+00 0. -1.
         -1    1    3    3    0  502 -0.73997762912E+01 -0.33474638277E+03 -0.29120480424E+03  0.44374557517E+03  0.00000000000E+00 0.  1.
         11    1    5    5    0    0  0.31634375626E+03 -0.86800754847E+01  0.16707025179E+02  0.31690351927E+03  0.00000000000E+00 0. -1.
        -11    1    5    5    0    0 -0.21014690488E+01 -0.10165855409E+02 -0.25227071595E+01  0.10682922810E+02  0.00000000000E+00 0.  1.
          3    1    6    6  503    0 -0.29226995019E+03  0.65087741918E+03  0.36016959009E+03  0.79924043455E+03  0.00000000000E+00 0. -1.
         -3    1    6    6    0  503 -0.38922269213E+02  0.57593661986E+02  0.84806660692E+01  0.70027813322E+02  0.00000000000E+00 0.  1.
<mgrwt>
<rscale>  0 0.20526574E+04</rscale>
<asrwt>0</asrwt>
<pdfrwt beam="1">  1        2 0.14867252E+00 0.20526574E+04</pdfrwt>
<pdfrwt beam="2">  1       -1 0.16769323E+00 0.20526574E+04</pdfrwt>
<totfact> 0.71528300E+00</totfact>
</mgrwt>
</event>
<event>
12    6  0.1556619E-007  0.1425490E+04  0.7818608E-02  0.8935572E-01
         -1   -1    0    0    0  501 -0.00000000000E+00  0.00000000000E+00  0.60488679468E+03  0.60488679468E+03  0.00000000000E+00 0.  1.
          2   -1    0    0  501    0  0.00000000000E+00 -0.00000000000E+00 -0.83983546151E+03  0.83983546151E+03  0.00000000000E+00 0. -1.
         24    2    1    2    0    0  0.32503608920E+03 -0.27290570247E+03 -0.13922615978E+03  0.45395009840E+03  0.80998682385E+02 0.  0.
        254    2    1    2    0    0 -0.32503608920E+03  0.27290570247E+03 -0.95722507053E+02  0.99077215779E+03  0.89013520802E+03 0.  0.
         23    2    4    4    0    0 -0.92536081672E+02  0.19848464504E+02  0.37628720683E+03  0.39990023102E+03  0.96805189900E+02 0.  0.
         23    2    4    4    0    0 -0.23250000753E+03  0.25305723796E+03 -0.47200971388E+03  0.59087192677E+03  0.90786808815E+02 0.  0.
          4    1    3    3  502    0  0.26134725612E+03 -0.18918796634E+03 -0.76873464334E+02  0.33166851585E+03  0.00000000000E+00 0. -1.
         -3    1    3    3    0  502  0.63688833088E+02 -0.83717736129E+02 -0.62352695441E+02  0.12228158255E+03  0.00000000000E+00 0.  1.
         11    1    5    5    0    0 -0.19353901038E+02  0.51889494133E+02  0.16207571232E+03  0.17127647127E+03  0.00000000000E+00 0. -1.
        -11    1    5    5    0    0 -0.73182180634E+02 -0.32041029628E+02  0.21421149451E+03  0.22862375975E+03  0.00000000000E+00 0.  1.
          3    1    6    6  503    0  0.80123789955E+01  0.13813295417E+02 -0.17085390839E+02  0.23386233719E+02  0.00000000000E+00 0. -1.
         -3    1    6    6    0  503 -0.24051238653E+03  0.23924394254E+03 -0.45492432304E+03  0.56748569305E+03  0.00000000000E+00 0.  1.
<mgrwt>
<rscale>  0 0.14254899E+04</rscale>
<asrwt>0</asrwt>
<pdfrwt beam="1">  1        2 0.12920546E+00 0.14254899E+04</pdfrwt>
<pdfrwt beam="2">  1       -1 0.93059506E-01 0.14254899E+04</pdfrwt>
<totfact> 0.40142987E+01</totfact>
</mgrwt>
</event>
<event>
12    6  0.1556619E-007  0.1412455E+04  0.7818608E-02  0.8944852E-01
          2   -1    0    0  501    0  0.00000000000E+00  0.00000000000E+00  0.14244767000E+04  0.14244767000E+04  0.00000000000E+00 0. -1.
         -1   -1    0    0    0  501 -0.00000000000E+00 -0.00000000000E+00 -0.35013374172E+03  0.35013374172E+03  0.00000000000E+00 0.  1.
         24    2    1    2    0    0 -0.26784037081E+03  0.16482739533E+03  0.66560305378E+03  0.74042074465E+03  0.79302707572E+02 0.  0.
        254    2    1    2    0    0  0.26784037081E+03 -0.16482739533E+03  0.40873990453E+03  0.10341896971E+04  0.89642260432E+03 0.  0.
         23    2    4    4    0    0  0.19801742568E+03 -0.46459265042E+03  0.48332272047E+03  0.70505687288E+03  0.91908161623E+02 0.  0.
         23    2    4    4    0    0  0.69822945131E+02  0.29976525508E+03 -0.74582815939E+02  0.32913282422E+03  0.89617898453E+02 0.  0.
          2    1    3    3  502    0 -0.16900929193E+03  0.13116901524E+03  0.50980394594E+03  0.55287386863E+03  0.00000000000E+00 0. -1.
         -1    1    3    3    0  502 -0.98831078887E+02  0.33658380094E+02  0.15579910784E+03  0.18754687603E+03  0.00000000000E+00 0.  1.
         11    1    5    5    0    0  0.11488683366E+03 -0.16488862980E+03  0.21486225953E+03  0.29419897239E+03  0.00000000000E+00 0.  1.
        -11    1    5    5    0    0  0.83130592026E+02 -0.29970402061E+03  0.26846046094E+03  0.41085790049E+03  0.00000000000E+00 0. -1.
          3    1    6    6  503    0  0.61696569479E+02  0.81820972454E+02 -0.24047956176E+02  0.10525893033E+03  0.00000000000E+00 0. -1.
         -3    1    6    6    0  503  0.81263756520E+01  0.21794428263E+03 -0.50534859764E+02  0.22387389389E+03  0.00000000000E+00 0.  1.
<mgrwt>
<rscale>  0 0.14124551E+04</rscale>
<asrwt>0</asrwt>
<pdfrwt beam="1">  1        2 0.21915026E+00 0.14124551E+04</pdfrwt>
<pdfrwt beam="2">  1       -1 0.53866730E-01 0.14124551E+04</pdfrwt>
<totfact> 0.54011739E+01</totfact>
</mgrwt>
</event>
<event>
12    6  0.1556619E-007  0.1912970E+04  0.7818608E-02  0.8648427E-01
          2   -1    0    0  501    0  0.00000000000E+00  0.00000000000E+00  0.14758650621E+04  0.14758650621E+04  0.00000000000E+00 0. -1.
         -1   -1    0    0    0  501 -0.00000000000E+00 -0.00000000000E+00 -0.61988316884E+03  0.61988316884E+03  0.00000000000E+00 0.  1.
         24    2    1    2    0    0 -0.15373523783E+03  0.67201238325E+03  0.48133040443E+01  0.69391587069E+03  0.79125856062E+02 0.  0.
        254    2    1    2    0    0  0.15373523783E+03 -0.67201238325E+03  0.85116858921E+03  0.14018323603E+04  0.87487760996E+03 0.  0.
         23    2    4    4    0    0 -0.33123539076E+03 -0.22195969125E+03  0.16012759901E+03  0.44071012146E+03  0.97987624502E+02 0.  0.
         23    2    4    4    0    0  0.48497062859E+03 -0.45005269200E+03  0.69104099020E+03  0.96112223880E+03  0.92056350172E+02 0.  0.
          2    1    3    3  502    0 -0.30447165618E+02  0.44262949939E+02  0.69447493277E+01  0.54170731717E+02  0.00000000000E+00 0. -1.
         -1    1    3    3    0  502 -0.12328807221E+03  0.62774943332E+03 -0.21314452834E+01  0.63974513897E+03  0.00000000000E+00 0.  1.
         11    1    5    5    0    0 -0.21998297612E+03 -0.93123315952E+02  0.11186843118E+03  0.26377833052E+03  0.00000000000E+00 0. -1.
        -11    1    5    5    0    0 -0.11125241464E+03 -0.12883637530E+03  0.48259167826E+02  0.17693179093E+03  0.00000000000E+00 0.  1.
          3    1    6    6  503    0  0.19808090516E+03 -0.23577361872E+03  0.28280382659E+03  0.41809478424E+03  0.00000000000E+00 0. -1.
         -3    1    6    6    0  503  0.28688972343E+03 -0.21427907328E+03  0.40823716360E+03  0.54302745455E+03  0.00000000000E+00 0.  1.
<mgrwt>
<rscale>  0 0.19129704E+04</rscale>
<asrwt>0</asrwt>
<pdfrwt beam="1">  1        2 0.22705616E+00 0.19129704E+04</pdfrwt>
<pdfrwt beam="2">  1       -1 0.95366641E-01 0.19129704E+04</pdfrwt>
<totfact> 0.14824526E+01</totfact>
</mgrwt>
</event>
<event>
12    6  0.1556619E-007  0.1605899E+04  0.7818608E-02  0.8816932E-01
          2   -1    0    0  501    0  0.00000000000E+00  0.00000000000E+00  0.28428943134E+04  0.28428943134E+04  0.00000000000E+00 0. -1.
         -1   -1    0    0    0  501 -0.00000000000E+00 -0.00000000000E+00 -0.22678570884E+03  0.22678570884E+03  0.00000000000E+00 0.  1.
         24    2    1    2    0    0  0.50364591306E+03  0.12467025508E+03  0.57525746508E+03  0.77877345722E+03  0.79781378100E+02 0.  0.
        254    2    1    2    0    0 -0.50364591306E+03 -0.12467025508E+03  0.20408511395E+04  0.22909065650E+04  0.90220709258E+03 0.  0.
         23    2    4    4    0    0  0.26954666487E+02 -0.87327654598E+02  0.15661470429E+04  0.15720029727E+04  0.10012049130E+03 0.  0.
         23    2    4    4    0    0 -0.53060057955E+03 -0.37342600477E+02  0.47470409660E+03  0.71890359237E+03  0.92449721329E+02 0.  0.
          4    1    3    3  502    0  0.50370184053E+03  0.12945230191E+03  0.57130682586E+03  0.77257034107E+03  0.00000000000E+00 0. -1.
         -3    1    3    3    0  502 -0.55927463679E-01 -0.47820468301E+01  0.39506392197E+01  0.62031161532E+01  0.00000000000E+00 0.  1.
         11    1    5    5    0    0 -0.20500175544E+02 -0.65832371536E+02  0.12211165534E+04  0.12230616482E+04  0.00000000000E+00 0.  1.
        -11    1    5    5    0    0  0.47454842031E+02 -0.21495283062E+02  0.34503048954E+03  0.34894132449E+03  0.00000000000E+00 0. -1.
          3    1    6    6  503    0 -0.21397140528E+03 -0.82420282263E+01  0.13264271352E+03  0.25188446311E+03  0.00000000000E+00 0. -1.
         -3    1    6    6    0  503 -0.31662917426E+03 -0.29100572251E+02  0.34206138308E+03  0.46701912926E+03  0.00000000000E+00 0.  1.
<mgrwt>
<rscale>  0 0.16058989E+04</rscale>
<asrwt>0</asrwt>
<pdfrwt beam="1">  1        2 0.43736833E+00 0.16058989E+04</pdfrwt>
<pdfrwt beam="2">  1       -1 0.34890111E-01 0.16058989E+04</pdfrwt>
<totfact> 0.18631839E+01</totfact>
</mgrwt>
</event>
<event>
12    6  0.1556619E-007  0.1667654E+04  0.7818608E-02  0.8780030E-01
          2   -1    0    0  501    0  0.00000000000E+00  0.00000000000E+00  0.29982856305E+04  0.29982856305E+04  0.00000000000E+00 0. -1.
         -1   -1    0    0    0  501 -0.00000000000E+00 -0.00000000000E+00 -0.23188845063E+03  0.23188845063E+03  0.00000000000E+00 0.  1.
         24    2    1    2    0    0 -0.34502096129E+03 -0.18943993548E+03  0.18923795291E+04  0.19345678005E+04  0.80779574579E+02 0.  0.
        254    2    1    2    0    0  0.34502096129E+03  0.18943993548E+03  0.87401765082E+03  0.12956062807E+04  0.87164317685E+03 0.  0.
         23    2    4    4    0    0  0.57666906375E+03 -0.68991324042E+02  0.45138970579E+03  0.74119837645E+03  0.91188567774E+02 0.  0.
         23    2    4    4    0    0 -0.23164810246E+03  0.25843125952E+03  0.42262794504E+03  0.55440790424E+03  0.91138274570E+02 0.  0.
          4    1    3    3  502    0 -0.21402467762E+03 -0.13208490857E+03  0.13738547410E+04  0.13966853028E+04  0.00000000000E+00 0. -1.
         -3    1    3    3    0  502 -0.13099628367E+03 -0.57355026909E+02  0.51852478811E+03  0.53788249770E+03  0.00000000000E+00 0.  1.
         11    1    5    5    0    0  0.37070966524E+03 -0.46063390594E+00  0.27729109472E+03  0.46294299789E+03  0.00000000000E+00 0.  1.
        -11    1    5    5    0    0  0.20595939851E+03 -0.68530690136E+02  0.17409861107E+03  0.27825537857E+03  0.00000000000E+00 0. -1.
          1    1    6    6  503    0 -0.98860009210E+02  0.17598681845E+03  0.22130269819E+03  0.29953221182E+03  0.00000000000E+00 0. -1.
         -1    1    6    6    0  503 -0.13278809325E+03  0.82444441067E+02  0.20132524685E+03  0.25487569242E+03  0.00000000000E+00 0.  1.
<mgrwt>
<rscale>  0 0.16676544E+04</rscale>
<asrwt>0</asrwt>
<pdfrwt beam="1">  1        2 0.46127468E+00 0.16676544E+04</pdfrwt>
<pdfrwt beam="2">  1       -1 0.35675148E-01 0.16676544E+04</pdfrwt>
<totfact> 0.14288944E+01</totfact>
</mgrwt>
</event>
<event>
12    6  0.1556619E-007  0.2093117E+04  0.7818608E-02  0.8564281E-01
         -1   -1    0    0    0  501 -0.00000000000E+00  0.00000000000E+00  0.68070440496E+03  0.68070440496E+03  0.00000000000E+00 0.  1.
          2   -1    0    0  501    0  0.00000000000E+00 -0.00000000000E+00 -0.16090466356E+04  0.16090466356E+04  0.00000000000E+00 0. -1.
         24    2    1    2    0    0 -0.30473296683E+02  0.50329961292E+03  0.37164572065E+03  0.63126675293E+03  0.78345705061E+02 0.  0.
        254    2    1    2    0    0  0.30473296683E+02 -0.50329961292E+03 -0.12999879512E+04  0.16584842876E+04  0.89797680183E+03 0.  0.
         23    2    4    4    0    0  0.29481493960E+03  0.52576623521E+01 -0.90714672548E+03  0.95812183440E+03  0.90215167075E+02 0.  0.
         23    2    4    4    0    0 -0.26434164291E+03 -0.50855727527E+03 -0.39284122576E+03  0.70036245319E+03  0.87614672162E+02 0.  0.
          2    1    3    3  502    0  0.16022203173E+02  0.27856400321E+03  0.17778563656E+03  0.33085094446E+03  0.00000000000E+00 0. -1.
         -1    1    3    3    0  502 -0.46495499857E+02  0.22473560970E+03  0.19386008409E+03  0.30041580847E+03  0.00000000000E+00 0.  1.
         11    1    5    5    0    0  0.23078562707E+03 -0.24776961965E+02 -0.60983486983E+03  0.65251396304E+03  0.00000000000E+00 0. -1.
        -11    1    5    5    0    0  0.64029312521E+02  0.30034624318E+02 -0.29731185566E+03  0.30560787136E+03  0.00000000000E+00 0.  1.
          2    1    6    6  503    0 -0.19833614461E+03 -0.44918706352E+03 -0.33412231002E+03  0.59392252218E+03  0.00000000000E+00 0. -1.
         -2    1    6    6    0  503 -0.66005498302E+02 -0.59370211745E+02 -0.58718915741E+02  0.10643993101E+03  0.00000000000E+00 0.  1.
<mgrwt>
<rscale>  0 0.20931174E+04</rscale>
<asrwt>0</asrwt>
<pdfrwt beam="1">  1        2 0.24754563E+00 0.20931174E+04</pdfrwt>
<pdfrwt beam="2">  1       -1 0.10472376E+00 0.20931174E+04</pdfrwt>
<totfact> 0.99167884E+00</totfact>
</mgrwt>
</event>
<event>
12    6  0.1556619E-007  0.1214180E+04  0.7818608E-02  0.9100535E-01
         -1   -1    0    0    0  501 -0.00000000000E+00  0.00000000000E+00  0.10961586778E+03  0.10961586778E+03  0.00000000000E+00 0.  1.
          2   -1    0    0  501    0  0.00000000000E+00 -0.00000000000E+00 -0.33622691904E+04  0.33622691904E+04  0.00000000000E+00 0. -1.
         24    2    1    2    0    0 -0.11464057509E+03  0.17481888569E+03 -0.30933268914E+03  0.38040453243E+03  0.72916332007E+02 0.  0.
        254    2    1    2    0    0  0.11464057509E+03 -0.17481888569E+03 -0.29433206335E+04  0.30914805258E+04  0.92217752375E+03 0.  0.
         23    2    4    4    0    0 -0.15168525727E+03 -0.74253135890E+02 -0.26954362739E+04  0.27024312822E+04  0.96105063844E+02 0.  0.
         23    2    4    4    0    0  0.26632583236E+03 -0.10056574980E+03 -0.24788435963E+03  0.38904924352E+03  0.94179292394E+02 0.  0.
          4    1    3    3  502    0  0.75218850767E-01  0.26176156266E+01 -0.43298223108E+02  0.43377340787E+02  0.00000000000E+00 0. -1.
         -3    1    3    3    0  502 -0.11471579394E+03  0.17220127007E+03 -0.26603446603E+03  0.33702719164E+03  0.00000000000E+00 0.  1.
         11    1    5    5    0    0 -0.68410650151E+02  0.40074045402E+01 -0.60396334399E+03  0.60783862762E+03  0.00000000000E+00 0. -1.
        -11    1    5    5    0    0 -0.83274607117E+02 -0.78260540431E+02 -0.20914729299E+04  0.20945926546E+04  0.00000000000E+00 0.  1.
          1    1    6    6  503    0  0.21771859997E+03 -0.58914251208E+02 -0.23099197746E+03  0.32284604910E+03  0.00000000000E+00 0. -1.
         -1    1    6    6    0  503  0.48607232388E+02 -0.41651498595E+02 -0.16892382173E+02  0.66203194418E+02  0.00000000000E+00 0.  1.
<mgrwt>
<rscale>  0 0.12141796E+04</rscale>
<asrwt>0</asrwt>
<pdfrwt beam="1">  1        2 0.51727224E+00 0.12141796E+04</pdfrwt>
<pdfrwt beam="2">  1       -1 0.16863978E-01 0.12141796E+04</pdfrwt>
<totfact> 0.31516608E+01</totfact>
</mgrwt>
</event>
<event>
12    6  0.1556619E-007  0.2261533E+04  0.7818608E-02  0.8493244E-01
          2   -1    0    0  501    0  0.00000000000E+00  0.00000000000E+00  0.21689642235E+04  0.21689642235E+04  0.00000000000E+00 0. -1.
         -1   -1    0    0    0  501 -0.00000000000E+00 -0.00000000000E+00 -0.58951332689E+03  0.58951332689E+03  0.00000000000E+00 0.  1.
         24    2    1    2    0    0 -0.74001489423E+03  0.58164240561E+03  0.45922778268E+03  0.10507909534E+04  0.85682785026E+02 0.  0.
        254    2    1    2    0    0  0.74001489423E+03 -0.58164240561E+03  0.11202231140E+04  0.17076865970E+04  0.88054741890E+03 0.  0.
         23    2    4    4    0    0  0.68235690492E+03 -0.64688659569E+03  0.48905325647E+03  0.10641166411E+04  0.95383042875E+02 0.  0.
         23    2    4    4    0    0  0.57657989312E+02  0.65244190081E+02  0.63116985749E+03  0.64356995591E+03  0.90695375158E+02 0.  0.
          4    1    3    3  502    0 -0.46980912617E+03  0.37816397965E+03  0.33875496841E+03  0.69172504592E+03  0.00000000000E+00 0. -1.
         -3    1    3    3    0  502 -0.27020576806E+03  0.20347842596E+03  0.12047281427E+03  0.35906590747E+03  0.00000000000E+00 0.  1.
         11    1    5    5    0    0  0.36958118609E+03 -0.28853389533E+03  0.26094920174E+03  0.53659719320E+03  0.00000000000E+00 0.  1.
        -11    1    5    5    0    0  0.31277571883E+03 -0.35835270036E+03  0.22810405473E+03  0.52751944792E+03  0.00000000000E+00 0. -1.
          2    1    6    6  503    0  0.36000360853E+02  0.87154024273E+02  0.44657954357E+03  0.45642648769E+03  0.00000000000E+00 0. -1.
         -2    1    6    6    0  503  0.21657628459E+02 -0.21909834192E+02  0.18459031392E+03  0.18714346822E+03  0.00000000000E+00 0.  1.
<mgrwt>
<rscale>  0 0.22615334E+04</rscale>
<asrwt>0</asrwt>
<pdfrwt beam="1">  1        2 0.33368680E+00 0.22615334E+04</pdfrwt>
<pdfrwt beam="2">  1       -1 0.90694359E-01 0.22615334E+04</pdfrwt>
<totfact> 0.66063340E+00</totfact>
</mgrwt>
</event>
<event>
12    6  0.1556619E-007  0.3062456E+04  0.7818608E-02  0.8226118E-01
         -1   -1    0    0    0  501 -0.00000000000E+00  0.00000000000E+00  0.15890150166E+04  0.15890150166E+04  0.00000000000E+00 0.  1.
          2   -1    0    0  501    0  0.00000000000E+00 -0.00000000000E+00 -0.14755425417E+04  0.14755425417E+04  0.00000000000E+00 0. -1.
         24    2    1    2    0    0 -0.28174323922E+03 -0.13678678199E+04 -0.18551793816E+02  0.13989547173E+04  0.79300104371E+02 0.  0.
        254    2    1    2    0    0  0.28174323922E+03  0.13678678199E+04  0.13202426871E+03  0.16656028410E+04  0.89797594119E+03 0.  0.
         23    2    4    4    0    0  0.25066895205E+03  0.13243883875E+04  0.37231383073E+03  0.14012026452E+04  0.88947961166E+02 0.  0.
         23    2    4    4    0    0  0.31074287170E+02  0.43479432346E+02 -0.24028956202E+03  0.26440019581E+03  0.96500350107E+02 0.  0.
          2    1    3    3  502    0 -0.26540868515E+03 -0.13190467329E+04 -0.31566738813E+02  0.13458538230E+04  0.00000000000E+00 0. -1.
         -1    1    3    3    0  502 -0.16334554071E+02 -0.48821086963E+02  0.13014944996E+02  0.53100894364E+02  0.00000000000E+00 0.  1.
         11    1    5    5    0    0  0.19458212698E+02  0.96242924642E+02  0.51893385789E+02  0.11105965097E+03  0.00000000000E+00 0. -1.
        -11    1    5    5    0    0  0.23121073935E+03  0.12281454629E+04  0.32042044495E+03  0.12901429942E+04  0.00000000000E+00 0.  1.
          4    1    6    6  503    0  0.19058658416E+02  0.33689121304E+02 -0.20004006879E+02  0.43570054465E+02  0.00000000000E+00 0. -1.
         -4    1    6    6    0  503  0.12015628754E+02  0.97903110414E+01 -0.22028555514E+03  0.22083014135E+03  0.00000000000E+00 0.  1.
<mgrwt>
<rscale>  0 0.30624560E+04</rscale>
<asrwt>0</asrwt>
<pdfrwt beam="1">  1        2 0.22700655E+00 0.30624560E+04</pdfrwt>
<pdfrwt beam="2">  1       -1 0.24446385E+00 0.30624560E+04</pdfrwt>
<totfact> 0.96309323E-01</totfact>
</mgrwt>
</event>
<event>
12    6  0.1556619E-007  0.2107084E+04  0.7818608E-02  0.8558129E-01
          2   -1    0    0  501    0  0.00000000000E+00  0.00000000000E+00  0.23416265370E+04  0.23416265370E+04  0.00000000000E+00 0. -1.
         -1   -1    0    0    0  501 -0.00000000000E+00 -0.00000000000E+00 -0.47400833682E+03  0.47400833682E+03  0.00000000000E+00 0.  1.
         24    2    1    2    0    0  0.58374896891E+03 -0.57741485705E+03  0.10983043416E+04  0.13738237252E+04  0.83357215030E+02 0.  0.
        254    2    1    2    0    0 -0.58374896891E+03  0.57741485705E+03  0.76931385863E+03  0.14418111487E+04  0.90155687535E+03 0.  0.
         23    2    4    4    0    0  0.13186209523E+03 -0.30750298666E+02  0.39308121297E+03  0.42570318317E+03  0.91526865675E+02 0.  0.
         23    2    4    4    0    0 -0.71561106414E+03  0.60816515572E+03  0.37623264565E+03  0.10161079655E+04  0.94659083780E+02 0.  0.
          2    1    3    3  502    0  0.46216532417E+03 -0.50123131046E+03  0.91213905958E+03  0.11387832443E+04  0.00000000000E+00 0. -1.
         -1    1    3    3    0  502  0.12158364474E+03 -0.76183546592E+02  0.18616528199E+03  0.23504048089E+03  0.00000000000E+00 0.  1.
         11    1    5    5    0    0  0.14033737239E+03 -0.40182801233E+02  0.38170975678E+03  0.40867049566E+03  0.00000000000E+00 0.  1.
        -11    1    5    5    0    0 -0.84752771641E+01  0.94325025671E+01  0.11371456198E+02  0.17032687508E+02  0.00000000000E+00 0. -1.
          1    1    6    6  503    0 -0.20662559022E+03  0.12217729230E+03  0.10224866849E+03  0.26091419182E+03  0.00000000000E+00 0. -1.
         -1    1    6    6    0  503 -0.50898547392E+03  0.48598786342E+03  0.27398397716E+03  0.75519377367E+03  0.00000000000E+00 0.  1.
<mgrwt>
<rscale>  0 0.21070838E+04</rscale>
<asrwt>0</asrwt>
<pdfrwt beam="1">  1        2 0.36025023E+00 0.21070838E+04</pdfrwt>
<pdfrwt beam="2">  1       -1 0.72924361E-01 0.21070838E+04</pdfrwt>
<totfact> 0.85322273E+00</totfact>
</mgrwt>
</event>
<event>
12    6  0.1556619E-007  0.1465347E+04  0.7818608E-02  0.8907829E-01
         -1   -1    0    0    0  501 -0.00000000000E+00  0.00000000000E+00  0.10577705050E+03  0.10577705050E+03  0.00000000000E+00 0.  1.
          2   -1    0    0  501    0  0.00000000000E+00 -0.00000000000E+00 -0.50749240026E+04  0.50749240026E+04  0.00000000000E+00 0. -1.
         24    2    1    2    0    0 -0.15619541150E+03  0.30599849357E+03 -0.53311044087E+03  0.63920740526E+03  0.79669819437E+02 0.  0.
        254    2    1    2    0    0  0.15619541150E+03 -0.30599849357E+03 -0.44360365113E+04  0.45414936479E+04  0.91033649810E+03 0.  0.
         23    2    4    4    0    0  0.51840404431E+02  0.31297160718E+03 -0.12611002378E+04  0.13038323417E+04  0.94690606555E+02 0.  0.
         23    2    4    4    0    0  0.10435500707E+03 -0.61897010075E+03 -0.31749362735E+04  0.32376613062E+04  0.90644580747E+02 0.  0.
          4    1    3    3  502    0 -0.17856468184E+02  0.12521686403E+01 -0.30516795010E+02  0.35379318252E+02  0.00000000000E+00 0. -1.
         -3    1    3    3    0  502 -0.13833894332E+03  0.30474632493E+03 -0.50259364586E+03  0.60382808700E+03  0.00000000000E+00 0.  1.
         11    1    5    5    0    0  0.60784283401E+02  0.11774989802E+03 -0.42410153636E+03  0.44432182114E+03  0.00000000000E+00 0. -1.
        -11    1    5    5    0    0 -0.89438789703E+01  0.19522170916E+03 -0.83699870146E+03  0.85951052055E+03  0.00000000000E+00 0.  1.
          3    1    6    6  503    0  0.26667458409E+02 -0.30336159476E+02 -0.21570500055E+03  0.21945405709E+03  0.00000000000E+00 0. -1.
         -3    1    6    6    0  503  0.77687548661E+02 -0.58863394128E+03 -0.29592312729E+04  0.30182072491E+04  0.00000000000E+00 0.  1.
<mgrwt>
<rscale>  0 0.14653470E+04</rscale>
<asrwt>0</asrwt>
<pdfrwt beam="1">  1        2 0.78075781E+00 0.14653470E+04</pdfrwt>
<pdfrwt beam="2">  1       -1 0.16273387E-01 0.14653470E+04</pdfrwt>
<totfact> 0.92394992E-01</totfact>
</mgrwt>
</event>
<event>
12    6  0.1556619E-007  0.1064898E+04  0.7818608E-02  0.9240096E-01
         -1   -1    0    0    0  501 -0.00000000000E+00  0.00000000000E+00  0.22389842689E+03  0.22389842689E+03  0.00000000000E+00 0.  1.
          2   -1    0    0  501    0  0.00000000000E+00 -0.00000000000E+00 -0.12662081733E+04  0.12662081733E+04  0.00000000000E+00 0. -1.
         24    2    1    2    0    0 -0.98662247392E+02 -0.44641655451E+02 -0.25755168983E+03  0.29069147957E+03  0.80259248058E+02 0.  0.
        254    2    1    2    0    0  0.98662247392E+02  0.44641655451E+02 -0.78475805660E+03  0.11994151206E+04  0.90056888008E+03 0.  0.
         23    2    4    4    0    0 -0.91261030329E+02 -0.21545239855E+03  0.86268639474E+02  0.26614469915E+03  0.92964568673E+02 0.  0.
         23    2    4    4    0    0  0.18992327772E+03  0.26009405400E+03 -0.87102669608E+03  0.93327042150E+03  0.92662862141E+02 0.  0.
          4    1    3    3  502    0 -0.19803332992E+02 -0.49204537137E+02 -0.13320682350E+03  0.14337822813E+03  0.00000000000E+00 0. -1.
         -3    1    3    3    0  502 -0.78858914400E+02  0.45628816856E+01 -0.12434486632E+03  0.14731325144E+03  0.00000000000E+00 0.  1.
         11    1    5    5    0    0 -0.35265256621E+02 -0.16767306565E+03  0.87782832019E+02  0.19251940387E+03  0.00000000000E+00 0.  1.
        -11    1    5    5    0    0 -0.55995773707E+02 -0.47779332907E+02 -0.15141925454E+01  0.73625295281E+02  0.00000000000E+00 0. -1.
          1    1    6    6  503    0  0.12117281646E+03  0.88910957597E+02 -0.41250455747E+03  0.43903077314E+03  0.00000000000E+00 0. -1.
         -1    1    6    6    0  503  0.68750461258E+02  0.17118309641E+03 -0.45852213860E+03  0.49423964836E+03  0.00000000000E+00 0.  1.
<mgrwt>
<rscale>  0 0.10648982E+04</rscale>
<asrwt>0</asrwt>
<pdfrwt beam="1">  1        2 0.19480126E+00 0.10648982E+04</pdfrwt>
<pdfrwt beam="2">  1       -1 0.34445911E-01 0.10648982E+04</pdfrwt>
<totfact> 0.15648722E+02</totfact>
</mgrwt>
</event>
<event>
12    6  0.1556619E-007  0.1344062E+04  0.7818608E-02  0.8995335E-01
          2   -1    0    0  501    0  0.00000000000E+00  0.00000000000E+00  0.25351547332E+04  0.25351547332E+04  0.00000000000E+00 0. -1.
         -1   -1    0    0    0  501 -0.00000000000E+00 -0.00000000000E+00 -0.17814516459E+03  0.17814516459E+03  0.00000000000E+00 0.  1.
         24    2    1    2    0    0 -0.10308095362E+02 -0.36559330816E+03  0.55451601612E+03  0.66799910216E+03  0.70498684772E+02 0.  0.
        254    2    1    2    0    0  0.10308095362E+02  0.36559330816E+03  0.18024935525E+04  0.20453007956E+04  0.89471091085E+03 0.  0.
         23    2    4    4    0    0 -0.31731734083E+03  0.12538399541E+03  0.14736454557E+04  0.15153093380E+04  0.90111152236E+02 0.  0.
         23    2    4    4    0    0  0.32762543619E+03  0.24020931275E+03  0.32884809677E+03  0.52999145756E+03  0.87811923849E+02 0.  0.
          4    1    3    3  502    0 -0.26178417428E+02 -0.33681661253E+03  0.52189017810E+03  0.62169132052E+03  0.00000000000E+00 0. -1.
         -3    1    3    3    0  502  0.15870322066E+02 -0.28776695636E+02  0.32625838017E+02  0.46307781641E+02  0.00000000000E+00 0.  1.
         11    1    5    5    0    0 -0.15083245551E+03  0.17754256322E+02  0.73469301517E+03  0.75022627906E+03  0.00000000000E+00 0. -1.
        -11    1    5    5    0    0 -0.16648488532E+03  0.10762973909E+03  0.73895244051E+03  0.76508305896E+03  0.00000000000E+00 0.  1.
          1    1    6    6  503    0  0.28633394056E+03  0.24017066119E+03  0.28707424089E+03  0.47125438119E+03  0.00000000000E+00 0. -1.
         -1    1    6    6    0  503  0.41291495634E+02  0.38651563137E-01  0.41773855881E+02  0.58737076372E+02  0.00000000000E+00 0.  1.
<mgrwt>
<rscale>  0 0.13440618E+04</rscale>
<asrwt>0</asrwt>
<pdfrwt beam="1">  1        2 0.39002378E+00 0.13440618E+04</pdfrwt>
<pdfrwt beam="2">  1       -1 0.27406950E-01 0.13440618E+04</pdfrwt>
<totfact> 0.44375159E+01</totfact>
</mgrwt>
</event>
<event>
12    6  0.1556619E-007  0.1809057E+04  0.7818608E-02  0.8701498E-01
         -1   -1    0    0    0  501 -0.00000000000E+00  0.00000000000E+00  0.13068890356E+04  0.13068890356E+04  0.00000000000E+00 0.  1.
          2   -1    0    0  501    0  0.00000000000E+00 -0.00000000000E+00 -0.62604510019E+03  0.62604510019E+03  0.00000000000E+00 0. -1.
         24    2    1    2    0    0 -0.24538660840E+03  0.13853552335E+03  0.89626561354E+03  0.94298522670E+03  0.80761432342E+02 0.  0.
        254    2    1    2    0    0  0.24538660840E+03 -0.13853552335E+03 -0.21542167813E+03  0.98994890909E+03  0.92422165328E+03 0.  0.
         23    2    4    4    0    0 -0.20005363027E+03  0.16212797760E+03 -0.33424271862E+03  0.43165930442E+03  0.91129709994E+02 0.  0.
         23    2    4    4    0    0  0.44544023867E+03 -0.30066350094E+03  0.11882104049E+03  0.55828960467E+03  0.93559050853E+02 0.  0.
          2    1    3    3  502    0 -0.11637405179E+03  0.61927262887E+02  0.29213506093E+03  0.32050085747E+03  0.00000000000E+00 0. -1.
         -1    1    3    3    0  502 -0.12901255661E+03  0.76608260459E+02  0.60413055261E+03  0.62248436923E+03  0.00000000000E+00 0.  1.
         11    1    5    5    0    0 -0.20973643800E+03  0.15427125077E+03 -0.32298950446E+03  0.41486288365E+03  0.00000000000E+00 0. -1.
        -11    1    5    5    0    0  0.96828077304E+01  0.78567268236E+01 -0.11253214160E+02  0.16796420775E+02  0.00000000000E+00 0.  1.
          1    1    6    6  503    0  0.41770581874E+03 -0.28205237280E+03  0.85696355585E+02  0.51124901699E+03  0.00000000000E+00 0. -1.
         -1    1    6    6    0  503  0.27734419925E+02 -0.18611128145E+02  0.33124684903E+02  0.47040587681E+02  0.00000000000E+00 0.  1.
<mgrwt>
<rscale>  0 0.18090566E+04</rscale>
<asrwt>0</asrwt>
<pdfrwt beam="1">  1        2 0.96314631E-01 0.18090566E+04</pdfrwt>
<pdfrwt beam="2">  1       -1 0.20105985E+00 0.18090566E+04</pdfrwt>
<totfact> 0.75079840E+00</totfact>
</mgrwt>
</event>
<event>
12    6  0.1556619E-007  0.1725082E+04  0.7818608E-02  0.8747187E-01
         -1   -1    0    0    0  501 -0.00000000000E+00  0.00000000000E+00  0.15421837029E+04  0.15421837029E+04  0.00000000000E+00 0.  1.
          2   -1    0    0  501    0  0.00000000000E+00 -0.00000000000E+00 -0.48241760188E+03  0.48241760188E+03  0.00000000000E+00 0. -1.
         24    2    1    2    0    0  0.85258986534E+02  0.61369581716E+03  0.40899895549E+03  0.74696861368E+03  0.82403358146E+02 0.  0.
        254    2    1    2    0    0 -0.85258986534E+02 -0.61369581716E+03  0.65076714557E+03  0.12776326912E+04  0.90827075531E+03 0.  0.
         23    2    4    4    0    0  0.20738670690E+03  0.87181548350E+02  0.40869521016E+03  0.47540325337E+03  0.91469174795E+02 0.  0.
         23    2    4    4    0    0 -0.29264569344E+03 -0.70087736551E+03  0.24207193541E+03  0.80222943778E+03  0.90014807375E+02 0.  0.
          4    1    3    3  502    0  0.29468264017E+02  0.13307682121E+03  0.52893202858E+02  0.14620365876E+03  0.00000000000E+00 0. -1.
         -3    1    3    3    0  502  0.55790722517E+02  0.48061899596E+03  0.35610575264E+03  0.60076495492E+03  0.00000000000E+00 0.  1.
         11    1    5    5    0    0  0.18057748637E+03  0.90743586013E+02  0.39790417572E+03  0.44628506590E+03  0.00000000000E+00 0.  1.
        -11    1    5    5    0    0  0.26809220529E+02 -0.35620376630E+01  0.10791034443E+02  0.29118187479E+02  0.00000000000E+00 0. -1.
          2    1    6    6  503    0 -0.74472444138E+02 -0.11802968696E+03  0.72141430887E+02  0.15710359000E+03  0.00000000000E+00 0. -1.
         -2    1    6    6    0  503 -0.21817324930E+03 -0.58284767856E+03  0.16993050452E+03  0.64512584778E+03  0.00000000000E+00 0.  1.
<mgrwt>
<rscale>  0 0.17250815E+04</rscale>
<asrwt>0</asrwt>
<pdfrwt beam="1">  1        2 0.74218093E-01 0.17250815E+04</pdfrwt>
<pdfrwt beam="2">  1       -1 0.23725903E+00 0.17250815E+04</pdfrwt>
<totfact> 0.58892152E+00</totfact>
</mgrwt>
</event>
<event>
12    6  0.1556619E-007  0.2397822E+04  0.7818608E-02  0.8440320E-01
          2   -1    0    0  501    0  0.00000000000E+00  0.00000000000E+00  0.22775418345E+04  0.22775418345E+04  0.00000000000E+00 0. -1.
         -1   -1    0    0    0  501 -0.00000000000E+00 -0.00000000000E+00 -0.63111339629E+03  0.63111339629E+03  0.00000000000E+00 0.  1.
         24    2    1    2    0    0 -0.41050552939E+03 -0.80161508646E+02 -0.43369241539E+03  0.60779083848E+03  0.79874495566E+02 0.  0.
        254    2    1    2    0    0  0.41050552939E+03  0.80161508646E+02  0.20801208537E+04  0.23008643924E+04  0.89001883637E+03 0.  0.
         23    2    4    4    0    0  0.23547389614E+03 -0.39031860521E+03  0.11475715749E+04  0.12381953555E+04  0.91709592878E+02 0.  0.
         23    2    4    4    0    0  0.17503163325E+03  0.47048011385E+03  0.93254927873E+03  0.10626690369E+04  0.87348237036E+02 0.  0.
          4    1    3    3  502    0 -0.62188845687E+02 -0.62164058590E+01 -0.11030057047E+03  0.12677662275E+03  0.00000000000E+00 0. -1.
         -3    1    3    3    0  502 -0.34831668371E+03 -0.73945102787E+02 -0.32339184493E+03  0.48101421573E+03  0.00000000000E+00 0.  1.
         11    1    5    5    0    0  0.22512931505E+03 -0.33792507734E+03  0.10658026840E+04  0.11405314233E+04  0.00000000000E+00 0.  1.
        -11    1    5    5    0    0  0.10344581091E+02 -0.52393527867E+02  0.81768890968E+02  0.97663932188E+02  0.00000000000E+00 0. -1.
          1    1    6    6  503    0 -0.67227912030E+01  0.13627961100E+02  0.13330338197E+02  0.20214231664E+02  0.00000000000E+00 0. -1.
         -1    1    6    6    0  503  0.18175442445E+03  0.45685215275E+03  0.91921894053E+03  0.10424548052E+04  0.00000000000E+00 0.  1.
<mgrwt>
<rscale>  0 0.23978216E+04</rscale>
<asrwt>0</asrwt>
<pdfrwt beam="1">  1        2 0.35039105E+00 0.23978216E+04</pdfrwt>
<pdfrwt beam="2">  1       -1 0.97094370E-01 0.23978216E+04</pdfrwt>
<totfact> 0.48686285E+00</totfact>
</mgrwt>
</event>
<event>
12    6  0.1556619E-007  0.1447422E+04  0.7818608E-02  0.8920190E-01
          2   -1    0    0  501    0  0.00000000000E+00  0.00000000000E+00  0.23443221467E+04  0.23443221467E+04  0.00000000000E+00 0. -1.
         -1   -1    0    0    0  501 -0.00000000000E+00 -0.00000000000E+00 -0.22341530171E+03  0.22341530171E+03  0.00000000000E+00 0.  1.
         24    2    1    2    0    0 -0.31555711721E+03 -0.32579454386E+02  0.11215859713E+03  0.34559874712E+03  0.78874761707E+02 0.  0.
        254    2    1    2    0    0  0.31555711721E+03  0.32579454386E+02  0.20087482478E+04  0.22221387013E+04  0.89565237082E+03 0.  0.
         23    2    4    4    0    0 -0.60888678685E+02 -0.46014395779E+02 -0.46867520502E+02  0.12900216854E+03  0.92845243282E+02 0.  0.
         23    2    4    4    0    0  0.37644579589E+03  0.78593850165E+02  0.20556157683E+04  0.20931365327E+04  0.88181216772E+02 0.  0.
          4    1    3    3  502    0 -0.15432544036E+03 -0.27424015843E+02  0.15416064532E+02  0.15749943884E+03  0.00000000000E+00 0. -1.
         -3    1    3    3    0  502 -0.16123167685E+03 -0.51554385425E+01  0.96742532594E+02  0.18809930829E+03  0.00000000000E+00 0.  1.
         11    1    5    5    0    0 -0.55483351166E+02 -0.71749363202E+02 -0.48123992215E+02  0.10267566412E+03  0.00000000000E+00 0. -1.
        -11    1    5    5    0    0 -0.54053275195E+01  0.25734967423E+02  0.12564717131E+01  0.26326504421E+02  0.00000000000E+00 0.  1.
          3    1    6    6  503    0  0.38018232514E+03  0.74340349062E+02  0.20414829493E+04  0.20779118653E+04  0.00000000000E+00 0. -1.
         -3    1    6    6    0  503 -0.37365292484E+01  0.42535011034E+01  0.14132819042E+02  0.15224667370E+02  0.00000000000E+00 0.  1.
<mgrwt>
<rscale>  0 0.14474218E+04</rscale>
<asrwt>0</asrwt>
<pdfrwt beam="1">  1        2 0.36066493E+00 0.14474218E+04</pdfrwt>
<pdfrwt beam="2">  1       -1 0.34371587E-01 0.14474218E+04</pdfrwt>
<totfact> 0.37963681E+01</totfact>
</mgrwt>
</event>
<event>
12    6  0.1556619E-007  0.1348967E+04  0.7818608E-02  0.8991611E-01
          2   -1    0    0  501    0  0.00000000000E+00  0.00000000000E+00  0.58585474184E+03  0.58585474184E+03  0.00000000000E+00 0. -1.
         -1   -1    0    0    0  501 -0.00000000000E+00 -0.00000000000E+00 -0.77651981049E+03  0.77651981049E+03  0.00000000000E+00 0.  1.
         24    2    1    2    0    0 -0.19346446039E+03 -0.21037811806E+03  0.16934525908E+03  0.34164916706E+03  0.79742627133E+02 0.  0.
        254    2    1    2    0    0  0.19346446039E+03  0.21037811806E+03 -0.36001032773E+03  0.10207253853E+04  0.91136459558E+03 0.  0.
         23    2    4    4    0    0  0.52763764813E+03  0.67716413346E+02 -0.35818970722E+03  0.64704618783E+03  0.85917998511E+02 0.  0.
         23    2    4    4    0    0 -0.33417318774E+03  0.14266170472E+03 -0.18206205144E+01  0.37367919745E+03  0.87228129373E+02 0.  0.
          4    1    3    3  502    0 -0.17273090014E+03 -0.19371960394E+03  0.12076461134E+03  0.28626445844E+03  0.00000000000E+00 0. -1.
         -3    1    3    3    0  502 -0.20733560245E+02 -0.16658514125E+02  0.48580647740E+02  0.55384708613E+02  0.00000000000E+00 0.  1.
         11    1    5    5    0    0  0.18672349523E+03 -0.34690149664E+01 -0.16256130818E+03  0.24759619677E+03  0.00000000000E+00 0. -1.
        -11    1    5    5    0    0  0.34091415289E+03  0.71185428312E+02 -0.19562839904E+03  0.39944999106E+03  0.00000000000E+00 0.  1.
          2    1    6    6  503    0 -0.33812304777E+02  0.24409651256E+02  0.26864676052E+02  0.49606590773E+02  0.00000000000E+00 0. -1.
         -2    1    6    6    0  503 -0.30036088296E+03  0.11825205346E+03 -0.28685296566E+02  0.32407260668E+03  0.00000000000E+00 0.  1.
<mgrwt>
<rscale>  0 0.13489667E+04</rscale>
<asrwt>0</asrwt>
<pdfrwt beam="1">  1        2 0.90131499E-01 0.13489667E+04</pdfrwt>
<pdfrwt beam="2">  1       -1 0.11946459E+00 0.13489667E+04</pdfrwt>
<totfact> 0.35684292E+01</totfact>
</mgrwt>
</event>
<event>
12    6  0.1556619E-007  0.2140016E+04  0.7818608E-02  0.8543818E-01
          2   -1    0    0  501    0  0.00000000000E+00  0.00000000000E+00  0.75843904642E+03  0.75843904642E+03  0.00000000000E+00 0. -1.
         -1   -1    0    0    0  501 -0.00000000000E+00 -0.00000000000E+00 -0.15095705560E+04  0.15095705560E+04  0.00000000000E+00 0.  1.
         24    2    1    2    0    0 -0.69394743878E+03 -0.31219476461E+03 -0.78617729887E+03  0.10970119015E+04  0.79572281872E+02 0.  0.
        254    2    1    2    0    0  0.69394743878E+03  0.31219476461E+03  0.35045789285E+02  0.11709977009E+04  0.88936988327E+03 0.  0.
         23    2    4    4    0    0  0.20197834578E+03  0.17500605925E+03  0.43386406394E+03  0.51766119903E+03  0.91174108495E+02 0.  0.
         23    2    4    4    0    0  0.49196909300E+03  0.13718870535E+03 -0.39881827466E+03  0.65333650185E+03  0.83296092925E+02 0.  0.
          4    1    3    3  502    0 -0.78713914552E+02 -0.64205011058E+02 -0.11253843127E+03  0.15160165666E+03  0.00000000000E+00 0. -1.
         -3    1    3    3    0  502 -0.61523352423E+03 -0.24798975355E+03 -0.67363886760E+03  0.94541024488E+03  0.00000000000E+00 0.  1.
         11    1    5    5    0    0  0.72411652143E+02  0.10822931122E+02  0.11423899752E+03  0.13568762566E+03  0.00000000000E+00 0.  1.
        -11    1    5    5    0    0  0.12956669363E+03  0.16418312813E+03  0.31962506643E+03  0.38197357337E+03  0.00000000000E+00 0. -1.
          3    1    6    6  503    0  0.34100996727E+03  0.56652160993E+02 -0.25055462601E+03  0.42693662965E+03  0.00000000000E+00 0. -1.
         -3    1    6    6    0  503  0.15095912573E+03  0.80536544361E+02 -0.14826364865E+03  0.22639987219E+03  0.00000000000E+00 0.  1.
<mgrwt>
<rscale>  0 0.21400161E+04</rscale>
<asrwt>0</asrwt>
<pdfrwt beam="1">  1        2 0.11668293E+00 0.21400161E+04</pdfrwt>
<pdfrwt beam="2">  1       -1 0.23224162E+00 0.21400161E+04</pdfrwt>
<totfact> 0.35333803E+00</totfact>
</mgrwt>
</event>
<event>
12    6  0.1556619E-007  0.1580109E+04  0.7818608E-02  0.8832862E-01
          2   -1    0    0  501    0  0.00000000000E+00  0.00000000000E+00  0.77263207477E+03  0.77263207477E+03  0.00000000000E+00 0. -1.
         -1   -1    0    0    0  501 -0.00000000000E+00 -0.00000000000E+00 -0.80787008004E+03  0.80787008004E+03  0.00000000000E+00 0.  1.
         24    2    1    2    0    0  0.46440631044E+03  0.11783480613E+03  0.21204851341E+03  0.52966843250E+03  0.77626114384E+02 0.  0.
        254    2    1    2    0    0 -0.46440631044E+03 -0.11783480613E+03 -0.24728651869E+03  0.10508337223E+04  0.90196597879E+03 0.  0.
         23    2    4    4    0    0 -0.12634721072E+03 -0.37394190670E+03 -0.42120831772E+03  0.58416222468E+03  0.89626394467E+02 0.  0.
         23    2    4    4    0    0 -0.33805909972E+03  0.25610710056E+03  0.17392179903E+03  0.46667149763E+03  0.87513956941E+02 0.  0.
          4    1    3    3  502    0  0.81289195258E+02  0.44664904241E+02  0.62970643918E+02  0.11210793430E+03  0.00000000000E+00 0. -1.
         -1    1    3    3    0  502  0.38311711518E+03  0.73169901893E+02  0.14907786950E+03  0.41756049821E+03  0.00000000000E+00 0.  1.
         11    1    5    5    0    0 -0.85890545907E+02 -0.23627661408E+03 -0.20360665123E+03  0.32351119403E+03  0.00000000000E+00 0. -1.
        -11    1    5    5    0    0 -0.40456664814E+02 -0.13766529261E+03 -0.21760166649E+03  0.26065103065E+03  0.00000000000E+00 0.  1.
          4    1    6    6  503    0 -0.10333774292E+03  0.13151789880E+03  0.63588285307E+02  0.17893886342E+03  0.00000000000E+00 0. -1.
         -4    1    6    6    0  503 -0.23472135680E+03  0.12458920177E+03  0.11033351372E+03  0.28773263421E+03  0.00000000000E+00 0.  1.
<mgrwt>
<rscale>  0 0.15801093E+04</rscale>
<asrwt>0</asrwt>
<pdfrwt beam="1">  1        2 0.11886647E+00 0.15801093E+04</pdfrwt>
<pdfrwt beam="2">  1       -1 0.12428770E+00 0.15801093E+04</pdfrwt>
<totfact> 0.22457980E+01</totfact>
</mgrwt>
</event>
<event>
12    6  0.1556619E-007  0.1414321E+04  0.7818608E-02  0.8943517E-01
          2   -1    0    0  501    0  0.00000000000E+00  0.00000000000E+00  0.19240473876E+04  0.19240473876E+04  0.00000000000E+00 0. -1.
         -1   -1    0    0    0  501 -0.00000000000E+00 -0.00000000000E+00 -0.25990852284E+03  0.25990852284E+03  0.00000000000E+00 0.  1.
         24    2    1    2    0    0 -0.18629855247E+03  0.35559103629E+03  0.32872675227E+03  0.52511275988E+03  0.80808398024E+02 0.  0.
        254    2    1    2    0    0  0.18629855247E+03 -0.35559103629E+03  0.13354121125E+04  0.16588431506E+04  0.89848926106E+03 0.  0.
         23    2    4    4    0    0  0.18612219365E+03 -0.32972745742E+02 -0.64383664747E+02  0.21938949523E+03  0.90872555826E+02 0.  0.
         23    2    4    4    0    0  0.17635882690E+00 -0.32261829055E+03  0.13997957773E+04  0.14394536554E+04  0.92282259223E+02 0.  0.
          4    1    3    3  502    0 -0.12419596945E+02  0.90558182474E+02  0.57983626360E+02  0.10824570073E+03  0.00000000000E+00 0. -1.
         -3    1    3    3    0  502 -0.17387895553E+03  0.26503285381E+03  0.27074312591E+03  0.41686705915E+03  0.00000000000E+00 0.  1.
         11    1    5    5    0    0  0.23081577919E+02  0.17799031199E+00 -0.46678042609E+02  0.52073319287E+02  0.00000000000E+00 0. -1.
        -11    1    5    5    0    0  0.16304061573E+03 -0.33150736054E+02 -0.17705622139E+02  0.16731617594E+03  0.00000000000E+00 0.  1.
          4    1    6    6  503    0  0.31896629184E+02 -0.71427290923E+02  0.24323800597E+03  0.25550730007E+03  0.00000000000E+00 0. -1.
         -4    1    6    6    0  503 -0.31720270358E+02 -0.25119099962E+03  0.11565577713E+04  0.11839463553E+04  0.00000000000E+00 0.  1.
<mgrwt>
<rscale>  0 0.14143215E+04</rscale>
<asrwt>0</asrwt>
<pdfrwt beam="1">  1        2 0.29600728E+00 0.14143215E+04</pdfrwt>
<pdfrwt beam="2">  1       -1 0.39985928E-01 0.14143215E+04</pdfrwt>
<totfact> 0.49725409E+01</totfact>
</mgrwt>
</event>
<event>
12    6  0.1556619E-007  0.1443729E+04  0.7818608E-02  0.8922759E-01
          2   -1    0    0  501    0  0.00000000000E+00  0.00000000000E+00  0.59645925329E+03  0.59645925329E+03  0.00000000000E+00 0. -1.
         -1   -1    0    0    0  501 -0.00000000000E+00 -0.00000000000E+00 -0.87363661116E+03  0.87363661116E+03  0.00000000000E+00 0.  1.
         24    2    1    2    0    0 -0.26577351260E+03  0.35433282466E+03 -0.14051547853E+03  0.47291224545E+03  0.87829844336E+02 0.  0.
        254    2    1    2    0    0  0.26577351260E+03 -0.35433282466E+03 -0.13666187934E+03  0.99718361901E+03  0.88289942243E+03 0.  0.
         23    2    4    4    0    0  0.24627580488E+03  0.24319948543E+03 -0.15891347800E+03  0.39187454800E+03  0.92273539558E+02 0.  0.
         23    2    4    4    0    0  0.19497707720E+02 -0.59753231009E+03  0.22251598656E+02  0.60530907100E+03  0.92081027317E+02 0.  0.
          2    1    3    3  502    0 -0.65779673233E+01  0.35980432744E+01 -0.18633041855E+02  0.20084964980E+02  0.00000000000E+00 0. -1.
         -1    1    3    3    0  502 -0.25919554528E+03  0.35073478138E+03 -0.12188243668E+03  0.45282728047E+03  0.00000000000E+00 0.  1.
         11    1    5    5    0    0  0.13567406115E+03  0.18764313644E+03 -0.12682637232E+03  0.26401198124E+03  0.00000000000E+00 0.  1.
        -11    1    5    5    0    0  0.11060174373E+03  0.55556348988E+02 -0.32087105680E+02  0.12786256677E+03  0.00000000000E+00 0. -1.
          2    1    6    6  503    0  0.52009309613E+02 -0.31472793122E+03 -0.75554669887E+01  0.31908576286E+03  0.00000000000E+00 0.  1.
         -2    1    6    6    0  503 -0.32511601893E+02 -0.28280437886E+03  0.29807065645E+02  0.28622330814E+03  0.00000000000E+00 0. -1.
<mgrwt>
<rscale>  0 0.14437294E+04</rscale>
<asrwt>0</asrwt>
<pdfrwt beam="1">  1        2 0.91762962E-01 0.14437294E+04</pdfrwt>
<pdfrwt beam="2">  1       -1 0.13440563E+00 0.14437294E+04</pdfrwt>
<totfact> 0.25808416E+01</totfact>
</mgrwt>
</event>
<event>
12    6  0.1556619E-007  0.2331127E+04  0.7818608E-02  0.8465748E-01
         -1   -1    0    0    0  501 -0.00000000000E+00  0.00000000000E+00  0.85865881225E+03  0.85865881225E+03  0.00000000000E+00 0.  1.
          2   -1    0    0  501    0  0.00000000000E+00 -0.00000000000E+00 -0.15821627751E+04  0.15821627751E+04  0.00000000000E+00 0. -1.
         24    2    1    2    0    0  0.62201302400E+03 -0.65219491145E+03 -0.74561303477E+03  0.11723892369E+04  0.79368259013E+02 0.  0.
        254    2    1    2    0    0 -0.62201302400E+03  0.65219491145E+03  0.22109071926E+02  0.12684323505E+04  0.89228549923E+03 0.  0.
         23    2    4    4    0    0 -0.71467057300E+03  0.16944405494E+03  0.14381724636E+03  0.75366477519E+03  0.88667228128E+02 0.  0.
         23    2    4    4    0    0  0.92657549003E+02  0.48275085651E+03 -0.12170817444E+03  0.51476757529E+03  0.92406525728E+02 0.  0.
          2    1    3    3  502    0  0.59328192181E+03 -0.59328914100E+03 -0.69737095742E+03  0.10910094848E+04  0.00000000000E+00 0. -1.
         -1    1    3    3    0  502  0.28731102190E+02 -0.58905770452E+02 -0.48242077353E+02  0.81379752107E+02  0.00000000000E+00 0.  1.
         11    1    5    5    0    0 -0.62113033004E+03  0.17306648146E+03  0.14091719137E+03  0.66000950654E+03  0.00000000000E+00 0. -1.
        -11    1    5    5    0    0 -0.93540242966E+02 -0.36224265182E+01  0.29000549961E+01  0.93655268656E+02  0.00000000000E+00 0.  1.
          2    1    6    6  503    0 -0.16446460105E+02  0.49619114199E+02 -0.24116191607E+02  0.57568509113E+02  0.00000000000E+00 0.  1.
         -2    1    6    6    0  503  0.10910400911E+03  0.43313174231E+03 -0.97591982830E+02  0.45719906618E+03  0.00000000000E+00 0. -1.
<mgrwt>
<rscale>  0 0.23311268E+04</rscale>
<asrwt>0</asrwt>
<pdfrwt beam="1">  1        2 0.24340966E+00 0.23311268E+04</pdfrwt>
<pdfrwt beam="2">  1       -1 0.13210136E+00 0.23311268E+04</pdfrwt>
<totfact> 0.57230729E+00</totfact>
</mgrwt>
</event>
<event>
12    6  0.1556619E-007  0.2232043E+04  0.7818608E-02  0.8505208E-01
         -1   -1    0    0    0  501 -0.00000000000E+00  0.00000000000E+00  0.52304671918E+03  0.52304671918E+03  0.00000000000E+00 0.  1.
          2   -1    0    0  501    0  0.00000000000E+00 -0.00000000000E+00 -0.23812487978E+04  0.23812487978E+04  0.00000000000E+00 0. -1.
         24    2    1    2    0    0 -0.12137851373E+03  0.76929472897E+03 -0.11152196557E+03  0.79092632539E+03  0.81118307289E+02 0.  0.
        254    2    1    2    0    0  0.12137851373E+03 -0.76929472897E+03 -0.17466801130E+04  0.21133691916E+04  0.89938356610E+03 0.  0.
         23    2    4    4    0    0 -0.29397246041E+02 -0.26177804976E+03  0.76502632699E+01  0.27860043163E+03  0.90375486522E+02 0.  0.
         23    2    4    4    0    0  0.15077575977E+03 -0.50751667921E+03 -0.17543303763E+04  0.18347687599E+04  0.91623271087E+02 0.  0.
          4    1    3    3  502    0 -0.11834827491E+01  0.10994993255E+03 -0.39590523699E+02  0.11686658148E+03  0.00000000000E+00 0. -1.
         -3    1    3    3    0  502 -0.12019503098E+03  0.65934479642E+03 -0.71931441873E+02  0.67405974391E+03  0.00000000000E+00 0.  1.
         11    1    5    5    0    0 -0.38389937671E+02 -0.26287406890E+03  0.16183692529E+02  0.26615498364E+03  0.00000000000E+00 0.  1.
        -11    1    5    5    0    0  0.89926916306E+01  0.10960191358E+01 -0.85334292590E+01  0.12445447988E+02  0.00000000000E+00 0. -1.
          3    1    6    6  503    0  0.13449005200E+02 -0.59546449225E+02 -0.12049806170E+03  0.13507937751E+03  0.00000000000E+00 0. -1.
         -3    1    6    6    0  503  0.13732675457E+03 -0.44797022998E+03 -0.16338323146E+04  0.16996893824E+04  0.00000000000E+00 0.  1.
<mgrwt>
<rscale>  0 0.22320433E+04</rscale>
<asrwt>0</asrwt>
<pdfrwt beam="1">  1        2 0.36634597E+00 0.22320433E+04</pdfrwt>
<pdfrwt beam="2">  1       -1 0.80468727E-01 0.22320433E+04</pdfrwt>
<totfact> 0.65123525E+00</totfact>
</mgrwt>
</event>
<event>
12    6  0.1556619E-007  0.1571191E+04  0.7818608E-02  0.8838444E-01
         -1   -1    0    0    0  501 -0.00000000000E+00  0.00000000000E+00  0.23453840721E+03  0.23453840721E+03  0.00000000000E+00 0.  1.
          2   -1    0    0  501    0  0.00000000000E+00 -0.00000000000E+00 -0.26313835536E+04  0.26313835536E+04  0.00000000000E+00 0. -1.
         24    2    1    2    0    0 -0.23088078231E+03 -0.40755087127E+03 -0.37897256193E+03  0.60787684408E+03  0.80563059520E+02 0.  0.
        254    2    1    2    0    0  0.23088078231E+03  0.40755087127E+03 -0.20178725844E+04  0.22580451167E+04  0.89864026937E+03 0.  0.
         23    2    4    4    0    0  0.32001169114E+02  0.20411401727E+03 -0.70945169855E+01  0.22542959281E+03  0.89897509814E+02 0.  0.
         23    2    4    4    0    0  0.19887961320E+03  0.20343685399E+03 -0.20107780674E+04  0.20326155239E+04  0.85777487283E+02 0.  0.
          4    1    3    3  502    0 -0.69400286252E+01  0.25340098723E+01 -0.23885204685E+01  0.77646785754E+01  0.00000000000E+00 0. -1.
         -3    1    3    3    0  502 -0.22394075369E+03 -0.41008488114E+03 -0.37658404147E+03  0.60011216550E+03  0.00000000000E+00 0.  1.
         11    1    5    5    0    0 -0.60192563851E+01  0.15701651288E+02 -0.27401221929E+02  0.32149654179E+02  0.00000000000E+00 0.  1.
        -11    1    5    5    0    0  0.38020425499E+02  0.18841236598E+03  0.20306704944E+02  0.19327993863E+03  0.00000000000E+00 0. -1.
          3    1    6    6  503    0  0.15241358612E+03  0.12936699135E+03 -0.16129509230E+04  0.16252927120E+04  0.00000000000E+00 0. -1.
         -3    1    6    6    0  503  0.46466027081E+02  0.74069862642E+02 -0.39782714444E+03  0.40732281188E+03  0.00000000000E+00 0.  1.
<mgrwt>
<rscale>  0 0.15711913E+04</rscale>
<asrwt>0</asrwt>
<pdfrwt beam="1">  1        2 0.40482825E+00 0.15711913E+04</pdfrwt>
<pdfrwt beam="2">  1       -1 0.36082831E-01 0.15711913E+04</pdfrwt>
<totfact> 0.23520677E+01</totfact>
</mgrwt>
</event>
<event>
12    6  0.1556619E-007  0.2965224E+04  0.7818608E-02  0.8253732E-01
         -1   -1    0    0    0  501 -0.00000000000E+00  0.00000000000E+00  0.82331113288E+03  0.82331113288E+03  0.00000000000E+00 0.  1.
          2   -1    0    0  501    0  0.00000000000E+00 -0.00000000000E+00 -0.26698758640E+04  0.26698758640E+04  0.00000000000E+00 0. -1.
         24    2    1    2    0    0 -0.90726618960E+03 -0.61911446235E+03  0.74232952249E+02  0.11050906860E+04  0.96333986045E+02 0.  0.
        254    2    1    2    0    0  0.90726618960E+03  0.61911446235E+03 -0.19207976834E+04  0.23880963108E+04  0.89839055713E+03 0.  0.
         23    2    4    4    0    0 -0.15743840366E+03  0.19733822445E+03 -0.41188800844E+03  0.49154530027E+03  0.90751445982E+02 0.  0.
         23    2    4    4    0    0  0.10647045933E+04  0.42177623790E+03 -0.15089096749E+04  0.18965510106E+04  0.92769945662E+02 0.  0.
          4    1    3    3  502    0 -0.45850280301E+03 -0.33861719365E+03 -0.47979374509E+01  0.57000828451E+03  0.00000000000E+00 0. -1.
         -3    1    3    3    0  502 -0.44876338659E+03 -0.28049726870E+03  0.79030889700E+02  0.53508240153E+03  0.00000000000E+00 0.  1.
         11    1    5    5    0    0 -0.30473703210E+02 -0.15126597463E+01 -0.67724015780E+02  0.74279721595E+02  0.00000000000E+00 0. -1.
        -11    1    5    5    0    0 -0.12696470045E+03  0.19885088420E+03 -0.34416399266E+03  0.41726557867E+03  0.00000000000E+00 0.  1.
          2    1    6    6  503    0  0.17652949944E+03  0.35138472958E+02 -0.22145088796E+03  0.28537321569E+03  0.00000000000E+00 0. -1.
         -2    1    6    6    0  503  0.88817509383E+03  0.38663776495E+03 -0.12874587870E+04  0.16111777949E+04  0.00000000000E+00 0.  1.
<mgrwt>
<rscale>  0 0.29652241E+04</rscale>
<asrwt>0</asrwt>
<pdfrwt beam="1">  1        2 0.41075013E+00 0.29652241E+04</pdfrwt>
<pdfrwt beam="2">  1       -1 0.12666325E+00 0.29652241E+04</pdfrwt>
<totfact> 0.14613386E+00</totfact>
</mgrwt>
</event>
<event>
12    6  0.1556619E-007  0.2566598E+04  0.7818608E-02  0.8379636E-01
         -1   -1    0    0    0  501 -0.00000000000E+00  0.00000000000E+00  0.65878150995E+03  0.65878150995E+03  0.00000000000E+00 0.  1.
          2   -1    0    0  501    0  0.00000000000E+00 -0.00000000000E+00 -0.24998516429E+04  0.24998516429E+04  0.00000000000E+00 0. -1.
         24    2    1    2    0    0  0.28627475497E+02  0.79860303303E+03 -0.17830862951E+04  0.19555819076E+04  0.79482857497E+02 0.  0.
        254    2    1    2    0    0 -0.28627475497E+02 -0.79860303303E+03 -0.57983837842E+02  0.12030512453E+04  0.89743180055E+03 0.  0.
         23    2    4    4    0    0 -0.44526518024E+03 -0.50051573413E+03 -0.90572713911E+02  0.68220024191E+03  0.91742425905E+02 0.  0.
         23    2    4    4    0    0  0.41663770474E+03 -0.29808729890E+03  0.32588876069E+02  0.52085100338E+03  0.88208378851E+02 0.  0.
          4    1    3    3  502    0  0.16368496005E+02  0.78207380058E+03 -0.17443796742E+04  0.19117447019E+04  0.00000000000E+00 0. -1.
         -3    1    3    3    0  502  0.12258979492E+02  0.16529232445E+02 -0.38706620902E+02  0.43837205717E+02  0.00000000000E+00 0.  1.
         11    1    5    5    0    0 -0.60718495588E+02 -0.30891391506E+02  0.22657638539E+01  0.68162654448E+02  0.00000000000E+00 0.  1.
        -11    1    5    5    0    0 -0.38454668465E+03 -0.46962434262E+03 -0.92838477764E+02  0.61403758746E+03  0.00000000000E+00 0. -1.
          2    1    6    6  503    0  0.35386483701E+03 -0.27248958073E+03  0.53724228710E+02  0.44984129115E+03  0.00000000000E+00 0. -1.
         -2    1    6    6    0  503  0.62772867737E+02 -0.25597718173E+02 -0.21135352641E+02  0.71009712229E+02  0.00000000000E+00 0.  1.
<mgrwt>
<rscale>  0 0.25665978E+04</rscale>
<asrwt>0</asrwt>
<pdfrwt beam="1">  1        2 0.38459256E+00 0.25665978E+04</pdfrwt>
<pdfrwt beam="2">  1       -1 0.10135100E+00 0.25665978E+04</pdfrwt>
<totfact> 0.32451476E+00</totfact>
</mgrwt>
</event>
<event>
12    6  0.1556619E-007  0.1565117E+04  0.7818608E-02  0.8842269E-01
          2   -1    0    0  501    0  0.00000000000E+00  0.00000000000E+00  0.11047750509E+04  0.11047750509E+04  0.00000000000E+00 0. -1.
         -1   -1    0    0    0  501 -0.00000000000E+00 -0.00000000000E+00 -0.55431934593E+03  0.55431934593E+03  0.00000000000E+00 0.  1.
         24    2    1    2    0    0 -0.89703655890E+02 -0.40960078822E+03  0.50344105687E+03  0.66000800144E+03  0.79612264303E+02 0.  0.
        254    2    1    2    0    0  0.89703655890E+02  0.40960078822E+03  0.47014648148E+02  0.99908639544E+03  0.90561785364E+03 0.  0.
         23    2    4    4    0    0 -0.39808068990E+03  0.13428753264E+03  0.34302940916E+02  0.43192215117E+03  0.94226725608E+02 0.  0.
         23    2    4    4    0    0  0.48778434579E+03  0.27531325558E+03  0.12711707231E+02  0.56716424427E+03  0.88219815161E+02 0.  0.
          2    1    3    3  502    0 -0.10400524328E+03 -0.36719285536E+03  0.45906311310E+03  0.59698126057E+03  0.00000000000E+00 0. -1.
         -1    1    3    3    0  502  0.14301587395E+02 -0.42407932858E+02  0.44377943769E+02  0.63026740868E+02  0.00000000000E+00 0.  1.
         11    1    5    5    0    0 -0.28221923475E+02  0.31269185810E+02 -0.15255074231E+02  0.44799065120E+02  0.00000000000E+00 0. -1.
        -11    1    5    5    0    0 -0.36985876643E+03  0.10301834683E+03  0.49558015147E+02  0.38712308605E+03  0.00000000000E+00 0.  1.
          1    1    6    6  503    0  0.48577030827E+01 -0.42576987655E+01 -0.60305042634E+01  0.88369824990E+01  0.00000000000E+00 0. -1.
         -1    1    6    6    0  503  0.48292664271E+03  0.27957095434E+03  0.18742211495E+02  0.55832726178E+03  0.00000000000E+00 0.  1.
<mgrwt>
<rscale>  0 0.15651175E+04</rscale>
<asrwt>0</asrwt>
<pdfrwt beam="1">  1        2 0.16996539E+00 0.15651175E+04</pdfrwt>
<pdfrwt beam="2">  1       -1 0.85279900E-01 0.15651175E+04</pdfrwt>
<totfact> 0.32262454E+01</totfact>
</mgrwt>
</event>
<event>
12    6  0.1556619E-007  0.2873858E+04  0.7818608E-02  0.8280698E-01
         -1   -1    0    0    0  501 -0.00000000000E+00  0.00000000000E+00  0.52214745199E+03  0.52214745199E+03  0.00000000000E+00 0.  1.
          2   -1    0    0  501    0  0.00000000000E+00 -0.00000000000E+00 -0.39543716840E+04  0.39543716840E+04  0.00000000000E+00 0. -1.
         24    2    1    2    0    0 -0.10271404075E+04  0.49215047243E+01 -0.31521816452E+03  0.10771988360E+04  0.77157002823E+02 0.  0.
        254    2    1    2    0    0  0.10271404075E+04 -0.49215047243E+01 -0.31170060675E+04  0.33993203000E+04  0.88578216228E+03 0.  0.
         23    2    4    4    0    0  0.11057216129E+04 -0.19766569753E+03 -0.25484303527E+04  0.27864886681E+04  0.91267857245E+02 0.  0.
         23    2    4    4    0    0 -0.78581205384E+02  0.19274419281E+03 -0.56857571475E+03  0.61283163181E+03  0.94651655246E+02 0.  0.
          4    1    3    3  502    0 -0.32752422451E+03  0.34245614079E+02 -0.11662736236E+03  0.34935200211E+03  0.00000000000E+00 0. -1.
         -3    1    3    3    0  502 -0.69961618302E+03 -0.29324109355E+02 -0.19859080217E+03  0.72784683391E+03  0.00000000000E+00 0.  1.
         11    1    5    5    0    0  0.64148235978E+03 -0.10797829737E+03 -0.15846947939E+04  0.17130138705E+04  0.00000000000E+00 0. -1.
        -11    1    5    5    0    0  0.46423925314E+03 -0.89687400158E+02 -0.96373555883E+03  0.10734747977E+04  0.00000000000E+00 0.  1.
          1    1    6    6  503    0 -0.49969028998E+02  0.18881702104E+03 -0.44588516779E+03  0.48678779170E+03  0.00000000000E+00 0. -1.
         -1    1    6    6    0  503 -0.28612176386E+02  0.39271717663E+01 -0.12269054697E+03  0.12604384011E+03  0.00000000000E+00 0.  1.
<mgrwt>
<rscale>  0 0.28738581E+04</rscale>
<asrwt>0</asrwt>
<pdfrwt beam="1">  1        2 0.60836486E+00 0.28738581E+04</pdfrwt>
<pdfrwt beam="2">  1       -1 0.80330379E-01 0.28738581E+04</pdfrwt>
<totfact> 0.56585443E-01</totfact>
</mgrwt>
</event>
<event>
12    6  0.1556619E-007  0.2570819E+04  0.7818608E-02  0.8378181E-01
          2   -1    0    0  501    0  0.00000000000E+00  0.00000000000E+00  0.17335250625E+04  0.17335250625E+04  0.00000000000E+00 0. -1.
         -1   -1    0    0    0  501 -0.00000000000E+00 -0.00000000000E+00 -0.95313189384E+03  0.95313189384E+03  0.00000000000E+00 0.  1.
         24    2    1    2    0    0 -0.88906618362E+03  0.64769956637E+03  0.50921647031E+03  0.12148381477E+04  0.81098114968E+02 0.  0.
        254    2    1    2    0    0  0.88906618362E+03 -0.64769956637E+03  0.27117669832E+03  0.14718188086E+04  0.93955329632E+03 0.  0.
         23    2    4    4    0    0  0.43513708167E+03  0.19398020578E+03  0.10442428089E+03  0.49662403492E+03  0.93586332041E+02 0.  0.
         23    2    4    4    0    0  0.45392910195E+03 -0.84167977215E+03  0.16675241743E+03  0.97519477372E+03  0.93391699438E+02 0.  0.
          2    1    3    3  502    0 -0.54864696154E+02  0.51898387316E+02  0.55904578849E+02  0.93962223400E+02  0.00000000000E+00 0. -1.
         -1    1    3    3    0  502 -0.83420148747E+03  0.59580117905E+03  0.45331189146E+03  0.11208759243E+04  0.00000000000E+00 0.  1.
         11    1    5    5    0    0  0.10336394449E+03  0.37404729401E+02  0.64860589091E+02  0.12763273412E+03  0.00000000000E+00 0. -1.
        -11    1    5    5    0    0  0.33177313719E+03  0.15657547638E+03  0.39563691794E+02  0.36899130080E+03  0.00000000000E+00 0.  1.
          2    1    6    6  503    0  0.21608745529E+03 -0.35054430172E+03  0.31557961498E+02  0.41300242219E+03  0.00000000000E+00 0. -1.
         -2    1    6    6    0  503  0.23784164667E+03 -0.49113547043E+03  0.13519445593E+03  0.56219235153E+03  0.00000000000E+00 0.  1.
<mgrwt>
<rscale>  0 0.25708193E+04</rscale>
<asrwt>0</asrwt>
<pdfrwt beam="1">  1        2 0.26669616E+00 0.25708193E+04</pdfrwt>
<pdfrwt beam="2">  1       -1 0.14663568E+00 0.25708193E+04</pdfrwt>
<totfact> 0.35165497E+00</totfact>
</mgrwt>
</event>
<event>
12    6  0.1556619E-007  0.2086761E+04  0.7818608E-02  0.8567098E-01
         -1   -1    0    0    0  501 -0.00000000000E+00  0.00000000000E+00  0.81519238419E+03  0.81519238419E+03  0.00000000000E+00 0.  1.
          2   -1    0    0  501    0  0.00000000000E+00 -0.00000000000E+00 -0.13354435105E+04  0.13354435105E+04  0.00000000000E+00 0. -1.
         24    2    1    2    0    0 -0.24833914168E+03 -0.46573460310E+03 -0.88004669475E+03  0.10293295024E+04  0.80349173803E+02 0.  0.
        254    2    1    2    0    0  0.24833914168E+03  0.46573460310E+03  0.35979556843E+03  0.11213063923E+04  0.92157155152E+03 0.  0.
         23    2    4    4    0    0 -0.70029131384E+02 -0.12349457740E+03 -0.18674824915E+03  0.25247661359E+03  0.93351711059E+02 0.  0.
         23    2    4    4    0    0  0.31836827307E+03  0.58922918050E+03  0.54654381758E+03  0.86882977873E+03  0.87210408976E+02 0.  0.
          4    1    3    3  502    0 -0.31082804861E+02 -0.45567633517E+02 -0.52566656723E+02  0.76195822598E+02  0.00000000000E+00 0. -1.
         -3    1    3    3    0  502 -0.21725633682E+03 -0.42016696959E+03 -0.82748003803E+03  0.95313367979E+03  0.00000000000E+00 0.  1.
         11    1    5    5    0    0  0.92516121626E+00 -0.50423624333E+02 -0.12141180059E+03  0.13146947607E+03  0.00000000000E+00 0.  1.
        -11    1    5    5    0    0 -0.70954292600E+02 -0.73070953065E+02 -0.65336448557E+02  0.12100713752E+03  0.00000000000E+00 0. -1.
          2    1    6    6  503    0  0.19970614391E+03  0.40808285958E+03  0.32191327115E+03  0.55681443797E+03  0.00000000000E+00 0. -1.
         -2    1    6    6    0  503  0.11866212916E+03  0.18114632093E+03  0.22463054643E+03  0.31201534076E+03  0.00000000000E+00 0.  1.
<mgrwt>
<rscale>  0 0.20867615E+04</rscale>
<asrwt>0</asrwt>
<pdfrwt beam="1">  1        2 0.20545285E+00 0.20867615E+04</pdfrwt>
<pdfrwt beam="2">  1       -1 0.12541421E+00 0.20867615E+04</pdfrwt>
<totfact> 0.92007797E+00</totfact>
</mgrwt>
</event>
<event>
12    6  0.1556619E-007  0.1243273E+04  0.7818608E-02  0.9075801E-01
         -1   -1    0    0    0  501 -0.00000000000E+00  0.00000000000E+00  0.59090276882E+03  0.59090276882E+03  0.00000000000E+00 0.  1.
          2   -1    0    0  501    0  0.00000000000E+00 -0.00000000000E+00 -0.65396823170E+03  0.65396823170E+03  0.00000000000E+00 0. -1.
         24    2    1    2    0    0  0.28423878435E+03  0.67417186693E+02 -0.17527541322E+03  0.34954662548E+03  0.78259883186E+02 0.  0.
        254    2    1    2    0    0 -0.28423878435E+03 -0.67417186693E+02  0.11220995034E+03  0.89532437504E+03  0.83885511263E+03 0.  0.
         23    2    4    4    0    0  0.12517460833E+03 -0.33043758576E+03 -0.59523774346E+02  0.37180136311E+03  0.99174055299E+02 0.  0.
         23    2    4    4    0    0 -0.40941339268E+03  0.26302039906E+03  0.17173372469E+03  0.52352301193E+03  0.88231600876E+02 0.  0.
          4    1    3    3  502    0  0.24138015664E+03  0.68056559753E+02 -0.17648798777E+03  0.30666608090E+03  0.00000000000E+00 0. -1.
         -3    1    3    3    0  502  0.42858627710E+02 -0.63937306075E+00  0.12125745474E+01  0.42880544588E+02  0.00000000000E+00 0.  1.
         11    1    5    5    0    0 -0.21220783765E+01 -0.33643918999E+01  0.12844317914E+02  0.13446146369E+02  0.00000000000E+00 0.  1.
        -11    1    5    5    0    0  0.12729668671E+03 -0.32707319386E+03 -0.72368092260E+02  0.35835521674E+03  0.00000000000E+00 0. -1.
          4    1    6    6  503    0 -0.39111673659E+03  0.22947104384E+03  0.17285645549E+03  0.48529229935E+03  0.00000000000E+00 0. -1.
         -4    1    6    6    0  503 -0.18296656097E+02  0.33549355220E+02 -0.11227308086E+01  0.38230712581E+02  0.00000000000E+00 0.  1.
<mgrwt>
<rscale>  0 0.12432725E+04</rscale>
<asrwt>0</asrwt>
<pdfrwt beam="1">  1        2 0.10061050E+00 0.12432725E+04</pdfrwt>
<pdfrwt beam="2">  1       -1 0.90908119E-01 0.12432725E+04</pdfrwt>
<totfact> 0.59295079E+01</totfact>
</mgrwt>
</event>
<event>
12    6  0.1556619E-007  0.2439561E+04  0.7818608E-02  0.8424839E-01
         -1   -1    0    0    0  501 -0.00000000000E+00  0.00000000000E+00  0.94360089169E+03  0.94360089169E+03  0.00000000000E+00 0.  1.
          2   -1    0    0  501    0  0.00000000000E+00 -0.00000000000E+00 -0.15767937602E+04  0.15767937602E+04  0.00000000000E+00 0. -1.
         24    2    1    2    0    0  0.38933994909E+03 -0.94978622655E+03 -0.19013380801E+02  0.10297418443E+04  0.79544233349E+02 0.  0.
        254    2    1    2    0    0 -0.38933994909E+03  0.94978622655E+03 -0.61417948770E+03  0.14906528076E+04  0.88946606325E+03 0.  0.
         23    2    4    4    0    0 -0.41428901764E+03  0.79454172783E+03 -0.54175468324E+02  0.90227859680E+03  0.90772999790E+02 0.  0.
         23    2    4    4    0    0  0.24949068551E+02  0.15524449873E+03 -0.56000401938E+03  0.58837421082E+03  0.88636334739E+02 0.  0.
          4    1    3    3  502    0  0.30281490610E+03 -0.74921613252E+03  0.17428021075E+02  0.80828547958E+03  0.00000000000E+00 0. -1.
         -3    1    3    3    0  502  0.86525042985E+02 -0.20057009403E+03 -0.36441401876E+02  0.22145636467E+03  0.00000000000E+00 0.  1.
         11    1    5    5    0    0 -0.39841108902E+03  0.71253363808E+03 -0.38304808516E+02  0.81725322857E+03  0.00000000000E+00 0. -1.
        -11    1    5    5    0    0 -0.15877928619E+02  0.82008089745E+02 -0.15870659809E+02  0.85025368236E+02  0.00000000000E+00 0.  1.
          1    1    6    6  503    0 -0.13872368364E+02  0.11448178259E+03 -0.45322633153E+03  0.46766722009E+03  0.00000000000E+00 0. -1.
         -1    1    6    6    0  503  0.38821436915E+02  0.40762716139E+02 -0.10677768784E+03  0.12070699073E+03  0.00000000000E+00 0.  1.
<mgrwt>
<rscale>  0 0.24395606E+04</rscale>
<asrwt>0</asrwt>
<pdfrwt beam="1">  1        2 0.24258365E+00 0.24395606E+04</pdfrwt>
<pdfrwt beam="2">  1       -1 0.14516937E+00 0.24395606E+04</pdfrwt>
<totfact> 0.44679426E+00</totfact>
</mgrwt>
</event>
<event>
12    6  0.1556619E-007  0.3738302E+04  0.7818608E-02  0.8059526E-01
         -1   -1    0    0    0  501 -0.00000000000E+00  0.00000000000E+00  0.14379805522E+04  0.14379805522E+04  0.00000000000E+00 0.  1.
          2   -1    0    0  501    0  0.00000000000E+00 -0.00000000000E+00 -0.24296058694E+04  0.24296058694E+04  0.00000000000E+00 0. -1.
         24    2    1    2    0    0 -0.53360813932E+03 -0.36100134542E+03 -0.21623176475E+04  0.22576557130E+04  0.79574443498E+02 0.  0.
        254    2    1    2    0    0  0.53360813932E+03  0.36100134542E+03  0.11706923303E+04  0.16099307086E+04  0.89794027451E+03 0.  0.
         23    2    4    4    0    0  0.47722454228E+03 -0.18543605596E+03  0.38841584020E+03  0.64921554170E+03  0.92109500334E+02 0.  0.
         23    2    4    4    0    0  0.56383597033E+02  0.54643740138E+03  0.78227649008E+03  0.96071516691E+03  0.96146665821E+02 0.  0.
          2    1    3    3  502    0 -0.20982509998E+03 -0.15741848547E+03 -0.10108592290E+04  0.10443388018E+04  0.00000000000E+00 0. -1.
         -1    1    3    3    0  502 -0.32378303934E+03 -0.20358285995E+03 -0.11514584185E+04  0.12133169112E+04  0.00000000000E+00 0.  1.
         11    1    5    5    0    0  0.46509662425E+03 -0.16205360728E+03  0.37814759283E+03  0.62094431593E+03  0.00000000000E+00 0.  1.
        -11    1    5    5    0    0  0.12127918029E+02 -0.23382448683E+02  0.10268247371E+02  0.28271225764E+02  0.00000000000E+00 0. -1.
          4    1    6    6  503    0 -0.38327619471E+01  0.16202071414E+03  0.30065218209E+03  0.34155107447E+03  0.00000000000E+00 0. -1.
         -4    1    6    6    0  503  0.60216358980E+02  0.38441668724E+03  0.48162430799E+03  0.61916409244E+03  0.00000000000E+00 0.  1.
<mgrwt>
<rscale>  0 0.37383023E+04</rscale>
<asrwt>0</asrwt>
<pdfrwt beam="1">  1        2 0.37378552E+00 0.37383023E+04</pdfrwt>
<pdfrwt beam="2">  1       -1 0.22122778E+00 0.37383023E+04</pdfrwt>
<totfact> 0.37811248E-01</totfact>
</mgrwt>
</event>
<event>
12    6  0.1556619E-007  0.2994583E+04  0.7818608E-02  0.8245279E-01
         -1   -1    0    0    0  501 -0.00000000000E+00  0.00000000000E+00  0.71489637321E+03  0.71489637321E+03  0.00000000000E+00 0.  1.
          2   -1    0    0  501    0  0.00000000000E+00 -0.00000000000E+00 -0.31359533869E+04  0.31359533869E+04  0.00000000000E+00 0. -1.
         24    2    1    2    0    0 -0.17669863652E+03  0.13053547430E+04 -0.15069489651E+04  0.20030454291E+04  0.78245730551E+02 0.  0.
        254    2    1    2    0    0  0.17669863652E+03 -0.13053547430E+04 -0.91410804867E+03  0.18478043311E+04  0.91848457152E+03 0.  0.
         23    2    4    4    0    0  0.25774095657E+03 -0.21961012230E+03 -0.62595577929E+03  0.71767861676E+03  0.92644227095E+02 0.  0.
         23    2    4    4    0    0 -0.81042320042E+02 -0.10857446207E+04 -0.28815226938E+03  0.11301257143E+04  0.93504870593E+02 0.  0.
          4    1    3    3  502    0 -0.14851128454E+03  0.11538661472E+04 -0.13653167831E+04  0.17937537750E+04  0.00000000000E+00 0. -1.
         -3    1    3    3    0  502 -0.28187351980E+02  0.15148859584E+03 -0.14163218196E+03  0.20929165403E+03  0.00000000000E+00 0.  1.
         11    1    5    5    0    0  0.30649571138E+02 -0.17082867954E+02 -0.22037199813E+02  0.41434994438E+02  0.00000000000E+00 0. -1.
        -11    1    5    5    0    0  0.22709138543E+03 -0.20252725435E+03 -0.60391857948E+03  0.67624362232E+03  0.00000000000E+00 0.  1.
          3    1    6    6  503    0 -0.56411630427E+02 -0.57759737217E+03 -0.19974075331E+03  0.61375676364E+03  0.00000000000E+00 0. -1.
         -3    1    6    6    0  503 -0.24630689615E+02 -0.50814724853E+03 -0.88411516067E+02  0.51636895068E+03  0.00000000000E+00 0.  1.
<mgrwt>
<rscale>  0 0.29945829E+04</rscale>
<asrwt>0</asrwt>
<pdfrwt beam="1">  1        2 0.48245436E+00 0.29945829E+04</pdfrwt>
<pdfrwt beam="2">  1       -1 0.10998406E+00 0.29945829E+04</pdfrwt>
<totfact> 0.10592318E+00</totfact>
</mgrwt>
</event>
<event>
12    6  0.1556619E-007  0.2070413E+04  0.7818608E-02  0.8574390E-01
          2   -1    0    0  501    0  0.00000000000E+00  0.00000000000E+00  0.15252813021E+04  0.15252813021E+04  0.00000000000E+00 0. -1.
         -1   -1    0    0    0  501 -0.00000000000E+00 -0.00000000000E+00 -0.70259361912E+03  0.70259361912E+03  0.00000000000E+00 0.  1.
         24    2    1    2    0    0 -0.48368468539E+03  0.20088200031E+03  0.10439241679E+04  0.11707379333E+04  0.80902332077E+02 0.  0.
        254    2    1    2    0    0  0.48368468539E+03 -0.20088200031E+03 -0.22123648489E+03  0.10571369879E+04  0.89122868895E+03 0.  0.
         23    2    4    4    0    0 -0.24388654345E+03 -0.40993227025E+02 -0.15035602881E+03  0.30325178585E+03  0.90518614040E+02 0.  0.
         23    2    4    4    0    0  0.72757122883E+03 -0.15988877328E+03 -0.70880456087E+02  0.75388520205E+03  0.91621754851E+02 0.  0.
          4    1    3    3  502    0 -0.45724357485E+03  0.20833116886E+03  0.99171274167E+03  0.11117408532E+04  0.00000000000E+00 0. -1.
         -3    1    3    3    0  502 -0.26441110531E+02 -0.74491685532E+01  0.52211426194E+02  0.58997080126E+02  0.00000000000E+00 0.  1.
         11    1    5    5    0    0 -0.15830546099E+03 -0.67901139247E+02 -0.83852910846E+02  0.19157895069E+03  0.00000000000E+00 0.  1.
        -11    1    5    5    0    0 -0.85581082454E+02  0.26907912222E+02 -0.66503117959E+02  0.11167283516E+03  0.00000000000E+00 0. -1.
          4    1    6    6  503    0  0.64031960611E+03 -0.13983660746E+03 -0.92176462631E+02  0.66186099372E+03  0.00000000000E+00 0.  1.
         -4    1    6    6    0  503  0.87251622729E+02 -0.20052165819E+02  0.21296006545E+02  0.92024208323E+02  0.00000000000E+00 0. -1.
<mgrwt>
<rscale>  0 0.20704134E+04</rscale>
<asrwt>0</asrwt>
<pdfrwt beam="1">  1        2 0.23465866E+00 0.20704134E+04</pdfrwt>
<pdfrwt beam="2">  1       -1 0.10809133E+00 0.20704134E+04</pdfrwt>
<totfact> 0.10282424E+01</totfact>
</mgrwt>
</event>
<event>
12    6  0.1556619E-007  0.1973538E+04  0.7818608E-02  0.8619093E-01
         -1   -1    0    0    0  501 -0.00000000000E+00  0.00000000000E+00  0.49480608054E+03  0.49480608054E+03  0.00000000000E+00 0.  1.
          2   -1    0    0  501    0  0.00000000000E+00 -0.00000000000E+00 -0.19678682771E+04  0.19678682771E+04  0.00000000000E+00 0. -1.
         24    2    1    2    0    0  0.38514652186E+03  0.26309797263E+03  0.18996513826E+03  0.51052295660E+03  0.83597541567E+02 0.  0.
        254    2    1    2    0    0 -0.38514652186E+03 -0.26309797263E+03 -0.16630273348E+04  0.19521514011E+04  0.90976743717E+03 0.  0.
         23    2    4    4    0    0 -0.45525064305E+03 -0.37920369212E+03 -0.50836271161E+03  0.78592332541E+03  0.90522034623E+02 0.  0.
         23    2    4    4    0    0  0.70104121193E+02  0.11610571950E+03 -0.11546646232E+04  0.11662280757E+04  0.91882568413E+02 0.  0.
          2    1    3    3  502    0  0.42253833670E+02  0.54306012008E+02  0.51166988152E+02  0.85747245300E+02  0.00000000000E+00 0. -1.
         -1    1    3    3    0  502  0.34289268819E+03  0.20879196062E+03  0.13879815011E+03  0.42477571130E+03  0.00000000000E+00 0.  1.
         11    1    5    5    0    0 -0.18275389321E+03 -0.13074407639E+03 -0.14030815707E+03  0.26491390665E+03  0.00000000000E+00 0. -1.
        -11    1    5    5    0    0 -0.27249674985E+03 -0.24845961573E+03 -0.36805455454E+03  0.52100941877E+03  0.00000000000E+00 0.  1.
          2    1    6    6  503    0 -0.11251554435E+02  0.35448444327E+02 -0.51838064760E+03  0.51971307996E+03  0.00000000000E+00 0. -1.
         -2    1    6    6    0  503  0.81355675628E+02  0.80657275170E+02 -0.63628397564E+03  0.64651499569E+03  0.00000000000E+00 0.  1.
<mgrwt>
<rscale>  0 0.19735381E+04</rscale>
<asrwt>0</asrwt>
<pdfrwt beam="1">  1        2 0.30274896E+00 0.19735381E+04</pdfrwt>
<pdfrwt beam="2">  1       -1 0.76124015E-01 0.19735381E+04</pdfrwt>
<totfact> 0.12789201E+01</totfact>
</mgrwt>
</event>
<event>
12    6  0.1556619E-007  0.1230750E+04  0.7818608E-02  0.9086359E-01
         -1   -1    0    0    0  501 -0.00000000000E+00  0.00000000000E+00  0.60807497694E+03  0.60807497694E+03  0.00000000000E+00 0.  1.
          2   -1    0    0  501    0  0.00000000000E+00 -0.00000000000E+00 -0.62276227423E+03  0.62276227423E+03  0.00000000000E+00 0. -1.
         24    2    1    2    0    0 -0.13010507649E+03 -0.12507999969E+02  0.24683679286E+03  0.29060496017E+03  0.80243751007E+02 0.  0.
        254    2    1    2    0    0  0.13010507649E+03  0.12507999969E+02 -0.26152409015E+03  0.94023229100E+03  0.89362079783E+03 0.  0.
         23    2    4    4    0    0  0.46832386294E+03  0.15649040690E+03 -0.25022236942E+03  0.56121556060E+03  0.92386055486E+02 0.  0.
         23    2    4    4    0    0 -0.33821878644E+03 -0.14398240693E+03 -0.11301720726E+02  0.37901673040E+03  0.91668271640E+02 0.  0.
          2    1    3    3  502    0  0.31346333500E+01 -0.19677305932E+02  0.30780838036E+02  0.36667182673E+02  0.00000000000E+00 0. -1.
         -1    1    3    3    0  502 -0.13323970984E+03  0.71693059629E+01  0.21605595482E+03  0.25393777750E+03  0.00000000000E+00 0.  1.
         11    1    5    5    0    0  0.40840066856E+03  0.10131650557E+03 -0.20526154191E+03  0.46817565183E+03  0.00000000000E+00 0. -1.
        -11    1    5    5    0    0  0.59923194380E+02  0.55173901331E+02 -0.44960827511E+02  0.93039908767E+02  0.00000000000E+00 0.  1.
          3    1    6    6  503    0 -0.19937035747E+03 -0.42758804845E+02  0.18041188758E+02  0.20470060899E+03  0.00000000000E+00 0. -1.
         -3    1    6    6    0  503 -0.13884842898E+03 -0.10122360208E+03 -0.29342909484E+02  0.17431612142E+03  0.00000000000E+00 0.  1.
<mgrwt>
<rscale>  0 0.12307496E+04</rscale>
<asrwt>0</asrwt>
<pdfrwt beam="1">  1        2 0.95809581E-01 0.12307496E+04</pdfrwt>
<pdfrwt beam="2">  1       -1 0.93549996E-01 0.12307496E+04</pdfrwt>
<totfact> 0.59146043E+01</totfact>
</mgrwt>
</event>
<event>
12    6  0.1556619E-007  0.1724139E+04  0.7818608E-02  0.8747716E-01
          2   -1    0    0  501    0  0.00000000000E+00  0.00000000000E+00  0.13400328274E+04  0.13400328274E+04  0.00000000000E+00 0. -1.
         -1   -1    0    0    0  501 -0.00000000000E+00 -0.00000000000E+00 -0.55458617984E+03  0.55458617984E+03  0.00000000000E+00 0.  1.
         24    2    1    2    0    0 -0.37127332338E+03 -0.22772006812E+03 -0.21138859084E+03  0.49047808528E+03  0.78633998550E+02 0.  0.
        254    2    1    2    0    0  0.37127332338E+03  0.22772006812E+03  0.99683523836E+03  0.14041409219E+04  0.88782370214E+03 0.  0.
         23    2    4    4    0    0 -0.17206183335E+03  0.16951388345E+03 -0.69769061113E+01  0.25767170939E+03  0.89475144170E+02 0.  0.
         23    2    4    4    0    0  0.54333515672E+03  0.58206184666E+02  0.10038121445E+04  0.11464692125E+04  0.90287216219E+02 0.  0.
          2    1    3    3  502    0 -0.79719808525E+02 -0.13651480657E+02 -0.37774337731E+02  0.89266518843E+02  0.00000000000E+00 0. -1.
         -1    1    3    3    0  502 -0.29155351485E+03 -0.21406858746E+03 -0.17361425311E+03  0.40121156644E+03  0.00000000000E+00 0.  1.
         11    1    5    5    0    0 -0.17603833637E+03  0.17651985330E+03 -0.86392348763E+01  0.24944616827E+03  0.00000000000E+00 0. -1.
        -11    1    5    5    0    0  0.39765030287E+01 -0.70059698500E+01  0.16623287650E+01  0.82255411250E+01  0.00000000000E+00 0.  1.
          3    1    6    6  503    0  0.42973233115E+03  0.68268907175E+02  0.85102208897E+03  0.95580809583E+03  0.00000000000E+00 0. -1.
         -3    1    6    6    0  503  0.11360282557E+03 -0.10062722509E+02  0.15279005550E+03  0.19066111670E+03  0.00000000000E+00 0.  1.
<mgrwt>
<rscale>  0 0.17241388E+04</rscale>
<asrwt>0</asrwt>
<pdfrwt beam="1">  1        2 0.20615890E+00 0.17241388E+04</pdfrwt>
<pdfrwt beam="2">  1       -1 0.85320951E-01 0.17241388E+04</pdfrwt>
<totfact> 0.23035565E+01</totfact>
</mgrwt>
</event>
<event>
12    6  0.1556619E-007  0.1308491E+04  0.7818608E-02  0.9022859E-01
          2   -1    0    0  501    0  0.00000000000E+00  0.00000000000E+00  0.66687789409E+03  0.66687789409E+03  0.00000000000E+00 0. -1.
         -1   -1    0    0    0  501 -0.00000000000E+00 -0.00000000000E+00 -0.64185234991E+03  0.64185234991E+03  0.00000000000E+00 0.  1.
         24    2    1    2    0    0 -0.11442763393E+03  0.14054437442E+03 -0.28974915230E+03  0.35087249555E+03  0.79438858805E+02 0.  0.
        254    2    1    2    0    0  0.11442763393E+03 -0.14054437442E+03  0.31477469648E+03  0.95785774845E+03  0.88631932853E+03 0.  0.
         23    2    4    4    0    0  0.46708626806E+03 -0.49072346770E+02  0.16902496765E+02  0.47848135081E+03  0.89894558531E+02 0.  0.
         23    2    4    4    0    0 -0.35265863413E+03 -0.91472027648E+02  0.29787219972E+03  0.47937639764E+03  0.91316149613E+02 0.  0.
          2    1    3    3  502    0 -0.57757110216E+02  0.16700483128E+02 -0.69300171109E+02  0.91745864391E+02  0.00000000000E+00 0. -1.
         -1    1    3    3    0  502 -0.56670523712E+02  0.12384389129E+03 -0.22044898119E+03  0.25912663116E+03  0.00000000000E+00 0.  1.
         11    1    5    5    0    0  0.39080069815E+03 -0.63425709935E+02  0.38845768003E+02  0.39781528383E+03  0.00000000000E+00 0. -1.
        -11    1    5    5    0    0  0.76285569908E+02  0.14353363164E+02 -0.21943271238E+02  0.80666066986E+02  0.00000000000E+00 0.  1.
          2    1    6    6  503    0 -0.22627433929E+03 -0.56261990749E+02  0.24416368749E+03  0.33761130685E+03  0.00000000000E+00 0. -1.
         -2    1    6    6    0  503 -0.12638429484E+03 -0.35210036900E+02  0.53708512229E+02  0.14176509079E+03  0.00000000000E+00 0.  1.
<mgrwt>
<rscale>  0 0.13084910E+04</rscale>
<asrwt>0</asrwt>
<pdfrwt beam="1">  1        2 0.10259660E+00 0.13084910E+04</pdfrwt>
<pdfrwt beam="2">  1       -1 0.98746515E-01 0.13084910E+04</pdfrwt>
<totfact> 0.47835546E+01</totfact>
</mgrwt>
</event>
<event>
12    6  0.1556619E-007  0.1740251E+04  0.7818608E-02  0.8738735E-01
         -1   -1    0    0    0  501 -0.00000000000E+00  0.00000000000E+00  0.48446786733E+03  0.48446786733E+03  0.00000000000E+00 0.  1.
          2   -1    0    0  501    0  0.00000000000E+00 -0.00000000000E+00 -0.15627838681E+04  0.15627838681E+04  0.00000000000E+00 0. -1.
         24    2    1    2    0    0 -0.36838801520E+03  0.49443492758E+03 -0.56167805033E+03  0.83808554137E+03  0.82033621613E+02 0.  0.
        254    2    1    2    0    0  0.36838801520E+03 -0.49443492758E+03 -0.51663795042E+03  0.12091661940E+04  0.90276934244E+03 0.  0.
         23    2    4    4    0    0 -0.17896661218E+03  0.13320268612E+03 -0.43249947774E+02  0.24690559100E+03  0.96539157955E+02 0.  0.
         23    2    4    4    0    0  0.54735462738E+03 -0.62763761371E+03 -0.47338800265E+03  0.96226060304E+03  0.91231600191E+02 0.  0.
          4    1    3    3  502    0 -0.34533511539E+03  0.45957158594E+03 -0.49114550944E+03  0.75609939556E+03  0.00000000000E+00 0. -1.
         -3    1    3    3    0  502 -0.23052899809E+02  0.34863341641E+02 -0.70532540892E+02  0.81986145809E+02  0.00000000000E+00 0.  1.
         11    1    5    5    0    0  0.21182647628E+01 -0.80303353097E+01  0.80836044945E+01  0.11589563944E+02  0.00000000000E+00 0. -1.
        -11    1    5    5    0    0 -0.18108487694E+03  0.14123302143E+03 -0.51333552268E+02  0.23531602705E+03  0.00000000000E+00 0.  1.
          4    1    6    6  503    0  0.42561933258E+03 -0.53646931090E+03 -0.37007551276E+03  0.77840029737E+03  0.00000000000E+00 0.  1.
         -4    1    6    6    0  503  0.12173529480E+03 -0.91168302805E+02 -0.10331248989E+03  0.18386030567E+03  0.00000000000E+00 0. -1.
<mgrwt>
<rscale>  0 0.17402512E+04</rscale>
<asrwt>0</asrwt>
<pdfrwt beam="1">  1        2 0.24042829E+00 0.17402512E+04</pdfrwt>
<pdfrwt beam="2">  1       -1 0.74533517E-01 0.17402512E+04</pdfrwt>
<totfact> 0.22905965E+01</totfact>
</mgrwt>
</event>
<event>
12    6  0.1556619E-007  0.2923682E+04  0.7818608E-02  0.8265866E-01
         -1   -1    0    0    0  501 -0.00000000000E+00  0.00000000000E+00  0.10918754630E+04  0.10918754630E+04  0.00000000000E+00 0.  1.
          2   -1    0    0  501    0  0.00000000000E+00 -0.00000000000E+00 -0.19571632236E+04  0.19571632236E+04  0.00000000000E+00 0. -1.
         24    2    1    2    0    0  0.10608039388E+04  0.74119609603E+03 -0.73405574625E+03  0.14899570803E+04  0.80359276191E+02 0.  0.
        254    2    1    2    0    0 -0.10608039388E+04 -0.74119609603E+03 -0.13123201431E+03  0.15590816063E+04  0.85955626008E+03 0.  0.
         23    2    4    4    0    0  0.30943851955E+01  0.13411046270E+03 -0.72290236813E+02  0.17652557507E+03  0.89107849776E+02 0.  0.
         23    2    4    4    0    0 -0.10638983240E+04 -0.87530655873E+03 -0.58941777493E+02  0.13825560312E+04  0.99728786486E+02 0.  0.
          2    1    3    3  502    0  0.64766447179E+03  0.41351422686E+03 -0.40863944151E+03  0.87031573408E+03  0.00000000000E+00 0. -1.
         -1    1    3    3    0  502  0.41313946701E+03  0.32768186917E+03 -0.32541630475E+03  0.61964134625E+03  0.00000000000E+00 0.  1.
         11    1    5    5    0    0 -0.22582472053E+02 -0.10537452410E+01 -0.16841711286E+02  0.28190808113E+02  0.00000000000E+00 0. -1.
        -11    1    5    5    0    0  0.25676857248E+02  0.13516420794E+03 -0.55448525527E+02  0.14833476696E+03  0.00000000000E+00 0.  1.
          1    1    6    6  503    0 -0.99115996334E+02 -0.71647333220E+02  0.22125509597E+02  0.12428539440E+03  0.00000000000E+00 0. -1.
         -1    1    6    6    0  503 -0.96478232766E+03 -0.80365922551E+03 -0.81067287091E+02  0.12582706368E+04  0.00000000000E+00 0.  1.
<mgrwt>
<rscale>  0 0.29236816E+04</rscale>
<asrwt>0</asrwt>
<pdfrwt beam="1">  1        2 0.30110203E+00 0.29236816E+04</pdfrwt>
<pdfrwt beam="2">  1       -1 0.16798084E+00 0.29236816E+04</pdfrwt>
<totfact> 0.17613617E+00</totfact>
</mgrwt>
</event>
<event>
12    6  0.1556619E-007  0.1584326E+04  0.7818608E-02  0.8830235E-01
          2   -1    0    0  501    0  0.00000000000E+00  0.00000000000E+00  0.47281624985E+04  0.47281624985E+04  0.00000000000E+00 0. -1.
         -1   -1    0    0    0  501 -0.00000000000E+00 -0.00000000000E+00 -0.13272012623E+03  0.13272012623E+03  0.00000000000E+00 0.  1.
         24    2    1    2    0    0  0.21023365660E+03 -0.87925013293E+02  0.84788446496E+02  0.25546220425E+03  0.78376391910E+02 0.  0.
        254    2    1    2    0    0 -0.21023365660E+03  0.87925013293E+02  0.45106539258E+04  0.46054204205E+04  0.90109345409E+03 0.  0.
         23    2    4    4    0    0 -0.44314444933E+03  0.31336431661E+03  0.34061731492E+04  0.34503534132E+04  0.91372622178E+02 0.  0.
         23    2    4    4    0    0  0.23291079272E+03 -0.22543930331E+03  0.11044807766E+04  0.11550670073E+04  0.96081676447E+02 0.  0.
          2    1    3    3  502    0  0.61366940827E+02 -0.21397202468E+02 -0.11643694315E+02  0.66025126408E+02  0.00000000000E+00 0. -1.
         -1    1    3    3    0  502  0.14886671578E+03 -0.66527810825E+02  0.96432140811E+02  0.18943707784E+03  0.00000000000E+00 0.  1.
         11    1    5    5    0    0 -0.34958353820E+03  0.21835669171E+03  0.23608874688E+04  0.23965971575E+04  0.00000000000E+00 0.  1.
        -11    1    5    5    0    0 -0.93560911127E+02  0.95007624895E+02  0.10452856804E+04  0.10537562557E+04  0.00000000000E+00 0. -1.
          1    1    6    6  503    0  0.71486971307E+02 -0.84392918255E+02  0.23768320784E+03  0.26215617294E+03  0.00000000000E+00 0. -1.
         -1    1    6    6    0  503  0.16142382142E+03 -0.14104638506E+03  0.86679756877E+03  0.89291083434E+03  0.00000000000E+00 0.  1.
<mgrwt>
<rscale>  0 0.15843261E+04</rscale>
<asrwt>0</asrwt>
<pdfrwt beam="1">  1        2 0.72740948E+00 0.15843261E+04</pdfrwt>
<pdfrwt beam="2">  1       -1 0.20418485E-01 0.15843261E+04</pdfrwt>
<totfact> 0.16039280E+00</totfact>
</mgrwt>
</event>
<event>
12    6  0.1556619E-007  0.1180528E+04  0.7818608E-02  0.9130073E-01
          2   -1    0    0  501    0  0.00000000000E+00  0.00000000000E+00  0.37842421140E+04  0.37842421140E+04  0.00000000000E+00 0. -1.
         -1   -1    0    0    0  501 -0.00000000000E+00 -0.00000000000E+00 -0.92069023763E+02  0.92069023763E+02  0.00000000000E+00 0.  1.
         24    2    1    2    0    0  0.11451699321E+03  0.17659043929E+03  0.12894764014E+04  0.13087937392E+04  0.76768073069E+02 0.  0.
        254    2    1    2    0    0 -0.11451699321E+03 -0.17659043929E+03  0.24026966889E+04  0.25675173986E+04  0.88028170966E+03 0.  0.
         23    2    4    4    0    0  0.23648011068E+03  0.20754379763E+03  0.13566506598E+04  0.13954336895E+04  0.87959640258E+02 0.  0.
         23    2    4    4    0    0 -0.35099710389E+03 -0.38413423692E+03  0.10460460291E+04  0.11720837091E+04  0.93860786878E+02 0.  0.
          4    1    3    3  502    0  0.73519017866E+02  0.16568700568E+03  0.10722297704E+04  0.10874437505E+04  0.00000000000E+00 0. -1.
         -3    1    3    3    0  502  0.40997975345E+02  0.10903433605E+02  0.21724663095E+03  0.22134998872E+03  0.00000000000E+00 0.  1.
         11    1    5    5    0    0  0.21327384798E+03  0.20813050849E+03  0.11703919275E+04  0.12077339553E+04  0.00000000000E+00 0. -1.
        -11    1    5    5    0    0  0.23206262705E+02 -0.58671085808E+00  0.18625873226E+03  0.18769973415E+03  0.00000000000E+00 0.  1.
          2    1    6    6  503    0 -0.10176677116E+03 -0.16785933501E+03  0.44599708588E+03  0.48728496045E+03  0.00000000000E+00 0. -1.
         -2    1    6    6    0  503 -0.24923033273E+03 -0.21627490190E+03  0.60004894321E+03  0.68479874868E+03  0.00000000000E+00 0.  1.
<mgrwt>
<rscale>  0 0.11805278E+04</rscale>
<asrwt>0</asrwt>
<pdfrwt beam="1">  1        2 0.58219097E+00 0.11805278E+04</pdfrwt>
<pdfrwt beam="2">  1       -1 0.14164468E-01 0.11805278E+04</pdfrwt>
<totfact> 0.21245343E+01</totfact>
</mgrwt>
</event>
<event>
12    6  0.1556619E-007  0.1478982E+04  0.7818608E-02  0.8898551E-01
          2   -1    0    0  501    0  0.00000000000E+00  0.00000000000E+00  0.11560982189E+04  0.11560982189E+04  0.00000000000E+00 0. -1.
         -1   -1    0    0    0  501 -0.00000000000E+00 -0.00000000000E+00 -0.47301093648E+03  0.47301093648E+03  0.00000000000E+00 0.  1.
         24    2    1    2    0    0  0.78710462618E+02  0.45864951872E+03  0.28166281145E+03  0.55015901054E+03  0.82378878158E+02 0.  0.
        254    2    1    2    0    0 -0.78710462618E+02 -0.45864951872E+03  0.40142447102E+03  0.10789501449E+04  0.88681288403E+03 0.  0.
         23    2    4    4    0    0 -0.59016420136E+02  0.23500257069E+03 -0.24531285801E+02  0.25974859896E+03  0.90323887200E+02 0.  0.
         23    2    4    4    0    0 -0.19694042482E+02 -0.69365208942E+03  0.42595575682E+03  0.81920154593E+03  0.90065474135E+02 0.  0.
          4    1    3    3  502    0  0.32959615649E+02  0.59423369452E+02  0.63077355109E+02  0.92715833752E+02  0.00000000000E+00 0. -1.
         -3    1    3    3    0  502  0.45750846968E+02  0.39922614927E+03  0.21858545635E+03  0.45744317678E+03  0.00000000000E+00 0.  1.
         11    1    5    5    0    0  0.16471342285E+02  0.62021298288E+02  0.17239240197E+02  0.66446504502E+02  0.00000000000E+00 0. -1.
        -11    1    5    5    0    0 -0.75487762421E+02  0.17298127241E+03 -0.41770525998E+02  0.19330209445E+03  0.00000000000E+00 0.  1.
          3    1    6    6  503    0 -0.90028887918E+01 -0.68697892643E+03  0.41627093736E+03  0.80330728284E+03  0.00000000000E+00 0. -1.
         -3    1    6    6    0  503 -0.10691153690E+02 -0.66731629857E+01  0.96848194576E+01  0.15894263097E+02  0.00000000000E+00 0.  1.
<mgrwt>
<rscale>  0 0.14789822E+04</rscale>
<asrwt>0</asrwt>
<pdfrwt beam="1">  1        2 0.17786126E+00 0.14789822E+04</pdfrwt>
<pdfrwt beam="2">  1       -1 0.72770914E-01 0.14789822E+04</pdfrwt>
<totfact> 0.42303212E+01</totfact>
</mgrwt>
</event>
<event>
12    6  0.1556619E-007  0.2413964E+04  0.7818608E-02  0.8434294E-01
         -1   -1    0    0    0  501 -0.00000000000E+00  0.00000000000E+00  0.10101642469E+04  0.10101642469E+04  0.00000000000E+00 0.  1.
          2   -1    0    0  501    0  0.00000000000E+00 -0.00000000000E+00 -0.14421472575E+04  0.14421472575E+04  0.00000000000E+00 0. -1.
         24    2    1    2    0    0  0.58922149598E+03  0.38564711085E+02  0.67857200085E+03  0.90307827675E+03  0.80132423699E+02 0.  0.
        254    2    1    2    0    0 -0.58922149598E+03 -0.38564711085E+02 -0.11105550114E+04  0.15492332276E+04  0.90450094088E+03 0.  0.
         23    2    4    4    0    0 -0.49025554896E+03 -0.15802228890E+03 -0.12246633625E+04  0.13317702784E+04  0.92142150638E+02 0.  0.
         23    2    4    4    0    0 -0.98965947016E+02  0.11945757781E+03  0.11410835108E+03  0.21746294926E+03  0.10102003241E+03 0.  0.
          2    1    3    3  502    0  0.11609242002E+03  0.33892820424E+02  0.16767013237E+03  0.20673520879E+03  0.00000000000E+00 0. -1.
         -1    1    3    3    0  502  0.47312907596E+03  0.46718906605E+01  0.51090186848E+03  0.69634306796E+03  0.00000000000E+00 0.  1.
         11    1    5    5    0    0 -0.33657262558E+03 -0.14182991929E+03 -0.92763735512E+03  0.99694930709E+03  0.00000000000E+00 0. -1.
        -11    1    5    5    0    0 -0.15368292338E+03 -0.16192369611E+02 -0.29702600735E+03  0.33482097129E+03  0.00000000000E+00 0.  1.
          3    1    6    6  503    0 -0.11420033097E+03  0.10742314843E+03  0.74998175512E+02  0.17379923689E+03  0.00000000000E+00 0. -1.
         -3    1    6    6    0  503  0.15234383954E+02  0.12034429381E+02  0.39110175573E+02  0.43663712374E+02  0.00000000000E+00 0.  1.
<mgrwt>
<rscale>  0 0.24139640E+04</rscale>
<asrwt>0</asrwt>
<pdfrwt beam="1">  1        2 0.22186881E+00 0.24139640E+04</pdfrwt>
<pdfrwt beam="2">  1       -1 0.15540988E+00 0.24139640E+04</pdfrwt>
<totfact> 0.44383015E+00</totfact>
</mgrwt>
</event>
<event>
12    6  0.1556619E-007  0.1834361E+04  0.7818608E-02  0.8688237E-01
          2   -1    0    0  501    0  0.00000000000E+00  0.00000000000E+00  0.32197820971E+04  0.32197820971E+04  0.00000000000E+00 0. -1.
         -1   -1    0    0    0  501 -0.00000000000E+00 -0.00000000000E+00 -0.26126610515E+03  0.26126610515E+03  0.00000000000E+00 0.  1.
         24    2    1    2    0    0 -0.27621129976E+03  0.44988068570E+03  0.19951583069E+04  0.20653718513E+04  0.80118043327E+02 0.  0.
        254    2    1    2    0    0  0.27621129976E+03 -0.44988068570E+03  0.96335768505E+03  0.14156763510E+04  0.89297042949E+03 0.  0.
         23    2    4    4    0    0 -0.22837460688E+03 -0.42493138193E+03  0.64711972841E+03  0.81236565316E+03  0.91936777846E+02 0.  0.
         23    2    4    4    0    0  0.50458590664E+03 -0.24949303773E+02  0.31623795664E+03  0.60331069783E+03  0.93530465450E+02 0.  0.
          2    1    3    3  502    0 -0.25419714611E+03  0.38102341359E+03  0.16302816941E+04  0.16934029152E+04  0.00000000000E+00 0. -1.
         -1    1    3    3    0  502 -0.22014153645E+02  0.68857272106E+02  0.36487661279E+03  0.37196893612E+03  0.00000000000E+00 0.  1.
         11    1    5    5    0    0 -0.78339585876E+02 -0.72653235205E+02  0.11725707918E+03  0.15863418899E+03  0.00000000000E+00 0. -1.
        -11    1    5    5    0    0 -0.15003502101E+03 -0.35227814672E+03  0.52986264924E+03  0.65373146417E+03  0.00000000000E+00 0.  1.
          3    1    6    6  503    0  0.35084621265E+02  0.13517545215E+02  0.32519811524E+01  0.37738972686E+02  0.00000000000E+00 0. -1.
         -3    1    6    6    0  503  0.46950128537E+03 -0.38466848988E+02  0.31298597549E+03  0.56557172515E+03  0.00000000000E+00 0.  1.
<mgrwt>
<rscale>  0 0.18343608E+04</rscale>
<asrwt>0</asrwt>
<pdfrwt beam="1">  1        2 0.49535106E+00 0.18343608E+04</pdfrwt>
<pdfrwt beam="2">  1       -1 0.40194788E-01 0.18343608E+04</pdfrwt>
<totfact> 0.81861913E+00</totfact>
</mgrwt>
</event>
<event>
12    6  0.1556619E-007  0.1425801E+04  0.7818608E-02  0.8935351E-01
         -1   -1    0    0    0  501 -0.00000000000E+00  0.00000000000E+00  0.46364551463E+03  0.46364551463E+03  0.00000000000E+00 0.  1.
          2   -1    0    0  501    0  0.00000000000E+00 -0.00000000000E+00 -0.10961547438E+04  0.10961547438E+04  0.00000000000E+00 0. -1.
         24    2    1    2    0    0 -0.40218942344E+03 -0.20254912286E+02 -0.40935243063E+02  0.41260907356E+03  0.80024744020E+02 0.  0.
        254    2    1    2    0    0  0.40218942344E+03  0.20254912286E+02 -0.59157398608E+03  0.11471911848E+04  0.89661655114E+03 0.  0.
         23    2    4    4    0    0 -0.13871978122E+03 -0.16923444130E+03 -0.50849999271E+03  0.56058503676E+03  0.88316855868E+02 0.  0.
         23    2    4    4    0    0  0.54090920466E+03  0.18948935359E+03 -0.83073993368E+02  0.58660614808E+03  0.93362207494E+02 0.  0.
          4    1    3    3  502    0 -0.39093386070E+03 -0.72538082860E+01 -0.48161351074E+02  0.39395611039E+03  0.00000000000E+00 0. -1.
         -3    1    3    3    0  502 -0.11255562742E+02 -0.13001104000E+02  0.72261080116E+01  0.18652963166E+02  0.00000000000E+00 0.  1.
         11    1    5    5    0    0 -0.10584872984E+03 -0.84972203304E+02 -0.22260799070E+03  0.26072695769E+03  0.00000000000E+00 0.  1.
        -11    1    5    5    0    0 -0.32871051379E+02 -0.84262237998E+02 -0.28589200200E+03  0.29985807907E+03  0.00000000000E+00 0. -1.
          1    1    6    6  503    0  0.28671979693E+03  0.14408424320E+03 -0.24417140202E+02  0.32181471040E+03  0.00000000000E+00 0. -1.
         -1    1    6    6    0  503  0.25418940773E+03  0.45405110388E+02 -0.58656853165E+02  0.26479143769E+03  0.00000000000E+00 0.  1.
<mgrwt>
<rscale>  0 0.14258012E+04</rscale>
<asrwt>0</asrwt>
<pdfrwt beam="1">  1        2 0.16863919E+00 0.14258012E+04</pdfrwt>
<pdfrwt beam="2">  1       -1 0.71330080E-01 0.14258012E+04</pdfrwt>
<totfact> 0.48179425E+01</totfact>
</mgrwt>
</event>
<event>
12    6  0.1556619E-007  0.1320339E+04  0.7818608E-02  0.9013590E-01
         -1   -1    0    0    0  501 -0.00000000000E+00  0.00000000000E+00  0.53983340480E+03  0.53983340480E+03  0.00000000000E+00 0.  1.
          2   -1    0    0  501    0  0.00000000000E+00 -0.00000000000E+00 -0.80732996445E+03  0.80732996445E+03  0.00000000000E+00 0. -1.
         24    2    1    2    0    0  0.15990664976E+02 -0.42745653749E+02 -0.42966616305E+03  0.43941736220E+03  0.79948197294E+02 0.  0.
        254    2    1    2    0    0 -0.15990664976E+02  0.42745653749E+02  0.16216960339E+03  0.90774600705E+03  0.89197586334E+03 0.  0.
         23    2    4    4    0    0 -0.17890142508E+03  0.39476525095E+03 -0.70017523802E+02  0.44833960804E+03  0.90887992844E+02 0.  0.
         23    2    4    4    0    0  0.16291076011E+03 -0.35201959720E+03  0.23218712719E+03  0.45940639901E+03  0.81765914946E+02 0.  0.
          4    1    3    3  502    0 -0.63597826721E+01  0.39735308992E+01 -0.29560656060E+03  0.29570166461E+03  0.00000000000E+00 0. -1.
         -3    1    3    3    0  502  0.22350447648E+02 -0.46719184648E+02 -0.13405960245E+03  0.14371569759E+03  0.00000000000E+00 0.  1.
         11    1    5    5    0    0 -0.86249663005E+02  0.22212285082E+03  0.55345363936E+01  0.23834470062E+03  0.00000000000E+00 0.  1.
        -11    1    5    5    0    0 -0.92651762077E+02  0.17264240014E+03 -0.75552060195E+02  0.20999490742E+03  0.00000000000E+00 0. -1.
          1    1    6    6  503    0  0.13426031343E+03 -0.32790222555E+03  0.22886057316E+03  0.42180903645E+03  0.00000000000E+00 0. -1.
         -1    1    6    6    0  503  0.28650446674E+02 -0.24117371658E+02  0.33265540336E+01  0.37597362567E+02  0.00000000000E+00 0.  1.
<mgrwt>
<rscale>  0 0.13203389E+04</rscale>
<asrwt>0</asrwt>
<pdfrwt beam="1">  1        2 0.12420461E+00 0.13203389E+04</pdfrwt>
<pdfrwt beam="2">  1       -1 0.83051294E-01 0.13203389E+04</pdfrwt>
<totfact> 0.54764270E+01</totfact>
</mgrwt>
</event>
<event>
12    6  0.1556619E-007  0.2914155E+04  0.7818608E-02  0.8268678E-01
         -1   -1    0    0    0  501 -0.00000000000E+00  0.00000000000E+00  0.72314461819E+03  0.72314461819E+03  0.00000000000E+00 0.  1.
          2   -1    0    0  501    0  0.00000000000E+00 -0.00000000000E+00 -0.29358922593E+04  0.29358922593E+04  0.00000000000E+00 0. -1.
         24    2    1    2    0    0  0.31341437447E+03 -0.11710232249E+04 -0.35789563821E+03  0.12665838959E+04  0.81372686813E+02 0.  0.
        254    2    1    2    0    0 -0.31341437447E+03  0.11710232249E+04 -0.18548520029E+04  0.23924529815E+04  0.90212601835E+03 0.  0.
         23    2    4    4    0    0  0.20745530899E+03  0.86581754068E+03 -0.12025923425E+04  0.14989532768E+04  0.89190047770E+02 0.  0.
         23    2    4    4    0    0 -0.52086968347E+03  0.30520568421E+03 -0.65225966035E+03  0.89349970479E+03  0.91887546004E+02 0.  0.
          4    1    3    3  502    0  0.20172933367E+03 -0.81093946627E+03 -0.21025115922E+03  0.86169779620E+03  0.00000000000E+00 0. -1.
         -3    1    3    3    0  502  0.11168504080E+03 -0.36008375862E+03 -0.14764447899E+03  0.40488609971E+03  0.00000000000E+00 0.  1.
         11    1    5    5    0    0 -0.40394462642E+01  0.19537178250E+02 -0.47235690499E+02  0.51276007226E+02  0.00000000000E+00 0.  1.
        -11    1    5    5    0    0  0.21149475526E+03  0.84628036243E+03 -0.11553566520E+04  0.14476772695E+04  0.00000000000E+00 0. -1.
          1    1    6    6  503    0 -0.34481292504E+03  0.16356334397E+03 -0.36571039497E+03  0.52857640295E+03  0.00000000000E+00 0. -1.
         -1    1    6    6    0  503 -0.17605675843E+03  0.14164234024E+03 -0.28654926538E+03  0.36492330184E+03  0.00000000000E+00 0.  1.
<mgrwt>
<rscale>  0 0.29141549E+04</rscale>
<asrwt>0</asrwt>
<pdfrwt beam="1">  1        2 0.45167573E+00 0.29141549E+04</pdfrwt>
<pdfrwt beam="2">  1       -1 0.11125302E+00 0.29141549E+04</pdfrwt>
<totfact> 0.13886942E+00</totfact>
</mgrwt>
</event>
<event>
12    6  0.1556619E-007  0.2414576E+04  0.7818608E-02  0.8434067E-01
         -1   -1    0    0    0  501 -0.00000000000E+00  0.00000000000E+00  0.26366956676E+04  0.26366956676E+04  0.00000000000E+00 0.  1.
          2   -1    0    0  501    0  0.00000000000E+00 -0.00000000000E+00 -0.55279190288E+03  0.55279190288E+03  0.00000000000E+00 0. -1.
         24    2    1    2    0    0 -0.47322600166E+03  0.69753989215E+03  0.17157568103E+04  0.19132974740E+04  0.79881426471E+02 0.  0.
        254    2    1    2    0    0  0.47322600166E+03 -0.69753989215E+03  0.36814695444E+03  0.12761900965E+04  0.88466051820E+03 0.  0.
         23    2    4    4    0    0  0.56838589605E+02 -0.97203103263E+00 -0.23577444356E+03  0.26055214472E+03  0.95216919566E+02 0.  0.
         23    2    4    4    0    0  0.41638741206E+03 -0.69656786112E+03  0.60392139800E+03  0.10156379517E+04  0.90631848766E+02 0.  0.
          4    1    3    3  502    0 -0.25806058758E+03  0.39092676801E+03  0.86385234765E+03  0.98267994960E+03  0.00000000000E+00 0. -1.
         -3    1    3    3    0  502 -0.21516541408E+03  0.30661312414E+03  0.85190446264E+03  0.93061752443E+03  0.00000000000E+00 0.  1.
         11    1    5    5    0    0  0.67045369317E+02 -0.27817744161E+02 -0.11182080068E+03  0.13331466499E+03  0.00000000000E+00 0. -1.
        -11    1    5    5    0    0 -0.10206779712E+02  0.26845713128E+02 -0.12395364288E+03  0.12723747973E+03  0.00000000000E+00 0.  1.
          3    1    6    6  503    0  0.15587061912E+03 -0.33071244107E+03  0.30505530068E+03  0.47615659719E+03  0.00000000000E+00 0. -1.
         -3    1    6    6    0  503  0.26051679294E+03 -0.36585542005E+03  0.29886609732E+03  0.53948135455E+03  0.00000000000E+00 0.  1.
<mgrwt>
<rscale>  0 0.24145758E+04</rscale>
<asrwt>0</asrwt>
<pdfrwt beam="1">  1        2 0.85044910E-01 0.24145758E+04</pdfrwt>
<pdfrwt beam="2">  1       -1 0.40564548E+00 0.24145758E+04</pdfrwt>
<totfact> 0.36718669E-01</totfact>
</mgrwt>
</event>
<event>
12    6  0.1556619E-007  0.1356419E+04  0.7818608E-02  0.8985983E-01
          2   -1    0    0  501    0  0.00000000000E+00  0.00000000000E+00  0.29020316474E+04  0.29020316474E+04  0.00000000000E+00 0. -1.
         -1   -1    0    0    0  501 -0.00000000000E+00 -0.00000000000E+00 -0.15849861733E+03  0.15849861733E+03  0.00000000000E+00 0.  1.
         24    2    1    2    0    0 -0.16282966211E+03  0.27026077998E+03  0.37779483242E+03  0.49740245705E+03  0.71595256935E+02 0.  0.
        254    2    1    2    0    0  0.16282966211E+03 -0.27026077998E+03  0.23657381976E+04  0.25631278076E+04  0.93453333310E+03 0.  0.
         23    2    4    4    0    0  0.37567228510E+03  0.85152211560E+02  0.18710886957E+04  0.19124426751E+04  0.89908361356E+02 0.  0.
         23    2    4    4    0    0 -0.21284262299E+03 -0.35541299154E+03  0.49464950187E+03  0.65068513251E+03  0.84217784661E+02 0.  0.
          2    1    3    3  502    0 -0.54842935192E+02  0.14380106084E+03  0.21739166672E+03  0.26635620774E+03  0.00000000000E+00 0. -1.
         -1    1    3    3    0  502 -0.10798672692E+03  0.12645971914E+03  0.16040316570E+03  0.23104624931E+03  0.00000000000E+00 0.  1.
         11    1    5    5    0    0  0.56554442137E+02 -0.17465552182E+02  0.23233515867E+03  0.23975628541E+03  0.00000000000E+00 0.  1.
        -11    1    5    5    0    0  0.31911784296E+03  0.10261776374E+03  0.16387535371E+04  0.16726863897E+04  0.00000000000E+00 0. -1.
          1    1    6    6  503    0 -0.18948975480E+03 -0.28908367973E+03  0.36181532047E+03  0.50038591825E+03  0.00000000000E+00 0. -1.
         -1    1    6    6    0  503 -0.23352868196E+02 -0.66329311810E+02  0.13283418140E+03  0.15029921426E+03  0.00000000000E+00 0.  1.
<mgrwt>
<rscale>  0 0.13564188E+04</rscale>
<asrwt>0</asrwt>
<pdfrwt beam="1">  1        2 0.44646637E+00 0.13564188E+04</pdfrwt>
<pdfrwt beam="2">  1       -1 0.24384405E-01 0.13564188E+04</pdfrwt>
<totfact> 0.32849122E+01</totfact>
</mgrwt>
</event>
<event>
12    6  0.1556619E-007  0.1506777E+04  0.7818608E-02  0.8879959E-01
         -1   -1    0    0    0  501 -0.00000000000E+00  0.00000000000E+00  0.27981439205E+03  0.27981439205E+03  0.00000000000E+00 0.  1.
          2   -1    0    0  501    0  0.00000000000E+00 -0.00000000000E+00 -0.20284663791E+04  0.20284663791E+04  0.00000000000E+00 0. -1.
         24    2    1    2    0    0  0.49082784447E+02  0.13178763408E+03 -0.12836100930E+04  0.12937876975E+04  0.80340744089E+02 0.  0.
        254    2    1    2    0    0 -0.49082784447E+02 -0.13178763408E+03 -0.46504189401E+03  0.10144930736E+04  0.89059257405E+03 0.  0.
         23    2    4    4    0    0 -0.19505201495E+03  0.79434531907E+02 -0.64750186831E+03  0.68701336842E+03  0.91507188456E+02 0.  0.
         23    2    4    4    0    0  0.14596923050E+03 -0.21122216599E+03  0.18245997430E+03  0.32747970517E+03  0.89607451809E+02 0.  0.
          2    1    3    3  502    0  0.24403885430E+02  0.11172304571E+03 -0.11767766412E+04  0.11823201139E+04  0.00000000000E+00 0. -1.
         -1    1    3    3    0  502  0.24678899017E+02  0.20064588378E+02 -0.10683345184E+03  0.11146758361E+03  0.00000000000E+00 0.  1.
         11    1    5    5    0    0 -0.14748790990E+03  0.90113539254E+02 -0.56839441439E+03  0.59409203313E+03  0.00000000000E+00 0. -1.
        -11    1    5    5    0    0 -0.47564105051E+02 -0.10679007347E+02 -0.79107453918E+02  0.92921335293E+02  0.00000000000E+00 0.  1.
          4    1    6    6  503    0  0.13981079584E+03 -0.13189140896E+03  0.12378036001E+03  0.22861316653E+03  0.00000000000E+00 0. -1.
         -4    1    6    6    0  503  0.61584346661E+01 -0.79330757034E+02  0.58679614290E+02  0.98866538639E+02  0.00000000000E+00 0.  1.
<mgrwt>
<rscale>  0 0.15067768E+04</rscale>
<asrwt>0</asrwt>
<pdfrwt beam="1">  1        2 0.31207174E+00 0.15067768E+04</pdfrwt>
<pdfrwt beam="2">  1       -1 0.43048369E-01 0.15067768E+04</pdfrwt>
<totfact> 0.37707813E+01</totfact>
</mgrwt>
</event>
<event>
12    6  0.1556619E-007  0.1298596E+04  0.7818608E-02  0.9030679E-01
         -3   -1    0    0    0  501 -0.00000000000E+00  0.00000000000E+00  0.20841344949E+03  0.20841344949E+03  0.00000000000E+00 0.  1.
          2   -1    0    0  501    0  0.00000000000E+00 -0.00000000000E+00 -0.20228443559E+04  0.20228443559E+04  0.00000000000E+00 0. -1.
         24    2    1    2    0    0 -0.39607439642E+02  0.21414686632E+03 -0.45590812223E+02  0.23653257437E+03  0.80258999170E+02 0.  0.
        254    2    1    2    0    0  0.39607439642E+02 -0.21414686632E+03 -0.17688400941E+04  0.19947252310E+04  0.89593852400E+03 0.  0.
         23    2    4    4    0    0 -0.33252254472E+03 -0.62664360252E+02 -0.14002840686E+04  0.14431935402E+04  0.86683659910E+02 0.  0.
         23    2    4    4    0    0  0.37212998436E+03 -0.15148250607E+03 -0.36855602554E+03  0.55153169077E+03  0.83222515322E+02 0.  0.
          4    1    3    3  502    0  0.10566721749E+02  0.51367897331E+01 -0.15558876798E+02  0.19496688552E+02  0.00000000000E+00 0. -1.
         -3    1    3    3    0  502 -0.50174161390E+02  0.20901007659E+03 -0.30031935425E+02  0.21703588582E+03  0.00000000000E+00 0.  1.
         11    1    5    5    0    0 -0.79403916810E+02  0.32364042024E-01 -0.20603586803E+03  0.22080706956E+03  0.00000000000E+00 0.  1.
        -11    1    5    5    0    0 -0.25311862791E+03 -0.62696724294E+02 -0.11942482006E+04  0.12223864706E+04  0.00000000000E+00 0. -1.
          4    1    6    6  503    0  0.36814383180E+03 -0.14083058343E+03 -0.36929896262E+03  0.54013411105E+03  0.00000000000E+00 0. -1.
         -4    1    6    6    0  503  0.39861525607E+01 -0.10651922637E+02  0.74293707906E+00  0.11397579725E+02  0.00000000000E+00 0.  1.
<mgrwt>
<rscale>  0 0.12985961E+04</rscale>
<asrwt>0</asrwt>
<pdfrwt beam="1">  1        2 0.31120682E+00 0.12985961E+04</pdfrwt>
<pdfrwt beam="2">  1       -3 0.32063609E-01 0.12985961E+04</pdfrwt>
<totfact> 0.39312934E+01</totfact>
</mgrwt>
</event>
<event>
12    6  0.1556619E-007  0.2069373E+04  0.7818608E-02  0.8574856E-01
          2   -1    0    0  501    0  0.00000000000E+00  0.00000000000E+00  0.51919961361E+03  0.51919961361E+03  0.00000000000E+00 0. -1.
         -1   -1    0    0    0  501 -0.00000000000E+00 -0.00000000000E+00 -0.20619739489E+04  0.20619739489E+04  0.00000000000E+00 0.  1.
         24    2    1    2    0    0  0.48615143831E+03 -0.59193883462E+03 -0.10735566730E+04  0.13212506274E+04  0.80277551778E+02 0.  0.
        254    2    1    2    0    0 -0.48615143831E+03  0.59193883462E+03 -0.46921766231E+03  0.12599229351E+04  0.88346238346E+03 0.  0.
         23    2    4    4    0    0  0.11731830244E+03  0.16311828453E+02  0.15347472434E+03  0.21512360129E+03  0.93241691260E+02 0.  0.
         23    2    4    4    0    0 -0.60346974075E+03  0.57562700617E+03 -0.62269238665E+03  0.10447993339E+04  0.91310795637E+02 0.  0.
          2    1    3    3  502    0  0.13025479532E+03 -0.17109460754E+03 -0.24329409229E+03  0.32470246654E+03  0.00000000000E+00 0. -1.
         -1    1    3    3    0  502  0.35589664300E+03 -0.42084422708E+03 -0.83026258071E+03  0.99654816085E+03  0.00000000000E+00 0.  1.
         11    1    5    5    0    0  0.10499894980E+03  0.48445849244E+02  0.12657121402E+03  0.17144110355E+03  0.00000000000E+00 0. -1.
        -11    1    5    5    0    0  0.12319352633E+02 -0.32134020791E+02  0.26903510317E+02  0.43682497741E+02  0.00000000000E+00 0.  1.
          3    1    6    6  503    0 -0.47476386119E+03  0.42930439446E+03 -0.51901628682E+03  0.82406364620E+03  0.00000000000E+00 0. -1.
         -3    1    6    6    0  503 -0.12870587956E+03  0.14632261171E+03 -0.10367609983E+03  0.22073568766E+03  0.00000000000E+00 0.  1.
<mgrwt>
<rscale>  0 0.20693729E+04</rscale>
<asrwt>0</asrwt>
<pdfrwt beam="1">  1        2 0.79876864E-01 0.20693729E+04</pdfrwt>
<pdfrwt beam="2">  1       -1 0.31722676E+00 0.20693729E+04</pdfrwt>
<totfact> 0.15878653E+00</totfact>
</mgrwt>
</event>
<event>
12    6  0.1556619E-007  0.1714701E+04  0.7818608E-02  0.8753024E-01
         -1   -1    0    0    0  501 -0.00000000000E+00  0.00000000000E+00  0.87125678735E+03  0.87125678735E+03  0.00000000000E+00 0.  1.
          2   -1    0    0  501    0  0.00000000000E+00 -0.00000000000E+00 -0.84366652762E+03  0.84366652762E+03  0.00000000000E+00 0. -1.
         24    2    1    2    0    0 -0.21493479615E+03 -0.33697940615E+03 -0.44994800472E+03  0.60686184441E+03  0.77948729770E+02 0.  0.
        254    2    1    2    0    0  0.21493479615E+03  0.33697940615E+03  0.47753826445E+03  0.11080614706E+04  0.91651805315E+03 0.  0.
         23    2    4    4    0    0  0.13940706969E+02 -0.28230072039E+03  0.34346181334E+01  0.29769809032E+03  0.93404048815E+02 0.  0.
         23    2    4    4    0    0  0.20099408919E+03  0.61928012655E+03  0.47410364632E+03  0.81036338024E+03  0.89487661429E+02 0.  0.
          4    1    3    3  502    0 -0.20558266143E+03 -0.32592217542E+03 -0.44991609044E+03  0.59237993176E+03  0.00000000000E+00 0. -1.
         -3    1    3    3    0  502 -0.93521347253E+01 -0.11057230732E+02 -0.31914279318E-01  0.14481912647E+02  0.00000000000E+00 0.  1.
         11    1    5    5    0    0  0.11972924989E+01  0.74962679632E+01 -0.29624583205E+00  0.75970589241E+01  0.00000000000E+00 0.  1.
        -11    1    5    5    0    0  0.12743414470E+02 -0.28979698836E+03  0.37308639655E+01  0.29010103140E+03  0.00000000000E+00 0. -1.
          3    1    6    6  503    0  0.10006774985E+03  0.43573914581E+03  0.33960686693E+03  0.56144009638E+03  0.00000000000E+00 0. -1.
         -3    1    6    6    0  503  0.10092633933E+03  0.18354098074E+03  0.13449677939E+03  0.24892328386E+03  0.00000000000E+00 0.  1.
<mgrwt>
<rscale>  0 0.17147014E+04</rscale>
<asrwt>0</asrwt>
<pdfrwt beam="1">  1        2 0.12979485E+00 0.17147014E+04</pdfrwt>
<pdfrwt beam="2">  1       -1 0.13403951E+00 0.17147014E+04</pdfrwt>
<totfact> 0.16322313E+01</totfact>
</mgrwt>
</event>
<event>
12    6  0.1556619E-007  0.2114051E+04  0.7818608E-02  0.8555079E-01
          2   -1    0    0  501    0  0.00000000000E+00  0.00000000000E+00  0.22643304478E+04  0.22643304478E+04  0.00000000000E+00 0. -1.
         -1   -1    0    0    0  501 -0.00000000000E+00 -0.00000000000E+00 -0.49343624968E+03  0.49343624968E+03  0.00000000000E+00 0.  1.
         24    2    1    2    0    0  0.27290382517E+02  0.77516462435E+03  0.12183823086E+04  0.14466786029E+04  0.82453443793E+02 0.  0.
        254    2    1    2    0    0 -0.27290382517E+02 -0.77516462435E+03  0.55251188945E+03  0.13110880945E+04  0.90114241035E+03 0.  0.
         23    2    4    4    0    0  0.38146679172E+03 -0.49845838262E+03  0.49525438474E+03  0.80484841595E+03  0.92338478761E+02 0.  0.
         23    2    4    4    0    0 -0.40875717423E+03 -0.27670624173E+03  0.57257504710E+02  0.50623967855E+03  0.96702733133E+02 0.  0.
          4    1    3    3  502    0 -0.10639934225E+02  0.55639101326E+03  0.82960000294E+03  0.99895962516E+03  0.00000000000E+00 0. -1.
         -3    1    3    3    0  502  0.37930316742E+02  0.21877361109E+03  0.38878230570E+03  0.44771897778E+03  0.00000000000E+00 0.  1.
         11    1    5    5    0    0  0.34373011154E+03 -0.48083362570E+03  0.47630770914E+03  0.75909182512E+03  0.00000000000E+00 0.  1.
        -11    1    5    5    0    0  0.37736680181E+02 -0.17624756915E+02  0.18946675606E+02  0.45756590825E+02  0.00000000000E+00 0. -1.
          3    1    6    6  503    0 -0.26981894601E+03 -0.22825024340E+03  0.17632444046E+02  0.35385214472E+03  0.00000000000E+00 0. -1.
         -3    1    6    6    0  503 -0.13893822822E+03 -0.48455998335E+02  0.39625060664E+02  0.15238753384E+03  0.00000000000E+00 0.  1.
<mgrwt>
<rscale>  0 0.21140508E+04</rscale>
<asrwt>0</asrwt>
<pdfrwt beam="1">  1        2 0.34835853E+00 0.21140508E+04</pdfrwt>
<pdfrwt beam="2">  1       -1 0.75913270E-01 0.21140508E+04</pdfrwt>
<totfact> 0.86739548E+00</totfact>
</mgrwt>
</event>
<event>
12    6  0.1556619E-007  0.2215442E+04  0.7818608E-02  0.8512028E-01
          2   -1    0    0  501    0  0.00000000000E+00  0.00000000000E+00  0.15637532834E+04  0.15637532834E+04  0.00000000000E+00 0. -1.
         -1   -1    0    0    0  501 -0.00000000000E+00 -0.00000000000E+00 -0.78467972539E+03  0.78467972539E+03  0.00000000000E+00 0.  1.
         24    2    1    2    0    0 -0.35361437098E+03  0.76340814579E+03 -0.78338718775E+02  0.84848514604E+03  0.77168437709E+02 0.  0.
        254    2    1    2    0    0  0.35361437098E+03 -0.76340814579E+03  0.85741227682E+03  0.14999478628E+04  0.89824977496E+03 0.  0.
         23    2    4    4    0    0  0.35613057722E+03 -0.82215680459E+03  0.32640834489E+03  0.95800776952E+03  0.92009127234E+02 0.  0.
         23    2    4    4    0    0 -0.25162062383E+01  0.58748658802E+02  0.53100393193E+03  0.54194009326E+03  0.90973362864E+02 0.  0.
          4    1    3    3  502    0 -0.57701279746E+01  0.39419240703E+00 -0.30810584874E+01  0.65530669079E+01  0.00000000000E+00 0. -1.
         -3    1    3    3    0  502 -0.34784424301E+03  0.76301395338E+03 -0.75257660288E+02  0.84193207914E+03  0.00000000000E+00 0.  1.
         11    1    5    5    0    0  0.28732435239E+03 -0.69389919615E+03  0.30623542389E+03  0.81106813076E+03  0.00000000000E+00 0. -1.
        -11    1    5    5    0    0  0.68806224834E+02 -0.12825760844E+03  0.20172920998E+02  0.14693963876E+03  0.00000000000E+00 0.  1.
          2    1    6    6  503    0  0.86625284404E+01  0.78891575960E+02  0.32054909544E+03  0.33022816770E+03  0.00000000000E+00 0. -1.
         -2    1    6    6    0  503 -0.11178734679E+02 -0.20142917158E+02  0.21045483650E+03  0.21171192556E+03  0.00000000000E+00 0.  1.
<mgrwt>
<rscale>  0 0.22154417E+04</rscale>
<asrwt>0</asrwt>
<pdfrwt beam="1">  1        2 0.24057743E+00 0.22154417E+04</pdfrwt>
<pdfrwt beam="2">  1       -1 0.12071996E+00 0.22154417E+04</pdfrwt>
<totfact> 0.74132693E+00</totfact>
</mgrwt>
</event>
<event>
12    6  0.1556619E-007  0.1089594E+04  0.7818608E-02  0.9215394E-01
          2   -1    0    0  501    0  0.00000000000E+00  0.00000000000E+00  0.15855848203E+03  0.15855848203E+03  0.00000000000E+00 0. -1.
         -3   -1    0    0    0  501 -0.00000000000E+00 -0.00000000000E+00 -0.18718898079E+04  0.18718898079E+04  0.00000000000E+00 0.  1.
         24    2    1    2    0    0  0.81573168711E+02  0.74876450876E+02 -0.81083492089E+02  0.15867474390E+03  0.79639669222E+02 0.  0.
        254    2    1    2    0    0 -0.81573168711E+02 -0.74876450876E+02 -0.16322478338E+04  0.18717735460E+04  0.90941879899E+03 0.  0.
         23    2    4    4    0    0  0.15623594262E+03  0.10943116231E+03 -0.17091108078E+01  0.21114986348E+03  0.90534494741E+02 0.  0.
         23    2    4    4    0    0 -0.23780911133E+03 -0.18430761318E+03 -0.16305387230E+04  0.16606236825E+04  0.92152147012E+02 0.  0.
          2    1    3    3  502    0  0.47545298932E+02  0.78427242168E+02 -0.28682935978E+02  0.96094217209E+02  0.00000000000E+00 0. -1.
         -1    1    3    3    0  502  0.34027869779E+02 -0.35507912923E+01 -0.52400556111E+02  0.62580526694E+02  0.00000000000E+00 0.  1.
         11    1    5    5    0    0  0.14583140516E+03  0.12419794791E+03  0.56734934289E+01  0.19163537650E+03  0.00000000000E+00 0. -1.
        -11    1    5    5    0    0  0.10404537455E+02 -0.14766785607E+02 -0.73826042367E+01  0.19514486981E+02  0.00000000000E+00 0.  1.
          1    1    6    6  503    0 -0.15673308328E+03 -0.11791631298E+03 -0.80938989039E+03  0.83281541227E+03  0.00000000000E+00 0. -1.
         -1    1    6    6    0  503 -0.81076028050E+02 -0.66391300199E+02 -0.82114883258E+03  0.82780827026E+03  0.00000000000E+00 0.  1.
<mgrwt>
<rscale>  0 0.10895944E+04</rscale>
<asrwt>0</asrwt>
<pdfrwt beam="1">  1        2 0.24393612E-01 0.10895944E+04</pdfrwt>
<pdfrwt beam="2">  1       -3 0.28798306E+00 0.10895944E+04</pdfrwt>
<totfact> 0.62140164E+00</totfact>
</mgrwt>
</event>
<event>
12    6  0.1556619E-007  0.2247946E+04  0.7818608E-02  0.8498733E-01
          2   -1    0    0  501    0  0.00000000000E+00  0.00000000000E+00  0.17823371311E+04  0.17823371311E+04  0.00000000000E+00 0. -1.
         -1   -1    0    0    0  501 -0.00000000000E+00 -0.00000000000E+00 -0.70879679409E+03  0.70879679409E+03  0.00000000000E+00 0.  1.
         24    2    1    2    0    0  0.99027216113E+01  0.43099004918E+02 -0.58829435618E+03  0.59525706154E+03  0.79278822433E+02 0.  0.
        254    2    1    2    0    0 -0.99027216113E+01 -0.43099004918E+02  0.16618346932E+04  0.18958768637E+04  0.91142687392E+03 0.  0.
         23    2    4    4    0    0 -0.11676434110E+03  0.41031700397E+03  0.85110167693E+03  0.95653249465E+03  0.92662795899E+02 0.  0.
         23    2    4    4    0    0  0.10686161949E+03 -0.45341600889E+03  0.81073301629E+03  0.93934436902E+03  0.89857315138E+02 0.  0.
          2    1    3    3  502    0 -0.25064076123E+01 -0.18186666473E+02 -0.48590273193E+02  0.51942772024E+02  0.00000000000E+00 0. -1.
         -1    1    3    3    0  502  0.12409129224E+02  0.61285671391E+02 -0.53970408298E+03  0.54331428952E+03  0.00000000000E+00 0.  1.
         11    1    5    5    0    0 -0.11063368469E+03  0.29280941284E+03  0.68334136156E+03  0.75161997103E+03  0.00000000000E+00 0. -1.
        -11    1    5    5    0    0 -0.61306564096E+01  0.11750759113E+03  0.16776031537E+03  0.20491252362E+03  0.00000000000E+00 0.  1.
          2    1    6    6  503    0  0.76774755689E+02 -0.26451582396E+03  0.39309499192E+03  0.47998610074E+03  0.00000000000E+00 0. -1.
         -2    1    6    6    0  503  0.30086863799E+02 -0.18890018493E+03  0.41763802437E+03  0.45935826828E+03  0.00000000000E+00 0.  1.
<mgrwt>
<rscale>  0 0.22479456E+04</rscale>
<asrwt>0</asrwt>
<pdfrwt beam="1">  1        2 0.27420571E+00 0.22479456E+04</pdfrwt>
<pdfrwt beam="2">  1       -1 0.10904566E+00 0.22479456E+04</pdfrwt>
<totfact> 0.71274408E+00</totfact>
</mgrwt>
</event>
<event>
12    6  0.1911906E-007  0.2135871E+04  0.7818608E-02  0.8545604E-01
          2   -1    0    0  501    0  0.00000000000E+00  0.00000000000E+00  0.12593872442E+04  0.12593872442E+04  0.00000000000E+00 0. -1.
         -1   -1    0    0    0  501 -0.00000000000E+00 -0.00000000000E+00 -0.90558843875E+03  0.90558843875E+03  0.00000000000E+00 0.  1.
         24    2    1    2    0    0 -0.15941220765E+03  0.54400308822E+03  0.82319898161E+03  0.10026647657E+04  0.79551599940E+02 0.  0.
        254    2    1    2    0    0  0.15941220765E+03 -0.54400308822E+03 -0.46940017613E+03  0.11623109173E+04  0.89959909473E+03 0.  0.
         23    2    4    4    0    0 -0.54872465294E+02  0.23023800826E+03 -0.90404828591E+02  0.26820672855E+03  0.87984591332E+02 0.  0.
         23    2    4    4    0    0  0.21428467294E+03 -0.77424109648E+03 -0.37899534754E+03  0.89410418877E+03  0.10206679374E+03 0.  0.
          4    1    3    3  502    0 -0.13065796428E+03  0.39978355089E+03  0.54982932104E+03  0.69225044129E+03  0.00000000000E+00 0. -1.
         -3    1    3    3    0  502 -0.28754243365E+02  0.14421953732E+03  0.27336966057E+03  0.31041432437E+03  0.00000000000E+00 0.  1.
         11    1    5    5    0    0 -0.36346678172E+02  0.20572091474E+03 -0.45517250662E+02  0.21380831575E+03  0.00000000000E+00 0. -1.
        -11    1    5    5    0    0 -0.18525787121E+02  0.24517093524E+02 -0.44887577929E+02  0.54398412805E+02  0.00000000000E+00 0.  1.
          4    1    6    6  503    0  0.20835203490E+03 -0.73432832446E+03 -0.38214613057E+03  0.85363008596E+03  0.00000000000E+00 0. -1.
         -4    1    6    6    0  503  0.59326380446E+01 -0.39912772014E+02  0.31507830303E+01  0.40474102803E+02  0.00000000000E+00 0.  1.
<mgrwt>
<rscale>  0 0.21358713E+04</rscale>
<asrwt>0</asrwt>
<pdfrwt beam="1">  1        2 0.19375188E+00 0.21358713E+04</pdfrwt>
<pdfrwt beam="2">  1       -1 0.13932130E+00 0.21358713E+04</pdfrwt>
<totfact> 0.77656246E+00</totfact>
</mgrwt>
</event>
<event>
12    6  0.1556619E-007  0.1596959E+04  0.7818608E-02  0.8822418E-01
         -1   -1    0    0    0  501 -0.00000000000E+00  0.00000000000E+00  0.62290856353E+03  0.62290856353E+03  0.00000000000E+00 0.  1.
          2   -1    0    0  501    0  0.00000000000E+00 -0.00000000000E+00 -0.10235362311E+04  0.10235362311E+04  0.00000000000E+00 0. -1.
         24    2    1    2    0    0  0.52154069286E+03  0.93170523801E+02 -0.15882112048E+03  0.55838508254E+03  0.76709264603E+02 0.  0.
        254    2    1    2    0    0 -0.52154069286E+03 -0.93170523801E+02 -0.24180654708E+03  0.10880597121E+04  0.91908546394E+03 0.  0.
         23    2    4    4    0    0  0.11874367462E+02  0.31851347877E+03 -0.23790851504E+03  0.40840132039E+03  0.92732627547E+02 0.  0.
         23    2    4    4    0    0 -0.53341506032E+03 -0.41168400257E+03 -0.38980320458E+01  0.67965839169E+03  0.88910011766E+02 0.  0.
          4    1    3    3  502    0  0.43055391195E+03  0.79337095157E+02 -0.16061594047E+03  0.46633520787E+03  0.00000000000E+00 0. -1.
         -3    1    3    3    0  502  0.90986780909E+02  0.13833428644E+02  0.17948199848E+01  0.92049874672E+02  0.00000000000E+00 0.  1.
         11    1    5    5    0    0  0.30375943396E+02  0.79699300424E+02 -0.27597093544E+02  0.89645278723E+02  0.00000000000E+00 0.  1.
        -11    1    5    5    0    0 -0.18501575935E+02  0.23881417834E+03 -0.21031142149E+03  0.31875604167E+03  0.00000000000E+00 0. -1.
          1    1    6    6  503    0 -0.12577747612E+03 -0.73950486617E+02  0.30913740550E+02  0.14914525579E+03  0.00000000000E+00 0. -1.
         -1    1    6    6    0  503 -0.40763758420E+03 -0.33773351595E+03 -0.34811772596E+02  0.53051313590E+03  0.00000000000E+00 0.  1.
<mgrwt>
<rscale>  0 0.15969590E+04</rscale>
<asrwt>0</asrwt>
<pdfrwt beam="1">  1        2 0.15746711E+00 0.15969590E+04</pdfrwt>
<pdfrwt beam="2">  1       -1 0.95832087E-01 0.15969590E+04</pdfrwt>
<totfact> 0.27957729E+01</totfact>
</mgrwt>
</event>
<event>
12    6  0.1556619E-007  0.1443109E+04  0.7818608E-02  0.8923192E-01
          2   -1    0    0  501    0  0.00000000000E+00  0.00000000000E+00  0.87417765996E+03  0.87417765996E+03  0.00000000000E+00 0. -1.
         -1   -1    0    0    0  501 -0.00000000000E+00 -0.00000000000E+00 -0.59557779768E+03  0.59557779768E+03  0.00000000000E+00 0.  1.
         24    2    1    2    0    0  0.12299139285E+03 -0.10668258583E+03 -0.33083267890E+03  0.37744956460E+03  0.80683675890E+02 0.  0.
        254    2    1    2    0    0 -0.12299139285E+03  0.10668258583E+03  0.60943254118E+03  0.10923058930E+04  0.89174889116E+03 0.  0.
         23    2    4    4    0    0 -0.65494203317E+02  0.24132302937E+03 -0.15422295186E+03  0.30971967125E+03  0.98057435752E+02 0.  0.
         23    2    4    4    0    0 -0.57497189536E+02 -0.13464044354E+03  0.76365549304E+03  0.78258622179E+03  0.88529693555E+02 0.  0.
          2    1    3    3  502    0  0.96394308849E+02 -0.31488977496E+02 -0.17059996824E+03  0.19846351717E+03  0.00000000000E+00 0. -1.
         -1    1    3    3    0  502  0.26597084003E+02 -0.75193608330E+02 -0.16023271066E+03  0.17898604743E+03  0.00000000000E+00 0.  1.
         11    1    5    5    0    0 -0.56977983967E+02  0.16703863807E+03 -0.53778537603E+02  0.18450075439E+03  0.00000000000E+00 0. -1.
        -11    1    5    5    0    0 -0.85162193492E+01  0.74284391297E+02 -0.10044441426E+03  0.12521891685E+03  0.00000000000E+00 0.  1.
          3    1    6    6  503    0 -0.68539409197E+02 -0.14108690407E+03  0.67321813383E+03  0.69124946353E+03  0.00000000000E+00 0. -1.
         -3    1    6    6    0  503  0.11042219661E+02  0.64464605249E+01  0.90437359213E+02  0.91336758262E+02  0.00000000000E+00 0.  1.
<mgrwt>
<rscale>  0 0.14431089E+04</rscale>
<asrwt>0</asrwt>
<pdfrwt beam="1">  1        2 0.13448887E+00 0.14431089E+04</pdfrwt>
<pdfrwt beam="2">  1       -1 0.91627353E-01 0.14431089E+04</pdfrwt>
<totfact> 0.39273402E+01</totfact>
</mgrwt>
</event>
<event>
12    6  0.1556619E-007  0.2047107E+04  0.7818608E-02  0.8584908E-01
         -1   -1    0    0    0  501 -0.00000000000E+00  0.00000000000E+00  0.12908816212E+04  0.12908816212E+04  0.00000000000E+00 0.  1.
          2   -1    0    0  501    0  0.00000000000E+00 -0.00000000000E+00 -0.81158633164E+03  0.81158633164E+03  0.00000000000E+00 0. -1.
         24    2    1    2    0    0 -0.11128778233E+03 -0.34022202808E+03  0.95351803785E+03  0.10217064361E+04  0.80940682515E+02 0.  0.
        254    2    1    2    0    0  0.11128778233E+03  0.34022202808E+03 -0.47422274829E+03  0.10807615168E+04  0.90278582305E+03 0.  0.
         23    2    4    4    0    0 -0.24107451981E+03  0.45913186972E+03 -0.81944186537E+02  0.53289388405E+03  0.91334791053E+02 0.  0.
         23    2    4    4    0    0  0.35236230214E+03 -0.11890984164E+03 -0.39227856175E+03  0.54786763274E+03  0.89318142539E+02 0.  0.
          2    1    3    3  502    0 -0.39427061023E+02 -0.23383971395E+03  0.66123169782E+03  0.70246911901E+03  0.00000000000E+00 0. -1.
         -1    1    3    3    0  502 -0.71860721306E+02 -0.10638231414E+03  0.29228634003E+03  0.31923731705E+03  0.00000000000E+00 0.  1.
         11    1    5    5    0    0 -0.15339063408E+03  0.21420625769E+03 -0.69365517087E+02  0.27244188815E+03  0.00000000000E+00 0.  1.
        -11    1    5    5    0    0 -0.87683885736E+02  0.24492561203E+03 -0.12578669450E+02  0.26045199590E+03  0.00000000000E+00 0. -1.
          4    1    6    6  503    0  0.38463873291E+02 -0.46444142098E+02 -0.62641681508E+02  0.86951182545E+02  0.00000000000E+00 0. -1.
         -4    1    6    6    0  503  0.31389842885E+03 -0.72465699537E+02 -0.32963688024E+03  0.46091645020E+03  0.00000000000E+00 0.  1.
<mgrwt>
<rscale>  0 0.20471071E+04</rscale>
<asrwt>0</asrwt>
<pdfrwt beam="1">  1        2 0.12485944E+00 0.20471071E+04</pdfrwt>
<pdfrwt beam="2">  1       -1 0.19859717E+00 0.20471071E+04</pdfrwt>
<totfact> 0.54920029E+00</totfact>
</mgrwt>
</event>
<event>
12    6  0.1556619E-007  0.1614353E+04  0.7818608E-02  0.8811779E-01
         -1   -1    0    0    0  501 -0.00000000000E+00  0.00000000000E+00  0.58328751827E+03  0.58328751827E+03  0.00000000000E+00 0.  1.
          2   -1    0    0  501    0  0.00000000000E+00 -0.00000000000E+00 -0.11170026351E+04  0.11170026351E+04  0.00000000000E+00 0. -1.
         24    2    1    2    0    0 -0.54657310563E+03 -0.19410751081E+03 -0.79887271429E+02  0.59142145898E+03  0.83531314249E+02 0.  0.
        254    2    1    2    0    0  0.54657310563E+03  0.19410751081E+03 -0.45382784537E+03  0.11088686943E+04  0.82898141265E+03 0.  0.
         23    2    4    4    0    0  0.44718695396E+03  0.28236153912E+02  0.13950287374E+03  0.47840506542E+03  0.92934937781E+02 0.  0.
         23    2    4    4    0    0  0.99386151669E+02  0.16587135689E+03 -0.59333071911E+03  0.63046362892E+03  0.89733666896E+02 0.  0.
          2    1    3    3  502    0 -0.28346359469E+02 -0.30192429602E+02 -0.14924899874E+02  0.44021035161E+02  0.00000000000E+00 0. -1.
         -1    1    3    3    0  502 -0.51822674616E+03 -0.16391508120E+03 -0.64962371555E+02  0.54740042382E+03  0.00000000000E+00 0.  1.
         11    1    5    5    0    0  0.34445114785E+03  0.16732922163E+02  0.14672995277E+03  0.37477494978E+03  0.00000000000E+00 0.  1.
        -11    1    5    5    0    0  0.10273580611E+03  0.11503231749E+02 -0.72270790304E+01  0.10363011564E+03  0.00000000000E+00 0. -1.
          2    1    6    6  503    0  0.10476739644E+03  0.96857354474E+02 -0.43054116791E+03  0.45356725162E+03  0.00000000000E+00 0.  1.
         -2    1    6    6    0  503 -0.53812447662E+01  0.69014002420E+02 -0.16278955119E+03  0.17689637730E+03  0.00000000000E+00 0. -1.
<mgrwt>
<rscale>  0 0.16143527E+04</rscale>
<asrwt>0</asrwt>
<pdfrwt beam="1">  1        2 0.17184656E+00 0.16143527E+04</pdfrwt>
<pdfrwt beam="2">  1       -1 0.89736542E-01 0.16143527E+04</pdfrwt>
<totfact> 0.28252403E+01</totfact>
</mgrwt>
</event>
<event>
12    6  0.1556619E-007  0.2130772E+04  0.7818608E-02  0.8547808E-01
          2   -1    0    0  501    0  0.00000000000E+00  0.00000000000E+00  0.57122019626E+03  0.57122019626E+03  0.00000000000E+00 0. -1.
         -1   -1    0    0    0  501 -0.00000000000E+00 -0.00000000000E+00 -0.19870568457E+04  0.19870568457E+04  0.00000000000E+00 0.  1.
         24    2    1    2    0    0 -0.11954243538E+02  0.83231276615E+03 -0.26215883460E+03  0.87630777653E+03  0.79376444904E+02 0.  0.
        254    2    1    2    0    0  0.11954243538E+02 -0.83231276615E+03 -0.11536778148E+04  0.16819692654E+04  0.89730745273E+03 0.  0.
         23    2    4    4    0    0 -0.38918363656E+03 -0.63574468041E+03 -0.57751633887E+03  0.94734991971E+03  0.91167686597E+02 0.  0.
         23    2    4    4    0    0  0.40113788010E+03 -0.19656808574E+03 -0.57616147592E+03  0.73461934568E+03  0.90293551946E+02 0.  0.
          4    1    3    3  502    0 -0.20204220001E+02  0.87352825803E+02 -0.12184837910E+02  0.90483130784E+02  0.00000000000E+00 0. -1.
         -3    1    3    3    0  502  0.82499764632E+01  0.74495994035E+03 -0.24997399669E+03  0.78582464574E+03  0.00000000000E+00 0.  1.
         11    1    5    5    0    0 -0.26657863546E+03 -0.50545144328E+03 -0.45589307779E+03  0.73101561459E+03  0.00000000000E+00 0.  1.
        -11    1    5    5    0    0 -0.12260500110E+03 -0.13029323713E+03 -0.12162326108E+03  0.21633430512E+03  0.00000000000E+00 0. -1.
          3    1    6    6  503    0  0.26380842537E+03 -0.13477588943E+03 -0.44684015513E+03  0.53612083517E+03  0.00000000000E+00 0. -1.
         -3    1    6    6    0  503  0.13732945473E+03 -0.61792196316E+02 -0.12932132079E+03  0.19849851050E+03  0.00000000000E+00 0.  1.
<mgrwt>
<rscale>  0 0.21307717E+04</rscale>
<asrwt>0</asrwt>
<pdfrwt beam="1">  1        2 0.87880028E-01 0.21307717E+04</pdfrwt>
<pdfrwt beam="2">  1       -1 0.30570106E+00 0.21307717E+04</pdfrwt>
<totfact> 0.16759370E+00</totfact>
</mgrwt>
</event>
<event>
12    6  0.1556619E-007  0.1195188E+04  0.7818608E-02  0.9117079E-01
          2   -1    0    0  501    0  0.00000000000E+00  0.00000000000E+00  0.12266255300E+04  0.12266255300E+04  0.00000000000E+00 0. -1.
         -1   -1    0    0    0  501 -0.00000000000E+00 -0.00000000000E+00 -0.29113893533E+03  0.29113893533E+03  0.00000000000E+00 0.  1.
         24    2    1    2    0    0  0.17051550760E+02  0.70812628296E+02 -0.95834037991E+02  0.14481863463E+03  0.80517640230E+02 0.  0.
        254    2    1    2    0    0 -0.17051550760E+02 -0.70812628296E+02  0.10313206326E+04  0.13729458307E+04  0.90335642079E+03 0.  0.
         23    2    4    4    0    0  0.24062230305E+03 -0.32235198145E+03  0.19372645855E+03  0.45588225782E+03  0.92134681772E+02 0.  0.
         23    2    4    4    0    0 -0.25767385381E+03  0.25153935316E+03  0.83759417408E+03  0.91706357286E+03  0.98862202532E+02 0.  0.
          4    1    3    3  502    0 -0.31998299502E+02  0.35720899771E+02 -0.37077666314E+02  0.60618703308E+02  0.00000000000E+00 0. -1.
         -3    1    3    3    0  502  0.49049850261E+02  0.35091728525E+02 -0.58756371678E+02  0.84199931320E+02  0.00000000000E+00 0.  1.
         11    1    5    5    0    0  0.17002400072E+03 -0.24831232097E+03  0.18488120990E+03  0.35319715648E+03  0.00000000000E+00 0. -1.
        -11    1    5    5    0    0  0.70598302325E+02 -0.74039660476E+02  0.88452486510E+01  0.10268510135E+03  0.00000000000E+00 0.  1.
          3    1    6    6  503    0 -0.17956487408E+03  0.18273330297E+03  0.69346472778E+03  0.73927554585E+03  0.00000000000E+00 0. -1.
         -3    1    6    6    0  503 -0.78108979728E+02  0.68806050189E+02  0.14412944630E+03  0.17778802700E+03  0.00000000000E+00 0.  1.
<mgrwt>
<rscale>  0 0.11951878E+04</rscale>
<asrwt>0</asrwt>
<pdfrwt beam="1">  1        2 0.18871162E+00 0.11951878E+04</pdfrwt>
<pdfrwt beam="2">  1       -1 0.44790606E-01 0.11951878E+04</pdfrwt>
<totfact> 0.10145750E+02</totfact>
</mgrwt>
</event>
<event>
12    6  0.1556619E-007  0.2422928E+04  0.7818608E-02  0.8430969E-01
         -1   -1    0    0    0  501 -0.00000000000E+00  0.00000000000E+00  0.16442249609E+04  0.16442249609E+04  0.00000000000E+00 0.  1.
          2   -1    0    0  501    0  0.00000000000E+00 -0.00000000000E+00 -0.89260634205E+03  0.89260634205E+03  0.00000000000E+00 0. -1.
         24    2    1    2    0    0 -0.93137803341E+02 -0.35263155187E+03 -0.70673463188E+03  0.79919709214E+03  0.78857405481E+02 0.  0.
        254    2    1    2    0    0  0.93137803341E+02  0.35263155187E+03  0.14583532507E+04  0.17376342108E+04  0.87152440290E+03 0.  0.
         23    2    4    4    0    0  0.17938117841E+03  0.31820401934E+03  0.15406845955E+04  0.15860953103E+04  0.92508948928E+02 0.  0.
         23    2    4    4    0    0 -0.86243375066E+02  0.34427532539E+02 -0.82331344768E+02  0.15153890045E+03  0.86962137042E+02 0.  0.
          2    1    3    3  502    0 -0.26423204186E+02 -0.13527043266E+03 -0.35005649808E+03  0.37621247656E+03  0.00000000000E+00 0. -1.
         -1    1    3    3    0  502 -0.66714599155E+02 -0.21736111922E+03 -0.35667813380E+03  0.42298461559E+03  0.00000000000E+00 0.  1.
         11    1    5    5    0    0  0.76766414713E+02  0.13573371374E+03  0.47177429810E+03  0.49687796471E+03  0.00000000000E+00 0. -1.
        -11    1    5    5    0    0  0.10261476369E+03  0.18247030560E+03  0.10689102974E+04  0.10892173456E+04  0.00000000000E+00 0.  1.
          2    1    6    6  503    0 -0.10313299009E+03  0.22926304806E+02 -0.60983392184E+02  0.12198771749E+03  0.00000000000E+00 0. -1.
         -2    1    6    6    0  503  0.16889615019E+02  0.11501227733E+02 -0.21347952584E+02  0.29551182961E+02  0.00000000000E+00 0.  1.
<mgrwt>
<rscale>  0 0.24229285E+04</rscale>
<asrwt>0</asrwt>
<pdfrwt beam="1">  1        2 0.13732405E+00 0.24229285E+04</pdfrwt>
<pdfrwt beam="2">  1       -1 0.25295769E+00 0.24229285E+04</pdfrwt>
<totfact> 0.20246559E+00</totfact>
</mgrwt>
</event>
<event>
12    6  0.1556619E-007  0.1228781E+04  0.7818608E-02  0.9088031E-01
         -1   -1    0    0    0  501 -0.00000000000E+00  0.00000000000E+00  0.13425621366E+03  0.13425621366E+03  0.00000000000E+00 0.  1.
          2   -1    0    0  501    0  0.00000000000E+00 -0.00000000000E+00 -0.28116064022E+04  0.28116064022E+04  0.00000000000E+00 0. -1.
         24    2    1    2    0    0 -0.14180115245E+03 -0.16517697395E+02 -0.51146546031E+02  0.17236620544E+03  0.81937405643E+02 0.  0.
        254    2    1    2    0    0  0.14180115245E+03  0.16517697395E+02 -0.26262036425E+04  0.27734964104E+04  0.88031606004E+03 0.  0.
         23    2    4    4    0    0 -0.11264701146E+03  0.11027367746E+03 -0.60764535655E+02  0.19218219427E+03  0.91608044786E+02 0.  0.
         23    2    4    4    0    0  0.25444816391E+03 -0.93755980063E+02 -0.25654391068E+04  0.25813142161E+04  0.90394798888E+02 0.  0.
          4    1    3    3  502    0  0.20165694362E+01  0.13894415587E+02  0.51528906482E+01  0.14955721943E+02  0.00000000000E+00 0. -1.
         -3    1    3    3    0  502 -0.14381772189E+03 -0.30412112982E+02 -0.56299436679E+02  0.15741048350E+03  0.00000000000E+00 0.  1.
         11    1    5    5    0    0 -0.10660092144E+03  0.98161713238E+02 -0.16445911175E+02  0.14584219688E+03  0.00000000000E+00 0. -1.
        -11    1    5    5    0    0 -0.60460900215E+01  0.12111964220E+02 -0.44318624481E+02  0.46339997385E+02  0.00000000000E+00 0.  1.
          1    1    6    6  503    0  0.12723122916E+03 -0.56878825293E+02 -0.17113639875E+04  0.17170293195E+04  0.00000000000E+00 0. -1.
         -1    1    6    6    0  503  0.12721693475E+03 -0.36877154770E+02 -0.85407511930E+03  0.86428489657E+03  0.00000000000E+00 0.  1.
<mgrwt>
<rscale>  0 0.12287809E+04</rscale>
<asrwt>0</asrwt>
<pdfrwt beam="1">  1        2 0.43255481E+00 0.12287809E+04</pdfrwt>
<pdfrwt beam="2">  1       -1 0.20654803E-01 0.12287809E+04</pdfrwt>
<totfact> 0.49968594E+01</totfact>
</mgrwt>
</event>
<event>
12    6  0.1556619E-007  0.1565683E+04  0.7818608E-02  0.8841912E-01
          2   -1    0    0  501    0  0.00000000000E+00  0.00000000000E+00  0.63683830961E+03  0.63683830961E+03  0.00000000000E+00 0. -1.
         -1   -1    0    0    0  501 -0.00000000000E+00 -0.00000000000E+00 -0.96231753197E+03  0.96231753197E+03  0.00000000000E+00 0.  1.
         24    2    1    2    0    0 -0.10962484709E+03  0.24454203187E+03  0.34943715256E+03  0.44843917890E+03  0.84693335807E+02 0.  0.
        254    2    1    2    0    0  0.10962484709E+03 -0.24454203187E+03 -0.67491637492E+03  0.11507166627E+04  0.89264680147E+03 0.  0.
         23    2    4    4    0    0 -0.11416401756E+02 -0.55454596462E+03 -0.53805290781E+03  0.77829720322E+03  0.92704065909E+02 0.  0.
         23    2    4    4    0    0  0.12104124885E+03  0.31000393275E+03 -0.13686346712E+03  0.37241945945E+03  0.95975116063E+02 0.  0.
          4    1    3    3  502    0 -0.10481477275E+03  0.21061225269E+03  0.25009696300E+03  0.34335426089E+03  0.00000000000E+00 0. -1.
         -3    1    3    3    0  502 -0.48100743376E+01  0.33929779178E+02  0.99340189561E+02  0.10508491801E+03  0.00000000000E+00 0.  1.
         11    1    5    5    0    0 -0.39253304213E+02 -0.48725889424E+03 -0.45472020449E+03  0.66763202161E+03  0.00000000000E+00 0. -1.
        -11    1    5    5    0    0  0.27836902457E+02 -0.67287070381E+02 -0.83332703320E+02  0.11066518161E+03  0.00000000000E+00 0.  1.
          4    1    6    6  503    0  0.97138445138E+02  0.25598208920E+03 -0.14958570210E+03  0.31199132967E+03  0.00000000000E+00 0. -1.
         -4    1    6    6    0  503  0.23902803710E+02  0.54021843558E+02  0.12722234987E+02  0.60428129788E+02  0.00000000000E+00 0.  1.
<mgrwt>
<rscale>  0 0.15656828E+04</rscale>
<asrwt>0</asrwt>
<pdfrwt beam="1">  1        2 0.97975125E-01 0.15656828E+04</pdfrwt>
<pdfrwt beam="2">  1       -1 0.14804885E+00 0.15656828E+04</pdfrwt>
<totfact> 0.18307017E+01</totfact>
</mgrwt>
</event>
<event>
12    6  0.1556619E-007  0.1437790E+04  0.7818608E-02  0.8926909E-01
         -1   -1    0    0    0  501 -0.00000000000E+00  0.00000000000E+00  0.17379600844E+04  0.17379600844E+04  0.00000000000E+00 0.  1.
          2   -1    0    0  501    0  0.00000000000E+00 -0.00000000000E+00 -0.29736601128E+03  0.29736601128E+03  0.00000000000E+00 0. -1.
         24    2    1    2    0    0 -0.39659390140E+03  0.17690852739E+03  0.46972113228E+03  0.64652728977E+03  0.93681612974E+02 0.  0.
        254    2    1    2    0    0  0.39659390140E+03 -0.17690852739E+03  0.97087294084E+03  0.13887988059E+04  0.89307586820E+03 0.  0.
         23    2    4    4    0    0  0.26439242768E+03  0.32942993140E+03  0.27461665091E+03  0.51315284329E+03  0.97386344568E+02 0.  0.
         23    2    4    4    0    0  0.13220147372E+03 -0.50633845878E+03  0.69625628993E+03  0.87564596262E+03  0.90150796359E+02 0.  0.
          4    1    3    3  502    0 -0.28356012236E+03  0.97149981163E+02  0.26897883409E+03  0.40273325542E+03  0.00000000000E+00 0. -1.
         -1    1    3    3    0  502 -0.11303377904E+03  0.79758546222E+02  0.20074229819E+03  0.24379403435E+03  0.00000000000E+00 0.  1.
         11    1    5    5    0    0  0.92546977029E+02  0.19039433745E+03  0.11931589299E+03  0.24300458640E+03  0.00000000000E+00 0. -1.
        -11    1    5    5    0    0  0.17184545065E+03  0.13903559395E+03  0.15530075792E+03  0.27014825690E+03  0.00000000000E+00 0.  1.
          4    1    6    6  503    0  0.68231944631E+02 -0.40762555417E+03  0.54884509414E+03  0.68705540391E+03  0.00000000000E+00 0. -1.
         -4    1    6    6    0  503  0.63969529092E+02 -0.98712904614E+02  0.14741119579E+03  0.18859055871E+03  0.00000000000E+00 0.  1.
<mgrwt>
<rscale>  0 0.14377903E+04</rscale>
<asrwt>0</asrwt>
<pdfrwt beam="1">  1        2 0.45748618E-01 0.14377903E+04</pdfrwt>
<pdfrwt beam="2">  1       -1 0.26737847E+00 0.14377903E+04</pdfrwt>
<totfact> 0.66329775E+00</totfact>
</mgrwt>
</event>
<event>
12    6  0.1556619E-007  0.1651253E+04  0.7818608E-02  0.8789666E-01
         -1   -1    0    0    0  501 -0.00000000000E+00  0.00000000000E+00  0.55101821756E+03  0.55101821756E+03  0.00000000000E+00 0.  1.
          2   -1    0    0  501    0  0.00000000000E+00 -0.00000000000E+00 -0.12370897384E+04  0.12370897384E+04  0.00000000000E+00 0. -1.
         24    2    1    2    0    0 -0.13157564864E+03  0.54830647552E+03 -0.12246532803E+03  0.58285551464E+03  0.82283971563E+02 0.  0.
        254    2    1    2    0    0  0.13157564864E+03 -0.54830647552E+03 -0.56360619279E+03  0.12052524413E+04  0.90389676639E+03 0.  0.
         23    2    4    4    0    0  0.29046790316E+03  0.13781709837E+03 -0.29442207318E+03  0.44631833740E+03  0.95658485025E+02 0.  0.
         23    2    4    4    0    0 -0.15889225452E+03 -0.68612357389E+03 -0.26918411962E+03  0.75893410390E+03  0.86652043326E+02 0.  0.
          4    1    3    3  502    0 -0.13253862711E+02  0.23928673123E+02 -0.23917420607E+02  0.36335785153E+02  0.00000000000E+00 0. -1.
         -3    1    3    3    0  502 -0.11832178593E+03  0.52437780239E+03 -0.98547907420E+02  0.54651972949E+03  0.00000000000E+00 0.  1.
         11    1    5    5    0    0  0.54554424938E+02  0.10896519472E+02 -0.10301107386E+03  0.11707348442E+03  0.00000000000E+00 0. -1.
        -11    1    5    5    0    0  0.23591347822E+03  0.12692057890E+03 -0.19141099932E+03  0.32924485298E+03  0.00000000000E+00 0.  1.
          3    1    6    6  503    0 -0.67744766651E+02 -0.45857486139E+03 -0.15763739209E+03  0.48962210356E+03  0.00000000000E+00 0. -1.
         -3    1    6    6    0  503 -0.91147487872E+02 -0.22754871250E+03 -0.11154672753E+03  0.26931200034E+03  0.00000000000E+00 0.  1.
<mgrwt>
<rscale>  0 0.16512528E+04</rscale>
<asrwt>0</asrwt>
<pdfrwt beam="1">  1        2 0.19032150E+00 0.16512528E+04</pdfrwt>
<pdfrwt beam="2">  1       -1 0.84772035E-01 0.16512528E+04</pdfrwt>
<totfact> 0.27000059E+01</totfact>
</mgrwt>
</event>
<event>
12    6  0.1556619E-007  0.1408649E+04  0.7818608E-02  0.8947582E-01
         -1   -1    0    0    0  501 -0.00000000000E+00  0.00000000000E+00  0.36830319135E+03  0.36830319135E+03  0.00000000000E+00 0.  1.
          2   -1    0    0  501    0  0.00000000000E+00 -0.00000000000E+00 -0.13469139183E+04  0.13469139183E+04  0.00000000000E+00 0. -1.
         24    2    1    2    0    0  0.13432411492E+03  0.12664268142E+02 -0.69102653153E+03  0.70880276334E+03  0.81733337749E+02 0.  0.
        254    2    1    2    0    0 -0.13432411492E+03 -0.12664268142E+02 -0.28758419546E+03  0.10064143464E+04  0.95496691855E+03 0.  0.
         23    2    4    4    0    0 -0.13410086622E+03  0.39546003110E+02  0.33658690421E+03  0.37410248294E+03  0.84350429575E+02 0.  0.
         23    2    4    4    0    0 -0.22324870400E+00 -0.52210271251E+02 -0.62417109967E+03  0.63231186342E+03  0.86618523982E+02 0.  0.
          4    1    3    3  502    0  0.12547085885E+03  0.27976231277E+02 -0.66515271006E+03  0.67746124143E+03  0.00000000000E+00 0. -1.
         -3    1    3    3    0  502  0.88532560786E+01 -0.15311963135E+02 -0.25873821472E+02  0.31341521913E+02  0.00000000000E+00 0.  1.
         11    1    5    5    0    0 -0.82390178161E+02  0.53273758911E+02  0.14418635709E+03  0.17440166403E+03  0.00000000000E+00 0.  1.
        -11    1    5    5    0    0 -0.51710688060E+02 -0.13727755801E+02  0.19240054712E+03  0.19970081891E+03  0.00000000000E+00 0. -1.
          3    1    6    6  503    0 -0.21869247442E+02  0.17558448876E+02 -0.16511383993E+03  0.16747878446E+03  0.00000000000E+00 0. -1.
         -3    1    6    6    0  503  0.21645998738E+02 -0.69768720127E+02 -0.45905725974E+03  0.46483307895E+03  0.00000000000E+00 0.  1.
<mgrwt>
<rscale>  0 0.14086486E+04</rscale>
<asrwt>0</asrwt>
<pdfrwt beam="1">  1        2 0.20721753E+00 0.14086486E+04</pdfrwt>
<pdfrwt beam="2">  1       -1 0.56662029E-01 0.14086486E+04</pdfrwt>
<totfact> 0.54262586E+01</totfact>
</mgrwt>
</event>
<event>
12    6  0.1556619E-007  0.1240285E+04  0.7818608E-02  0.9078308E-01
          2   -1    0    0  501    0  0.00000000000E+00  0.00000000000E+00  0.27014448859E+03  0.27014448859E+03  0.00000000000E+00 0. -1.
         -1   -1    0    0    0  501 -0.00000000000E+00 -0.00000000000E+00 -0.14235966449E+04  0.14235966449E+04  0.00000000000E+00 0.  1.
         24    2    1    2    0    0  0.19579902615E+03 -0.12197953057E+03 -0.17002197241E+03  0.29758004176E+03  0.80188188829E+02 0.  0.
        254    2    1    2    0    0 -0.19579902615E+03  0.12197953057E+03 -0.98343018391E+03  0.13961610918E+04  0.96380215967E+03 0.  0.
         23    2    4    4    0    0 -0.29371477010E+02 -0.15758382101E+03 -0.10376715391E+04  0.10541240494E+04  0.93380641085E+02 0.  0.
         23    2    4    4    0    0 -0.16642754914E+03  0.27956335158E+03  0.54241355207E+02  0.34203704235E+03  0.90517495883E+02 0.  0.
          2    1    3    3  502    0  0.26563990986E+01 -0.21213684687E+02 -0.23302370479E+00  0.21380626142E+02  0.00000000000E+00 0. -1.
         -1    1    3    3    0  502  0.19314262706E+03 -0.10076584588E+03 -0.16978894871E+03  0.27619941561E+03  0.00000000000E+00 0.  1.
         11    1    5    5    0    0 -0.62521662912E+02 -0.12027891855E+03 -0.76914569652E+03  0.78100005061E+03  0.00000000000E+00 0.  1.
        -11    1    5    5    0    0  0.33150185902E+02 -0.37304902464E+02 -0.26852584260E+03  0.27312399879E+03  0.00000000000E+00 0. -1.
          1    1    6    6  503    0 -0.16700673060E+03  0.21574832782E+03  0.33235599200E+02  0.27485122171E+03  0.00000000000E+00 0. -1.
         -1    1    6    6    0  503  0.57918145571E+00  0.63815023762E+02  0.21005756007E+02  0.67185820634E+02  0.00000000000E+00 0.  1.
<mgrwt>
<rscale>  0 0.12402851E+04</rscale>
<asrwt>0</asrwt>
<pdfrwt beam="1">  1        2 0.41560691E-01 0.12402851E+04</pdfrwt>
<pdfrwt beam="2">  1       -1 0.21901487E+00 0.12402851E+04</pdfrwt>
<totfact> 0.15565678E+01</totfact>
</mgrwt>
</event>
<event>
12    6  0.1556619E-007  0.1740672E+04  0.7818608E-02  0.8738502E-01
         -1   -1    0    0    0  501 -0.00000000000E+00  0.00000000000E+00  0.33610090033E+03  0.33610090033E+03  0.00000000000E+00 0.  1.
          2   -1    0    0  501    0  0.00000000000E+00 -0.00000000000E+00 -0.22537417702E+04  0.22537417702E+04  0.00000000000E+00 0. -1.
         24    2    1    2    0    0 -0.29121017875E+03  0.53956780590E+03 -0.46393167326E+03  0.77286955886E+03  0.78472748035E+02 0.  0.
        254    2    1    2    0    0  0.29121017875E+03 -0.53956780590E+03 -0.14537091966E+04  0.18169731117E+04  0.90121255810E+03 0.  0.
         23    2    4    4    0    0 -0.50934691101E+02  0.32172733753E+02 -0.99982535258E+03  0.10057675235E+04  0.91039266422E+02 0.  0.
         23    2    4    4    0    0  0.34214486985E+03 -0.57174053965E+03 -0.45388384403E+03  0.81120558822E+03  0.89964469870E+02 0.  0.
          4    1    3    3  502    0 -0.74478132263E+02  0.17465314971E+03 -0.18430548444E+03  0.26461146325E+03  0.00000000000E+00 0. -1.
         -3    1    3    3    0  502 -0.21673204649E+03  0.36491465619E+03 -0.27962618882E+03  0.50825809561E+03  0.00000000000E+00 0.  1.
         11    1    5    5    0    0  0.71840875899E+01 -0.18097730747E+02 -0.46952537880E+03  0.46992895240E+03  0.00000000000E+00 0.  1.
        -11    1    5    5    0    0 -0.58118778691E+02  0.50270464500E+02 -0.53029997378E+03  0.53583857106E+03  0.00000000000E+00 0. -1.
          3    1    6    6  503    0  0.32777428788E+03 -0.49426146895E+03 -0.41020446095E+03  0.72110892608E+03  0.00000000000E+00 0. -1.
         -3    1    6    6    0  503  0.14370581970E+02 -0.77479070697E+02 -0.43679383082E+02  0.90096662140E+02  0.00000000000E+00 0.  1.
<mgrwt>
<rscale>  0 0.17406719E+04</rscale>
<asrwt>0</asrwt>
<pdfrwt beam="1">  1        2 0.34672950E+00 0.17406719E+04</pdfrwt>
<pdfrwt beam="2">  1       -1 0.51707831E-01 0.17406719E+04</pdfrwt>
<totfact> 0.19590059E+01</totfact>
</mgrwt>
</event>
<event>
12    6  0.1556619E-007  0.2033846E+04  0.7818608E-02  0.8590958E-01
          2   -1    0    0  501    0  0.00000000000E+00  0.00000000000E+00  0.28238455613E+04  0.28238455613E+04  0.00000000000E+00 0. -1.
         -1   -1    0    0    0  501 -0.00000000000E+00 -0.00000000000E+00 -0.36621428364E+03  0.36621428364E+03  0.00000000000E+00 0.  1.
         24    2    1    2    0    0 -0.64221609719E+03  0.26511847566E+03  0.16118806250E+04  0.17570833293E+04  0.80332778415E+02 0.  0.
        254    2    1    2    0    0  0.64221609719E+03 -0.26511847566E+03  0.84575065263E+03  0.14329765156E+04  0.92487740062E+03 0.  0.
         23    2    4    4    0    0  0.61708409840E+03 -0.50487464216E+03  0.85801449126E+03  0.11748320115E+04  0.91379424142E+02 0.  0.
         23    2    4    4    0    0  0.25131998787E+02  0.23975616650E+03 -0.12263838621E+02  0.25814450413E+03  0.91507084605E+02 0.  0.
          2    1    3    3  502    0 -0.65505759683E+01 -0.52221230478E+00  0.44386436638E+02  0.44870240791E+02  0.00000000000E+00 0. -1.
         -1    1    3    3    0  502 -0.63566552122E+03  0.26564068797E+03  0.15674941883E+04  0.17122130885E+04  0.00000000000E+00 0.  1.
         11    1    5    5    0    0  0.42543360837E+03 -0.38946941772E+03  0.57984288188E+03  0.81786181604E+03  0.00000000000E+00 0. -1.
        -11    1    5    5    0    0  0.19165049003E+03 -0.11540522444E+03  0.27817160937E+03  0.35697019542E+03  0.00000000000E+00 0.  1.
          1    1    6    6  503    0  0.36056846110E+02  0.22450196436E+03 -0.33470221566E+02  0.22982924941E+03  0.00000000000E+00 0. -1.
         -1    1    6    6    0  503 -0.10924847322E+02  0.15254202147E+02  0.21206382945E+02  0.28315254719E+02  0.00000000000E+00 0.  1.
<mgrwt>
<rscale>  0 0.20338462E+04</rscale>
<asrwt>0</asrwt>
<pdfrwt beam="1">  1        2 0.43443777E+00 0.20338462E+04</pdfrwt>
<pdfrwt beam="2">  1       -1 0.56340661E-01 0.20338462E+04</pdfrwt>
<totfact> 0.75300194E+00</totfact>
</mgrwt>
</event>
<event>
12    6  0.1556619E-007  0.1545493E+04  0.7818608E-02  0.8854752E-01
         -1   -1    0    0    0  501 -0.00000000000E+00  0.00000000000E+00  0.63023163734E+03  0.63023163734E+03  0.00000000000E+00 0.  1.
          2   -1    0    0  501    0  0.00000000000E+00 -0.00000000000E+00 -0.94748850948E+03  0.94748850948E+03  0.00000000000E+00 0. -1.
         24    2    1    2    0    0  0.47227890046E+03  0.18100620258E+03 -0.90981659055E+02  0.51902412798E+03  0.72785836154E+02 0.  0.
        254    2    1    2    0    0 -0.47227890046E+03 -0.18100620258E+03 -0.22627521308E+03  0.10586960188E+04  0.90212315293E+03 0.  0.
         23    2    4    4    0    0  0.11448821467E+03 -0.33801034316E+03  0.72840690567E+02  0.37564449951E+03  0.91893854124E+02 0.  0.
         23    2    4    4    0    0 -0.58676711513E+03  0.15700414058E+03 -0.29911590365E+03  0.68305151933E+03  0.90239163840E+02 0.  0.
          2    1    3    3  502    0  0.38972899678E+03  0.13116437056E+03 -0.96696695576E+02  0.42242518150E+03  0.00000000000E+00 0. -1.
         -1    1    3    3    0  502  0.82549903689E+02  0.49841832019E+02  0.57150365213E+01  0.96598946477E+02  0.00000000000E+00 0.  1.
         11    1    5    5    0    0  0.11670458011E+03 -0.31987101139E+03  0.46603306777E+02  0.34367032335E+03  0.00000000000E+00 0.  1.
        -11    1    5    5    0    0 -0.22163654479E+01 -0.18139331772E+02  0.26237383790E+02  0.31974176160E+02  0.00000000000E+00 0. -1.
          1    1    6    6  503    0 -0.22107247466E+03  0.31602208554E+02 -0.14830765250E+03  0.26808002244E+03  0.00000000000E+00 0. -1.
         -1    1    6    6    0  503 -0.36569464047E+03  0.12540193203E+03 -0.15080825115E+03  0.41497149690E+03  0.00000000000E+00 0.  1.
<mgrwt>
<rscale>  0 0.15454931E+04</rscale>
<asrwt>0</asrwt>
<pdfrwt beam="1">  1        2 0.14576746E+00 0.15454931E+04</pdfrwt>
<pdfrwt beam="2">  1       -1 0.96958714E-01 0.15454931E+04</pdfrwt>
<totfact> 0.30629639E+01</totfact>
</mgrwt>
</event>
<event>
12    6  0.1556619E-007  0.1552512E+04  0.7818608E-02  0.8850265E-01
          2   -1    0    0  501    0  0.00000000000E+00  0.00000000000E+00  0.13421059118E+04  0.13421059118E+04  0.00000000000E+00 0. -1.
         -1   -1    0    0    0  501 -0.00000000000E+00 -0.00000000000E+00 -0.44897579567E+03  0.44897579567E+03  0.00000000000E+00 0.  1.
         24    2    1    2    0    0  0.11094530890E+03  0.49242276317E+03  0.12263402056E+03  0.52536331050E+03  0.78603217257E+02 0.  0.
        254    2    1    2    0    0 -0.11094530890E+03 -0.49242276317E+03  0.77049609552E+03  0.12657183969E+04  0.86809549466E+03 0.  0.
         23    2    4    4    0    0  0.12480163171E+02 -0.70379431812E+03  0.40703874774E+03  0.81852024720E+03  0.93875748829E+02 0.  0.
         23    2    4    4    0    0 -0.12342547207E+03  0.21137155495E+03  0.36345734778E+03  0.44719814972E+03  0.89292553239E+02 0.  0.
          4    1    3    3  502    0  0.33416911287E+02  0.25810580911E+03  0.94804257518E+02  0.27698943283E+03  0.00000000000E+00 0. -1.
         -3    1    3    3    0  502  0.77528397614E+02  0.23431695406E+03  0.27829763046E+02  0.24837387767E+03  0.00000000000E+00 0.  1.
         11    1    5    5    0    0  0.23004432126E+02 -0.68721639570E+03  0.40671307670E+03  0.79888115835E+03  0.00000000000E+00 0.  1.
        -11    1    5    5    0    0 -0.10524268955E+02 -0.16577922425E+02  0.32567103538E+00  0.19639088843E+02  0.00000000000E+00 0. -1.
          1    1    6    6  503    0  0.72842217395E+01  0.10918202566E+02  0.56377606599E+02  0.57885244748E+02  0.00000000000E+00 0. -1.
         -1    1    6    6    0  503 -0.13070969381E+03  0.20045335238E+03  0.30707974118E+03  0.38931290498E+03  0.00000000000E+00 0.  1.
<mgrwt>
<rscale>  0 0.15525116E+04</rscale>
<asrwt>0</asrwt>
<pdfrwt beam="1">  1        2 0.20647783E+00 0.15525116E+04</pdfrwt>
<pdfrwt beam="2">  1       -1 0.69073200E-01 0.15525116E+04</pdfrwt>
<totfact> 0.36347959E+01</totfact>
</mgrwt>
</event>
<event>
12    6  0.1556619E-007  0.1094924E+04  0.7818608E-02  0.9210153E-01
         -1   -1    0    0    0  501 -0.00000000000E+00  0.00000000000E+00  0.31961796600E+03  0.31961796600E+03  0.00000000000E+00 0.  1.
          2   -1    0    0  501    0  0.00000000000E+00 -0.00000000000E+00 -0.93772788819E+03  0.93772788819E+03  0.00000000000E+00 0. -1.
         24    2    1    2    0    0 -0.13791284677E+03 -0.72414188264E+02 -0.42547251687E+02  0.17734765905E+03  0.73335909203E+02 0.  0.
        254    2    1    2    0    0  0.13791284677E+03  0.72414188264E+02 -0.57556267050E+03  0.10799981951E+04  0.90047762096E+03 0.  0.
         23    2    4    4    0    0  0.21986842362E+03  0.23859430135E+02 -0.79134432991E+03  0.82744253107E+03  0.97590458683E+02 0.  0.
         23    2    4    4    0    0 -0.81955576857E+02  0.48554758130E+02  0.21578165940E+03  0.25255566407E+03  0.90268254674E+02 0.  0.
          2    1    3    3  502    0 -0.29138443578E+02 -0.20157738710E+02 -0.44215705503E+02  0.56660497149E+02  0.00000000000E+00 0. -1.
         -1    1    3    3    0  502 -0.10877440319E+03 -0.52256449555E+02  0.16684538168E+01  0.12068716190E+03  0.00000000000E+00 0.  1.
         11    1    5    5    0    0  0.17323290774E+03  0.13262105088E+02 -0.72580239291E+03  0.74630733436E+03  0.00000000000E+00 0. -1.
        -11    1    5    5    0    0  0.46635515887E+02  0.10597325046E+02 -0.65541936994E+02  0.81135196710E+02  0.00000000000E+00 0.  1.
          4    1    6    6  503    0 -0.61542158165E+02  0.74621677235E+02  0.17572716901E+03  0.20058880794E+03  0.00000000000E+00 0. -1.
         -4    1    6    6    0  503 -0.20413418692E+02 -0.26066919106E+02  0.40054490400E+02  0.51966856125E+02  0.00000000000E+00 0.  1.
<mgrwt>
<rscale>  0 0.10949241E+04</rscale>
<asrwt>0</asrwt>
<pdfrwt beam="1">  1        2 0.14426583E+00 0.10949241E+04</pdfrwt>
<pdfrwt beam="2">  1       -1 0.49171995E-01 0.10949241E+04</pdfrwt>
<totfact> 0.12980992E+02</totfact>
</mgrwt>
</event>
<event>
12    6  0.1556619E-007  0.1226587E+04  0.7818608E-02  0.9089898E-01
          2   -1    0    0  501    0  0.00000000000E+00  0.00000000000E+00  0.11352809162E+04  0.11352809162E+04  0.00000000000E+00 0. -1.
         -1   -1    0    0    0  501 -0.00000000000E+00 -0.00000000000E+00 -0.33130923867E+03  0.33130923867E+03  0.00000000000E+00 0.  1.
         24    2    1    2    0    0  0.12546921659E+03  0.16116609595E+03  0.39978246148E+03  0.45635600348E+03  0.81961885128E+02 0.  0.
        254    2    1    2    0    0 -0.12546921659E+03 -0.16116609595E+03  0.40418921601E+03  0.10102341513E+04  0.90304323452E+03 0.  0.
         23    2    4    4    0    0 -0.33126270688E+03 -0.42092702821E+02  0.59725368264E+03  0.69030644917E+03  0.91127689197E+02 0.  0.
         23    2    4    4    0    0  0.20579349029E+03 -0.11907339313E+03 -0.19306446663E+03  0.31992770218E+03  0.92468441904E+02 0.  0.
          2    1    3    3  502    0 -0.11756495493E+02  0.89631406183E+01  0.20861073820E+02  0.25568290458E+02  0.00000000000E+00 0. -1.
         -1    1    3    3    0  502  0.13722571208E+03  0.15220295533E+03  0.37892138766E+03  0.43078771303E+03  0.00000000000E+00 0.  1.
         11    1    5    5    0    0 -0.32277948657E+02  0.13967894982E+02  0.28320164206E+02  0.45155284966E+02  0.00000000000E+00 0.  1.
        -11    1    5    5    0    0 -0.29898475822E+03 -0.56060597803E+02  0.56893351844E+03  0.64515116421E+03  0.00000000000E+00 0. -1.
          1    1    6    6  503    0  0.89005109372E+02 -0.19823654228E+02 -0.11839954224E+03  0.14944342864E+03  0.00000000000E+00 0. -1.
         -1    1    6    6    0  503  0.11678838092E+03 -0.99249738897E+02 -0.74664924393E+02  0.17048427354E+03  0.00000000000E+00 0.  1.
<mgrwt>
<rscale>  0 0.12265872E+04</rscale>
<asrwt>0</asrwt>
<pdfrwt beam="1">  1        2 0.17465860E+00 0.12265872E+04</pdfrwt>
<pdfrwt beam="2">  1       -1 0.50970653E-01 0.12265872E+04</pdfrwt>
<totfact> 0.90044062E+01</totfact>
</mgrwt>
</event>
<event>
12    6  0.1556619E-007  0.2372936E+04  0.7818608E-02  0.8449706E-01
         -1   -1    0    0    0  501 -0.00000000000E+00  0.00000000000E+00  0.85920356078E+03  0.85920356078E+03  0.00000000000E+00 0.  1.
          2   -1    0    0  501    0  0.00000000000E+00 -0.00000000000E+00 -0.16383850234E+04  0.16383850234E+04  0.00000000000E+00 0. -1.
         24    2    1    2    0    0 -0.20302843183E+03 -0.55478679315E+03  0.53449764755E+03  0.80054712227E+03  0.78606804701E+02 0.  0.
        254    2    1    2    0    0  0.20302843183E+03  0.55478679315E+03 -0.13136791102E+04  0.16970414619E+04  0.89732267829E+03 0.  0.
         23    2    4    4    0    0  0.36128370471E+03  0.70943608631E+03 -0.80825617991E+03  0.11380611259E+04  0.89886584144E+02 0.  0.
         23    2    4    4    0    0 -0.15825527288E+03 -0.15464929316E+03 -0.50542293029E+03  0.55898033606E+03  0.89696947443E+02 0.  0.
          2    1    3    3  502    0 -0.88011656388E+01 -0.84032916409E+02  0.10179303785E+03  0.13229064257E+03  0.00000000000E+00 0. -1.
         -1    1    3    3    0  502 -0.19422726619E+03 -0.47075387674E+03  0.43270460970E+03  0.66825647970E+03  0.00000000000E+00 0.  1.
         11    1    5    5    0    0  0.24466452493E+03  0.52988271620E+03 -0.63651328011E+03  0.86358877856E+03  0.00000000000E+00 0.  1.
        -11    1    5    5    0    0  0.11661917978E+03  0.17955337011E+03 -0.17174289979E+03  0.27447234732E+03  0.00000000000E+00 0. -1.
          1    1    6    6  503    0 -0.10542937621E+03 -0.41111554569E+02 -0.25557789532E+03  0.27950952374E+03  0.00000000000E+00 0. -1.
         -1    1    6    6    0  503 -0.52825896670E+02 -0.11353773859E+03 -0.24984503497E+03  0.27947081232E+03  0.00000000000E+00 0.  1.
<mgrwt>
<rscale>  0 0.23729359E+04</rscale>
<asrwt>0</asrwt>
<pdfrwt beam="1">  1        2 0.25205923E+00 0.23729359E+04</pdfrwt>
<pdfrwt beam="2">  1       -1 0.13218516E+00 0.23729359E+04</pdfrwt>
<totfact> 0.52956263E+00</totfact>
</mgrwt>
</event>
<event>
12    6  0.1556619E-007  0.1129917E+04  0.7818608E-02  0.9176514E-01
         -1   -1    0    0    0  501 -0.00000000000E+00  0.00000000000E+00  0.20631957830E+03  0.20631957830E+03  0.00000000000E+00 0.  1.
          2   -1    0    0  501    0  0.00000000000E+00 -0.00000000000E+00 -0.15470083007E+04  0.15470083007E+04  0.00000000000E+00 0. -1.
         24    2    1    2    0    0  0.53544653210E+02  0.50508557867E+01  0.42008291198E+02  0.10556840628E+03  0.80544713315E+02 0.  0.
        254    2    1    2    0    0 -0.53544653210E+02 -0.50508557867E+01 -0.13826970136E+04  0.16477594728E+04  0.89463272215E+03 0.  0.
         23    2    4    4    0    0  0.31070143218E+03  0.27042195293E+03 -0.53480853005E+03  0.68112690494E+03  0.90831075266E+02 0.  0.
         23    2    4    4    0    0 -0.36424608539E+03 -0.27547280871E+03 -0.84788848357E+03  0.96663256781E+03  0.83085266563E+02 0.  0.
          4    1    3    3  502    0 -0.66614090290E+01 -0.23752473533E+02 -0.33176814756E+01  0.24890989927E+02  0.00000000000E+00 0. -1.
         -3    1    3    3    0  502  0.60206062239E+02  0.28803329319E+02  0.45325972673E+02  0.80677416350E+02  0.00000000000E+00 0.  1.
         11    1    5    5    0    0  0.15124499337E+03  0.16852720665E+03 -0.34824296082E+03  0.41539093294E+03  0.00000000000E+00 0. -1.
        -11    1    5    5    0    0  0.15945643881E+03  0.10189474627E+03 -0.18656556923E+03  0.26573597200E+03  0.00000000000E+00 0.  1.
          1    1    6    6  503    0 -0.11521315021E+03 -0.11311273943E+03 -0.23080679010E+03  0.28167416665E+03  0.00000000000E+00 0. -1.
         -1    1    6    6    0  503 -0.24903293518E+03 -0.16236006928E+03 -0.61708169348E+03  0.68495840116E+03  0.00000000000E+00 0.  1.
<mgrwt>
<rscale>  0 0.11299170E+04</rscale>
<asrwt>0</asrwt>
<pdfrwt beam="1">  1        2 0.23800128E+00 0.11299170E+04</pdfrwt>
<pdfrwt beam="2">  1       -1 0.31741474E-01 0.11299170E+04</pdfrwt>
<totfact> 0.12449291E+02</totfact>
</mgrwt>
</event>
<event>
12    6  0.1556619E-007  0.1268095E+04  0.7818608E-02  0.9055256E-01
          2   -1    0    0  501    0  0.00000000000E+00  0.00000000000E+00  0.10766012709E+04  0.10766012709E+04  0.00000000000E+00 0. -1.
         -1   -1    0    0    0  501 -0.00000000000E+00 -0.00000000000E+00 -0.37341222218E+03  0.37341222218E+03  0.00000000000E+00 0.  1.
         24    2    1    2    0    0 -0.21864234764E+03 -0.15364434672E+03  0.33835573071E+03  0.44236008572E+03  0.98928173290E+02 0.  0.
        254    2    1    2    0    0  0.21864234764E+03  0.15364434672E+03  0.36483331799E+03  0.10076534074E+04  0.90047264143E+03 0.  0.
         23    2    4    4    0    0  0.53478171722E+03 -0.48576911485E+02  0.14660342866E+03  0.56404430217E+03  0.91116453583E+02 0.  0.
         23    2    4    4    0    0 -0.31613936957E+03  0.20222125821E+03  0.21822988933E+03  0.44360910518E+03  0.91253577139E+02 0.  0.
          2    1    3    3  502    0 -0.29276872996E+02 -0.84248159024E+01  0.10212831912E+03  0.10657535541E+03  0.00000000000E+00 0. -1.
         -1    1    3    3    0  502 -0.18936547465E+03 -0.14521953082E+03  0.23622741159E+03  0.33578473031E+03  0.00000000000E+00 0.  1.
         11    1    5    5    0    0  0.48203828735E+03 -0.68825545585E+02  0.14273112818E+03  0.50741505806E+03  0.00000000000E+00 0.  1.
        -11    1    5    5    0    0  0.52743429868E+02  0.20248634100E+02  0.38723004847E+01  0.56629244108E+02  0.00000000000E+00 0. -1.
          3    1    6    6  503    0 -0.93790304586E+02  0.87625068386E+02  0.11727438570E+03  0.17386217353E+03  0.00000000000E+00 0. -1.
         -3    1    6    6    0  503 -0.22234906499E+03  0.11459618982E+03  0.10095550363E+03  0.26974693165E+03  0.00000000000E+00 0.  1.
<mgrwt>
<rscale>  0 0.12680947E+04</rscale>
<asrwt>0</asrwt>
<pdfrwt beam="1">  1        2 0.16563096E+00 0.12680947E+04</pdfrwt>
<pdfrwt beam="2">  1       -1 0.57448035E-01 0.12680947E+04</pdfrwt>
<totfact> 0.77440141E+01</totfact>
</mgrwt>
</event>
<event>
12    6  0.1556619E-007  0.1474650E+04  0.7818608E-02  0.8901488E-01
          2   -1    0    0  501    0  0.00000000000E+00  0.00000000000E+00  0.13364861144E+04  0.13364861144E+04  0.00000000000E+00 0. -1.
         -1   -1    0    0    0  501 -0.00000000000E+00 -0.00000000000E+00 -0.40677417967E+03  0.40677417967E+03  0.00000000000E+00 0.  1.
         24    2    1    2    0    0 -0.22763673496E+03  0.17279013629E+02 -0.17537054924E+03  0.29902185807E+03  0.80883834266E+02 0.  0.
        254    2    1    2    0    0  0.22763673496E+03 -0.17279013629E+02  0.11050824839E+04  0.14442384360E+04  0.90138799427E+03 0.  0.
         23    2    4    4    0    0  0.18990489312E+03  0.42553252420E+03  0.52266959360E+03  0.70611534225E+03  0.90959193599E+02 0.  0.
         23    2    4    4    0    0  0.37731841843E+02 -0.44281153783E+03  0.58241289034E+03  0.73812309373E+03  0.90084275725E+02 0.  0.
          2    1    3    3  502    0 -0.14194358120E+03  0.34426504318E+02 -0.69528398016E+02  0.16176329180E+03  0.00000000000E+00 0. -1.
         -1    1    3    3    0  502 -0.85693153770E+02 -0.17147490688E+02 -0.10584215122E+03  0.13725856627E+03  0.00000000000E+00 0.  1.
         11    1    5    5    0    0  0.30352062140E+02  0.14998014154E+03  0.21016449932E+03  0.25997001232E+03  0.00000000000E+00 0. -1.
        -11    1    5    5    0    0  0.15955283098E+03  0.27555238266E+03  0.31250509429E+03  0.44614532993E+03  0.00000000000E+00 0.  1.
          1    1    6    6  503    0  0.17099252430E+02 -0.73334202233E+02  0.52526231021E+02  0.91811189928E+02  0.00000000000E+00 0. -1.
         -1    1    6    6    0  503  0.20632589413E+02 -0.36947733559E+03  0.52988665932E+03  0.64631190380E+03  0.00000000000E+00 0.  1.
<mgrwt>
<rscale>  0 0.14746498E+04</rscale>
<asrwt>0</asrwt>
<pdfrwt beam="1">  1        2 0.20561325E+00 0.14746498E+04</pdfrwt>
<pdfrwt beam="2">  1       -1 0.62580644E-01 0.14746498E+04</pdfrwt>
<totfact> 0.44987341E+01</totfact>
</mgrwt>
</event>
<event>
12    6  0.1556619E-007  0.1685700E+04  0.7818608E-02  0.8769563E-01
         -1   -1    0    0    0  501 -0.00000000000E+00  0.00000000000E+00  0.41012741306E+03  0.41012741306E+03  0.00000000000E+00 0.  1.
          2   -1    0    0  501    0  0.00000000000E+00 -0.00000000000E+00 -0.17321342242E+04  0.17321342242E+04  0.00000000000E+00 0. -1.
         24    2    1    2    0    0 -0.40092700945E+03  0.25413264018E+03 -0.89919089397E+03  0.10198692063E+04  0.79139550767E+02 0.  0.
        254    2    1    2    0    0  0.40092700945E+03 -0.25413264018E+03 -0.42281591714E+03  0.11223924309E+04  0.92502194755E+03 0.  0.
         23    2    4    4    0    0  0.43443481361E+03 -0.40427524211E+03  0.62579193883E+02  0.60355865179E+03  0.90525200857E+02 0.  0.
         23    2    4    4    0    0 -0.33507804154E+02  0.15014260193E+03 -0.48539511102E+03  0.51883377911E+03  0.99571595753E+02 0.  0.
          2    1    3    3  502    0 -0.24304162834E+03  0.17860685280E+03 -0.49883255245E+03  0.58292671611E+03  0.00000000000E+00 0. -1.
         -1    1    3    3    0  502 -0.15788538111E+03  0.75525787385E+02 -0.40035834152E+03  0.43694249021E+03  0.00000000000E+00 0.  1.
         11    1    5    5    0    0  0.29646533866E+03 -0.21562587601E+03  0.37925800071E+02  0.36854386678E+03  0.00000000000E+00 0.  1.
        -11    1    5    5    0    0  0.13796947495E+03 -0.18864936611E+03  0.24653393813E+02  0.23501478502E+03  0.00000000000E+00 0. -1.
          2    1    6    6  503    0  0.18413673568E+02  0.54407195732E+02 -0.76379752167E+02  0.95567111826E+02  0.00000000000E+00 0. -1.
         -2    1    6    6    0  503 -0.51921477721E+02  0.95735406199E+02 -0.40901535886E+03  0.42326666728E+03  0.00000000000E+00 0.  1.
<mgrwt>
<rscale>  0 0.16856995E+04</rscale>
<asrwt>0</asrwt>
<pdfrwt beam="1">  1        2 0.26648218E+00 0.16856995E+04</pdfrwt>
<pdfrwt beam="2">  1       -1 0.63096526E-01 0.16856995E+04</pdfrwt>
<totfact> 0.26017546E+01</totfact>
</mgrwt>
</event>
<event>
12    6  0.1556619E-007  0.2326610E+04  0.7818608E-02  0.8467502E-01
          2   -1    0    0  501    0  0.00000000000E+00  0.00000000000E+00  0.23374162114E+04  0.23374162114E+04  0.00000000000E+00 0. -1.
         -1   -1    0    0    0  501 -0.00000000000E+00 -0.00000000000E+00 -0.57896342074E+03  0.57896342074E+03  0.00000000000E+00 0.  1.
         24    2    1    2    0    0  0.50047564102E+03 -0.34050195547E+03 -0.22643329236E+03  0.65119759718E+03  0.79804923147E+02 0.  0.
        254    2    1    2    0    0 -0.50047564102E+03  0.34050195547E+03  0.19848860830E+04  0.22651820349E+04  0.90821772720E+03 0.  0.
         23    2    4    4    0    0 -0.52230337902E+03  0.11865042445E+03  0.19472554491E+04  0.20215661524E+04  0.89706084201E+02 0.  0.
         23    2    4    4    0    0  0.21827738002E+02  0.22185153102E+03  0.37630633859E+02  0.24361588250E+03  0.90763878497E+02 0.  0.
          4    1    3    3  502    0  0.15695131273E+03 -0.95558215069E+02 -0.31497599461E+02  0.18643279166E+03  0.00000000000E+00 0. -1.
         -1    1    3    3    0  502  0.34352432829E+03 -0.24494374040E+03 -0.19493569290E+03  0.46476480552E+03  0.00000000000E+00 0.  1.
         11    1    5    5    0    0 -0.50438570547E+03  0.10262647518E+03  0.19008254541E+04  0.19692827477E+04  0.00000000000E+00 0.  1.
        -11    1    5    5    0    0 -0.17917673546E+02  0.16023949272E+02  0.46429994999E+02  0.52283404740E+02  0.00000000000E+00 0. -1.
          1    1    6    6  503    0 -0.24041681024E+01  0.47266893444E+02  0.47536464801E+02  0.67079465755E+02  0.00000000000E+00 0. -1.
         -1    1    6    6    0  503  0.24231906104E+02  0.17458463757E+03 -0.99058309423E+01  0.17653641674E+03  0.00000000000E+00 0.  1.
<mgrwt>
<rscale>  0 0.23266100E+04</rscale>
<asrwt>0</asrwt>
<pdfrwt beam="1">  1        2 0.35960249E+00 0.23266100E+04</pdfrwt>
<pdfrwt beam="2">  1       -1 0.89071297E-01 0.23266100E+04</pdfrwt>
<totfact> 0.54908237E+00</totfact>
</mgrwt>
</event>
<event>
12    6  0.1556619E-007  0.1860079E+04  0.7818608E-02  0.8674987E-01
          2   -1    0    0  501    0  0.00000000000E+00  0.00000000000E+00  0.27113556884E+04  0.27113556884E+04  0.00000000000E+00 0. -1.
         -3   -1    0    0    0  501 -0.00000000000E+00 -0.00000000000E+00 -0.31901874548E+03  0.31901874548E+03  0.00000000000E+00 0.  1.
         24    2    1    2    0    0  0.11243320987E+03  0.32782179411E+03  0.19341204300E+04  0.19665748915E+04  0.80539497719E+02 0.  0.
        254    2    1    2    0    0 -0.11243320987E+03 -0.32782179411E+03  0.45821651288E+03  0.10637995424E+04  0.89532046681E+03 0.  0.
         23    2    4    4    0    0  0.79427067179E+02  0.17298227098E+03 -0.14182569240E+03  0.25341018436E+03  0.88716793443E+02 0.  0.
         23    2    4    4    0    0 -0.19186027705E+03 -0.50080406509E+03  0.60004220528E+03  0.81038935801E+03  0.95211270012E+02 0.  0.
          4    1    3    3  502    0  0.63306795346E+02  0.22758213395E+03  0.11045472757E+04  0.11295247064E+04  0.00000000000E+00 0. -1.
         -3    1    3    3    0  502  0.49126414522E+02  0.10023966016E+03  0.82957315429E+03  0.83705018511E+03  0.00000000000E+00 0.  1.
         11    1    5    5    0    0  0.81462959189E+02  0.16151477119E+03 -0.93363515585E+02  0.20356812392E+03  0.00000000000E+00 0. -1.
        -11    1    5    5    0    0 -0.20358920104E+01  0.11467499788E+02 -0.48462176812E+02  0.49842060442E+02  0.00000000000E+00 0.  1.
          2    1    6    6  503    0 -0.51999254373E+02 -0.22449173038E+03  0.30846880440E+03  0.38503696284E+03  0.00000000000E+00 0. -1.
         -2    1    6    6    0  503 -0.13986102267E+03 -0.27631233471E+03  0.29157340088E+03  0.42535239517E+03  0.00000000000E+00 0.  1.
<mgrwt>
<rscale>  0 0.18600788E+04</rscale>
<asrwt>0</asrwt>
<pdfrwt beam="1">  1        2 0.41713163E+00 0.18600788E+04</pdfrwt>
<pdfrwt beam="2">  1       -3 0.49079809E-01 0.18600788E+04</pdfrwt>
<totfact> 0.65390504E+00</totfact>
</mgrwt>
</event>
<event>
12    6  0.1556619E-007  0.1473207E+04  0.7818608E-02  0.8902468E-01
          2   -1    0    0  501    0  0.00000000000E+00  0.00000000000E+00  0.14739799936E+04  0.14739799936E+04  0.00000000000E+00 0. -1.
         -1   -1    0    0    0  501 -0.00000000000E+00 -0.00000000000E+00 -0.36810862212E+03  0.36810862212E+03  0.00000000000E+00 0.  1.
         24    2    1    2    0    0 -0.32038238263E+03 -0.39396025065E+02 -0.59637273602E+02  0.33739567279E+03  0.77989215432E+02 0.  0.
        254    2    1    2    0    0  0.32038238263E+03  0.39396025065E+02  0.11655086451E+04  0.15046929430E+04  0.89526171195E+03 0.  0.
         23    2    4    4    0    0 -0.28955993325E+03  0.21830238820E+02  0.22072829209E+03  0.37642861447E+03  0.93037672952E+02 0.  0.
         23    2    4    4    0    0  0.60994231589E+03  0.17565786244E+02  0.94478035302E+03  0.11282643285E+04  0.89623065919E+02 0.  0.
          2    1    3    3  502    0 -0.27965157461E+03 -0.23053386724E+02 -0.25426468467E+02  0.28174983073E+03  0.00000000000E+00 0. -1.
         -1    1    3    3    0  502 -0.40730808024E+02 -0.16342638341E+02 -0.34210805135E+02  0.55645842057E+02  0.00000000000E+00 0.  1.
         11    1    5    5    0    0 -0.94993551830E+02  0.33233042992E+01  0.21729678339E+02  0.97503836650E+02  0.00000000000E+00 0.  1.
        -11    1    5    5    0    0 -0.19456638142E+03  0.18506934521E+02  0.19899861376E+03  0.27892477782E+03  0.00000000000E+00 0. -1.
          2    1    6    6  503    0  0.56236936616E+02 -0.24690586786E+02  0.92377335815E+02  0.11093146663E+03  0.00000000000E+00 0. -1.
         -2    1    6    6    0  503  0.55370537927E+03  0.42256373030E+02  0.85240301721E+03  0.10173328619E+04  0.00000000000E+00 0.  1.
<mgrwt>
<rscale>  0 0.14732070E+04</rscale>
<asrwt>0</asrwt>
<pdfrwt beam="1">  1        2 0.22676615E+00 0.14732070E+04</pdfrwt>
<pdfrwt beam="2">  1       -1 0.56632096E-01 0.14732070E+04</pdfrwt>
<totfact> 0.45717504E+01</totfact>
</mgrwt>
</event>
<event>
12    6  0.1556619E-007  0.4687788E+04  0.7818608E-02  0.7878561E-01
         -1   -1    0    0    0  501 -0.00000000000E+00  0.00000000000E+00  0.29336936804E+04  0.29336936804E+04  0.00000000000E+00 0.  1.
          2   -1    0    0  501    0  0.00000000000E+00 -0.00000000000E+00 -0.18726696456E+04  0.18726696456E+04  0.00000000000E+00 0. -1.
         24    2    1    2    0    0  0.20827167381E+04  0.53600052874E+03 -0.19139497988E+03  0.21605333051E+04  0.79161518998E+02 0.  0.
        254    2    1    2    0    0 -0.20827167381E+04 -0.53600052874E+03  0.12524190147E+04  0.26458300208E+04  0.89825248840E+03 0.  0.
         23    2    4    4    0    0 -0.71417688300E+03 -0.35564364538E+02 -0.17397668274E+01  0.72092213416E+03  0.91718332380E+02 0.  0.
         23    2    4    4    0    0 -0.13685398551E+04 -0.50043616420E+03  0.12541587815E+04  0.19249078867E+04  0.94965433603E+02 0.  0.
          2    1    3    3  502    0  0.19943412126E+04  0.49683458581E+03 -0.18659412623E+03  0.20637487361E+04  0.00000000000E+00 0. -1.
         -3    1    3    3    0  502  0.88375525552E+02  0.39165942925E+02 -0.48008536496E+01  0.96784569005E+02  0.00000000000E+00 0.  1.
         11    1    5    5    0    0 -0.35744840643E+03  0.11284235583E+02 -0.36353123307E+02  0.35946939620E+03  0.00000000000E+00 0.  1.
        -11    1    5    5    0    0 -0.35672847658E+03 -0.46848600121E+02  0.34613356479E+02  0.36145273796E+03  0.00000000000E+00 0. -1.
          3    1    6    6  503    0 -0.72107527645E+02 -0.24307071340E+02  0.95813942829E+02  0.12235457041E+03  0.00000000000E+00 0. -1.
         -3    1    6    6    0  503 -0.12964323275E+04 -0.47612909286E+03  0.11583448387E+04  0.18025533163E+04  0.00000000000E+00 0.  1.
<mgrwt>
<rscale>  0 0.46877880E+04</rscale>
<asrwt>0</asrwt>
<pdfrwt beam="1">  1        2 0.28810302E+00 0.46877880E+04</pdfrwt>
<pdfrwt beam="2">  1       -1 0.45133749E+00 0.46877880E+04</pdfrwt>
<totfact> 0.21206320E-02</totfact>
</mgrwt>
</event>
<event>
12    6  0.1556619E-007  0.1865747E+04  0.7818608E-02  0.8672096E-01
          2   -1    0    0  501    0  0.00000000000E+00  0.00000000000E+00  0.38450983390E+04  0.38450983390E+04  0.00000000000E+00 0. -1.
         -1   -1    0    0    0  501 -0.00000000000E+00 -0.00000000000E+00 -0.22632798384E+03  0.22632798384E+03  0.00000000000E+00 0.  1.
         24    2    1    2    0    0 -0.22678134911E+02  0.64356386101E+03  0.73956180051E+03  0.98388196051E+03  0.79895647185E+02 0.  0.
        254    2    1    2    0    0  0.22678134911E+02 -0.64356386101E+03  0.28792085546E+04  0.30875443623E+04  0.91016457147E+03 0.  0.
         23    2    4    4    0    0  0.32814571809E+03  0.35633099935E+02  0.63965603334E+03  0.72568584550E+03  0.92253863142E+02 0.  0.
         23    2    4    4    0    0 -0.30546758318E+03 -0.67919696095E+03  0.22395525213E+04  0.23618585168E+04  0.90339369372E+02 0.  0.
          2    1    3    3  502    0 -0.31350231045E+02  0.28398070767E+03  0.27710638528E+03  0.39801485912E+03  0.00000000000E+00 0. -1.
         -1    1    3    3    0  502  0.86720961338E+01  0.35958315334E+03  0.46245541522E+03  0.58586710139E+03  0.00000000000E+00 0.  1.
         11    1    5    5    0    0  0.11232275759E+03  0.40253278542E+02  0.30430312111E+03  0.32685947718E+03  0.00000000000E+00 0. -1.
        -11    1    5    5    0    0  0.21582296049E+03 -0.46201786065E+01  0.33535291223E+03  0.39882636832E+03  0.00000000000E+00 0.  1.
          2    1    6    6  503    0 -0.50584340272E+02 -0.10355861225E+03  0.46051174451E+03  0.47471489179E+03  0.00000000000E+00 0. -1.
         -2    1    6    6    0  503 -0.25488324290E+03 -0.57563834870E+03  0.17790407768E+04  0.18871436250E+04  0.00000000000E+00 0.  1.
<mgrwt>
<rscale>  0 0.18657474E+04</rscale>
<asrwt>0</asrwt>
<pdfrwt beam="1">  1        2 0.59155354E+00 0.18657474E+04</pdfrwt>
<pdfrwt beam="2">  1       -1 0.34819693E-01 0.18657474E+04</pdfrwt>
<totfact> 0.38400614E+00</totfact>
</mgrwt>
</event>
<event>
12    6  0.1556619E-007  0.1706140E+04  0.7818608E-02  0.8757870E-01
          2   -1    0    0  501    0  0.00000000000E+00  0.00000000000E+00  0.75951867487E+03  0.75951867487E+03  0.00000000000E+00 0. -1.
         -1   -1    0    0    0  501 -0.00000000000E+00 -0.00000000000E+00 -0.95814443918E+03  0.95814443918E+03  0.00000000000E+00 0.  1.
         24    2    1    2    0    0 -0.64506741953E+02 -0.29934212018E+03 -0.60373413046E+03  0.68190700263E+03  0.82069697725E+02 0.  0.
        254    2    1    2    0    0  0.64506741953E+02  0.29934212018E+03  0.40510836615E+03  0.10357561114E+04  0.90272427095E+03 0.  0.
         23    2    4    4    0    0  0.28154047950E+03 -0.10592646387E+03  0.46703725135E+03  0.56304893207E+03  0.91732482895E+02 0.  0.
         23    2    4    4    0    0 -0.21703373754E+03  0.40526858405E+03 -0.61928885206E+02  0.47270717935E+03  0.90942960874E+02 0.  0.
          4    1    3    3  502    0 -0.11517750505E+02 -0.31004078804E+00 -0.39365300655E+02  0.41016845292E+02  0.00000000000E+00 0. -1.
         -3    1    3    3    0  502 -0.52988991447E+02 -0.29903207940E+03 -0.56436882980E+03  0.64089015734E+03  0.00000000000E+00 0.  1.
         11    1    5    5    0    0  0.16177507489E+03 -0.35558873248E+02  0.32270401946E+03  0.36273060596E+03  0.00000000000E+00 0.  1.
        -11    1    5    5    0    0  0.11976540460E+03 -0.70367590620E+02  0.14433323189E+03  0.20031832611E+03  0.00000000000E+00 0. -1.
          3    1    6    6  503    0 -0.10598176738E+02 -0.47746222659E+00 -0.98837744259E+01  0.14499597141E+02  0.00000000000E+00 0. -1.
         -3    1    6    6    0  503 -0.20643556080E+03  0.40574604628E+03 -0.52045110780E+02  0.45820758221E+03  0.00000000000E+00 0.  1.
<mgrwt>
<rscale>  0 0.17061402E+04</rscale>
<asrwt>0</asrwt>
<pdfrwt beam="1">  1        2 0.11684903E+00 0.17061402E+04</pdfrwt>
<pdfrwt beam="2">  1       -1 0.14740684E+00 0.17061402E+04</pdfrwt>
<totfact> 0.14648457E+01</totfact>
</mgrwt>
</event>
<event>
12    6  0.1556619E-007  0.2407005E+04  0.7818608E-02  0.8436886E-01
         -1   -1    0    0    0  501 -0.00000000000E+00  0.00000000000E+00  0.63767844267E+03  0.63767844267E+03  0.00000000000E+00 0.  1.
          2   -1    0    0  501    0  0.00000000000E+00 -0.00000000000E+00 -0.22713932281E+04  0.22713932281E+04  0.00000000000E+00 0. -1.
         24    2    1    2    0    0 -0.27734246593E+03  0.16873936376E+03 -0.18960748032E+04  0.19253731629E+04  0.81057638775E+02 0.  0.
        254    2    1    2    0    0  0.27734246593E+03 -0.16873936376E+03  0.26236001775E+03  0.98369850788E+03  0.89075145759E+03 0.  0.
         23    2    4    4    0    0  0.31296855760E+03 -0.18834639113E+03 -0.25541698098E+03  0.45565295387E+03  0.94647235029E+02 0.  0.
         23    2    4    4    0    0 -0.35626091670E+02  0.19607027371E+02  0.51777699873E+03  0.52804555402E+03  0.95317536547E+02 0.  0.
          4    1    3    3  502    0 -0.12108615358E+03  0.54501923474E+02 -0.98912442811E+03  0.99799772071E+03  0.00000000000E+00 0. -1.
         -3    1    3    3    0  502 -0.15625631235E+03  0.11423744028E+03 -0.90695037508E+03  0.92737544218E+03  0.00000000000E+00 0.  1.
         11    1    5    5    0    0  0.28519235271E+02  0.10191862335E+02 -0.16938208275E+02  0.34700486133E+02  0.00000000000E+00 0. -1.
        -11    1    5    5    0    0  0.28444932233E+03 -0.19853825346E+03 -0.23847877270E+03  0.42095246773E+03  0.00000000000E+00 0.  1.
          3    1    6    6  503    0  0.32485266058E+02  0.57981654696E+01  0.13225173949E+03  0.13630639688E+03  0.00000000000E+00 0. -1.
         -3    1    6    6    0  503 -0.68111357727E+02  0.13808861901E+02  0.38552525924E+03  0.39173915713E+03  0.00000000000E+00 0.  1.
<mgrwt>
<rscale>  0 0.24070052E+04</rscale>
<asrwt>0</asrwt>
<pdfrwt beam="1">  1        2 0.34944512E+00 0.24070052E+04</pdfrwt>
<pdfrwt beam="2">  1       -1 0.98104373E-01 0.24070052E+04</pdfrwt>
<totfact> 0.47902403E+00</totfact>
</mgrwt>
</event>
<event>
12    6  0.1556619E-007  0.1860383E+04  0.7818608E-02  0.8674832E-01
          2   -1    0    0  501    0  0.00000000000E+00  0.00000000000E+00  0.46907810935E+03  0.46907810935E+03  0.00000000000E+00 0. -1.
         -1   -1    0    0    0  501 -0.00000000000E+00 -0.00000000000E+00 -0.18445879952E+04  0.18445879952E+04  0.00000000000E+00 0.  1.
         24    2    1    2    0    0  0.35834262748E+03 -0.24965630183E+03  0.16067011990E+03  0.47219563081E+03  0.80100678007E+02 0.  0.
        254    2    1    2    0    0 -0.35834262748E+03  0.24965630183E+03 -0.15361800058E+04  0.18414704738E+04  0.91674794130E+03 0.  0.
         23    2    4    4    0    0 -0.34180644123E+03  0.11085566245E+03 -0.84753664754E+02  0.38037633344E+03  0.91555175628E+02 0.  0.
         23    2    4    4    0    0 -0.16536186249E+02  0.13880063938E+03 -0.14514263410E+04  0.14610941403E+04  0.92836418094E+02 0.  0.
          4    1    3    3  502    0  0.31570584112E+03 -0.18346856438E+03  0.12755739858E+03  0.38678389595E+03  0.00000000000E+00 0. -1.
         -3    1    3    3    0  502  0.42636786367E+02 -0.66187737445E+02  0.33112721314E+02  0.85411734865E+02  0.00000000000E+00 0.  1.
         11    1    5    5    0    0 -0.22086017281E+03  0.11132898630E+03 -0.35853207294E+02  0.24991760962E+03  0.00000000000E+00 0. -1.
        -11    1    5    5    0    0 -0.12094626842E+03 -0.47332384872E+00 -0.48900457459E+02  0.13045872382E+03  0.00000000000E+00 0.  1.
          4    1    6    6  503    0 -0.33542253042E+02  0.90645745162E+02 -0.12327677241E+04  0.12365508463E+04  0.00000000000E+00 0. -1.
         -4    1    6    6    0  503  0.17006066792E+02  0.48154894219E+02 -0.21865861693E+03  0.22454329405E+03  0.00000000000E+00 0.  1.
<mgrwt>
<rscale>  0 0.18603826E+04</rscale>
<asrwt>0</asrwt>
<pdfrwt beam="1">  1        2 0.72165864E-01 0.18603826E+04</pdfrwt>
<pdfrwt beam="2">  1       -1 0.28378276E+00 0.18603826E+04</pdfrwt>
<totfact> 0.29968098E+00</totfact>
</mgrwt>
</event>
<event>
12    6  0.1556619E-007  0.1975019E+04  0.7818608E-02  0.8618390E-01
          2   -1    0    0  501    0  0.00000000000E+00  0.00000000000E+00  0.19541778565E+04  0.19541778565E+04  0.00000000000E+00 0. -1.
         -1   -1    0    0    0  501 -0.00000000000E+00 -0.00000000000E+00 -0.49902043871E+03  0.49902043871E+03  0.00000000000E+00 0.  1.
         24    2    1    2    0    0 -0.71193038443E+03  0.23830928581E+02  0.96216161668E+03  0.11996878254E+04  0.77994335933E+02 0.  0.
        254    2    1    2    0    0  0.71193038443E+03 -0.23830928581E+02  0.49299580114E+03  0.12535104698E+04  0.90599715924E+03 0.  0.
         23    2    4    4    0    0 -0.46836178583E+02  0.10967786874E+03  0.45065227574E+03  0.47635409244E+03  0.97994312287E+02 0.  0.
         23    2    4    4    0    0  0.75876656302E+03 -0.13350879732E+03  0.42343525398E+02  0.77715637737E+03  0.92885761182E+02 0.  0.
          4    1    3    3  502    0 -0.71352887675E+03  0.23884733999E+02  0.95505018753E+03  0.11923987585E+04  0.00000000000E+00 0. -1.
         -3    1    3    3    0  502  0.15984923187E+01 -0.53805418913E-01  0.71114291586E+01  0.72890669769E+01  0.00000000000E+00 0.  1.
         11    1    5    5    0    0 -0.72820027257E+02  0.94978218544E+02  0.30432966011E+03  0.32701706437E+03  0.00000000000E+00 0. -1.
        -11    1    5    5    0    0  0.25983848674E+02  0.14699650192E+02  0.14632261564E+03  0.14933702808E+03  0.00000000000E+00 0.  1.
          2    1    6    6  503    0  0.59524403195E+03 -0.10564536993E+03  0.71410747478E+02  0.60874945307E+03  0.00000000000E+00 0. -1.
         -2    1    6    6    0  503  0.16352253107E+03 -0.27863427388E+02 -0.29067222079E+02  0.16840692430E+03  0.00000000000E+00 0.  1.
<mgrwt>
<rscale>  0 0.19750187E+04</rscale>
<asrwt>0</asrwt>
<pdfrwt beam="1">  1        2 0.30064274E+00 0.19750187E+04</pdfrwt>
<pdfrwt beam="2">  1       -1 0.76772376E-01 0.19750187E+04</pdfrwt>
<totfact> 0.12783463E+01</totfact>
</mgrwt>
</event>
<event>
12    6  0.1556619E-007  0.1336492E+04  0.7818608E-02  0.9001117E-01
         -3   -1    0    0    0  501 -0.00000000000E+00  0.00000000000E+00  0.36077606420E+03  0.36077606420E+03  0.00000000000E+00 0.  1.
          2   -1    0    0  501    0  0.00000000000E+00 -0.00000000000E+00 -0.12377566424E+04  0.12377566424E+04  0.00000000000E+00 0. -1.
         24    2    1    2    0    0 -0.35558508031E+03 -0.53968849093E+02 -0.18560633994E+03  0.41180809917E+03  0.76044796677E+02 0.  0.
        254    2    1    2    0    0  0.35558508031E+03  0.53968849093E+02 -0.69137423823E+03  0.11867246074E+04  0.89496568120E+03 0.  0.
         23    2    4    4    0    0 -0.20096348689E+03 -0.19974869895E+03 -0.63644764660E+02  0.30542166598E+03  0.94582620957E+02 0.  0.
         23    2    4    4    0    0  0.55654856720E+03  0.25371754805E+03 -0.62772947357E+03  0.88130294143E+03  0.92367097724E+02 0.  0.
          2    1    3    3  502    0 -0.34341155668E+03 -0.54215282250E+02 -0.19292042690E+03  0.39760418157E+03  0.00000000000E+00 0. -1.
         -1    1    3    3    0  502 -0.12173523634E+02  0.24643315726E+00  0.73140869603E+01  0.14203917595E+02  0.00000000000E+00 0.  1.
         11    1    5    5    0    0 -0.99741636429E+02 -0.80070116258E+02 -0.74990183207E+02  0.14826714111E+03  0.00000000000E+00 0.  1.
        -11    1    5    5    0    0 -0.10122185046E+03 -0.11967858269E+03  0.11345418547E+02  0.15715452487E+03  0.00000000000E+00 0. -1.
          4    1    6    6  503    0  0.15239881957E+03  0.10927393667E+03 -0.16006485221E+03  0.24655009705E+03  0.00000000000E+00 0.  1.
         -4    1    6    6    0  503  0.40414974763E+03  0.14444361138E+03 -0.46766462136E+03  0.63475284438E+03  0.00000000000E+00 0. -1.
<mgrwt>
<rscale>  0 0.13364924E+04</rscale>
<asrwt>0</asrwt>
<pdfrwt beam="1">  1        2 0.19042410E+00 0.13364924E+04</pdfrwt>
<pdfrwt beam="2">  1       -3 0.55504011E-01 0.13364924E+04</pdfrwt>
<totfact> 0.35892681E+01</totfact>
</mgrwt>
</event>
<event>
12    6  0.1556619E-007  0.1192436E+04  0.7818608E-02  0.9119503E-01
         -1   -1    0    0    0  501 -0.00000000000E+00  0.00000000000E+00  0.32182784737E+03  0.32182784737E+03  0.00000000000E+00 0.  1.
          2   -1    0    0  501    0  0.00000000000E+00 -0.00000000000E+00 -0.11045537913E+04  0.11045537913E+04  0.00000000000E+00 0. -1.
         24    2    1    2    0    0  0.22880987637E+03 -0.89800784379E+01 -0.14346950500E+03  0.28168490871E+03  0.79550534868E+02 0.  0.
        254    2    1    2    0    0 -0.22880987637E+03  0.89800784379E+01 -0.63925643895E+03  0.11446967300E+04  0.92154609627E+03 0.  0.
         23    2    4    4    0    0 -0.23937529862E+03 -0.40946274324E+03 -0.49608118403E+03  0.69262592624E+03  0.93133564639E+02 0.  0.
         23    2    4    4    0    0  0.10565422252E+02  0.41844282167E+03 -0.14317525491E+03  0.45207080373E+03  0.93074350965E+02 0.  0.
          2    1    3    3  502    0  0.20786986731E+03 -0.11477245294E+01 -0.15225061613E+03  0.25766538208E+03  0.00000000000E+00 0. -1.
         -1    1    3    3    0  502  0.20940009057E+02 -0.78323539085E+01  0.87811111314E+01  0.24019526635E+02  0.00000000000E+00 0.  1.
         11    1    5    5    0    0 -0.15055143669E+03 -0.28147856372E+03 -0.39080269318E+03  0.50460148822E+03  0.00000000000E+00 0. -1.
        -11    1    5    5    0    0 -0.88823861933E+02 -0.12798417952E+03 -0.10527849086E+03  0.18802443802E+03  0.00000000000E+00 0.  1.
          1    1    6    6  503    0 -0.23876165050E+02  0.24740412276E+03 -0.47376569999E+02  0.25302847785E+03  0.00000000000E+00 0. -1.
         -1    1    6    6    0  503  0.34441587302E+02  0.17103869891E+03 -0.95798684913E+02  0.19904232588E+03  0.00000000000E+00 0.  1.
<mgrwt>
<rscale>  0 0.11924364E+04</rscale>
<asrwt>0</asrwt>
<pdfrwt beam="1">  1        2 0.16993135E+00 0.11924364E+04</pdfrwt>
<pdfrwt beam="2">  1       -1 0.49511978E-01 0.11924364E+04</pdfrwt>
<totfact> 0.99617856E+01</totfact>
</mgrwt>
</event>
<event>
12    6  0.1556619E-007  0.1278732E+04  0.7818608E-02  0.9046603E-01
         -1   -1    0    0    0  501 -0.00000000000E+00  0.00000000000E+00  0.17435973973E+03  0.17435973973E+03  0.00000000000E+00 0.  1.
          2   -1    0    0  501    0  0.00000000000E+00 -0.00000000000E+00 -0.23445158037E+04  0.23445158037E+04  0.00000000000E+00 0. -1.
         24    2    1    2    0    0  0.22577717430E+03 -0.21615217679E+03 -0.55210043685E+03  0.63930415198E+03  0.78726173494E+02 0.  0.
        254    2    1    2    0    0 -0.22577717430E+03  0.21615217679E+03 -0.16180556272E+04  0.18795713915E+04  0.90387361238E+03 0.  0.
         23    2    4    4    0    0 -0.39821109914E+03  0.47572939883E+03 -0.11540509572E+04  0.13134420083E+04  0.91682916535E+02 0.  0.
         23    2    4    4    0    0  0.17243392484E+03 -0.25957722204E+03 -0.46400467002E+03  0.56612938316E+03  0.89935265818E+02 0.  0.
          4    1    3    3  502    0  0.21629514448E+03 -0.22286920482E+03 -0.52849632228E+03  0.61299480801E+03  0.00000000000E+00 0. -1.
         -3    1    3    3    0  502  0.94820298227E+01  0.67170280319E+01 -0.23604114570E+02  0.26309343964E+02  0.00000000000E+00 0.  1.
         11    1    5    5    0    0 -0.17764317619E+03  0.17544950858E+03 -0.38471037562E+03  0.45863024455E+03  0.00000000000E+00 0. -1.
        -11    1    5    5    0    0 -0.22056792295E+03  0.30027989026E+03 -0.76934058153E+03  0.85481176379E+03  0.00000000000E+00 0.  1.
          2    1    6    6  503    0  0.49910843640E+02 -0.26816982912E+02 -0.49649565221E+02  0.75334734432E+02  0.00000000000E+00 0.  1.
         -2    1    6    6    0  503  0.12252308120E+03 -0.23276023913E+03 -0.41435510479E+03  0.49079464872E+03  0.00000000000E+00 0. -1.
<mgrwt>
<rscale>  0 0.12787324E+04</rscale>
<asrwt>0</asrwt>
<pdfrwt beam="1">  1        2 0.36069474E+00 0.12787324E+04</pdfrwt>
<pdfrwt beam="2">  1       -1 0.26824575E-01 0.12787324E+04</pdfrwt>
<totfact> 0.59519512E+01</totfact>
</mgrwt>
</event>
<event>
12    6  0.1556619E-007  0.2456231E+04  0.7818608E-02  0.8418746E-01
          2   -1    0    0  501    0  0.00000000000E+00  0.00000000000E+00  0.11231264687E+04  0.11231264687E+04  0.00000000000E+00 0. -1.
         -1   -1    0    0    0  501 -0.00000000000E+00 -0.00000000000E+00 -0.13429190086E+04  0.13429190086E+04  0.00000000000E+00 0.  1.
         24    2    1    2    0    0 -0.90945941770E+03  0.54334199471E+03 -0.10895504054E+03  0.10678926784E+04  0.78655045247E+02 0.  0.
        254    2    1    2    0    0  0.90945941770E+03 -0.54334199471E+03 -0.11083749939E+03  0.13981527989E+04  0.90565409634E+03 0.  0.
         23    2    4    4    0    0  0.36678345323E+03 -0.27991989439E+03 -0.49059310591E+03  0.67954721033E+03  0.90650795211E+02 0.  0.
         23    2    4    4    0    0  0.54267596447E+03 -0.26342210032E+03  0.37975560652E+03  0.71860558859E+03  0.91056388625E+02 0.  0.
          2    1    3    3  502    0 -0.20453530627E+02  0.30544040288E+01  0.52436217193E+01  0.21334757271E+02  0.00000000000E+00 0. -1.
         -1    1    3    3    0  502 -0.88900588707E+03  0.54028759068E+03 -0.11419866226E+03  0.10465579212E+04  0.00000000000E+00 0.  1.
         11    1    5    5    0    0  0.23389798118E+03 -0.14711822987E+03 -0.23758447775E+03  0.36441517974E+03  0.00000000000E+00 0. -1.
        -11    1    5    5    0    0  0.13288547204E+03 -0.13280166451E+03 -0.25300862817E+03  0.31513203059E+03  0.00000000000E+00 0.  1.
          4    1    6    6  503    0  0.36875439372E+03 -0.16875497509E+03  0.20453139626E+03  0.45419284072E+03  0.00000000000E+00 0. -1.
         -4    1    6    6    0  503  0.17392157076E+03 -0.94667125229E+02  0.17522421026E+03  0.26441274787E+03  0.00000000000E+00 0.  1.
<mgrwt>
<rscale>  0 0.24562312E+04</rscale>
<asrwt>0</asrwt>
<pdfrwt beam="1">  1        2 0.17278869E+00 0.24562312E+04</pdfrwt>
<pdfrwt beam="2">  1       -1 0.20660292E+00 0.24562312E+04</pdfrwt>
<totfact> 0.29167655E+00</totfact>
</mgrwt>
</event>
<event>
12    6  0.1556619E-007  0.1318636E+04  0.7818608E-02  0.9014916E-01
          2   -1    0    0  501    0  0.00000000000E+00  0.00000000000E+00  0.91145955801E+03  0.91145955801E+03  0.00000000000E+00 0. -1.
         -1   -1    0    0    0  501 -0.00000000000E+00 -0.00000000000E+00 -0.47692755618E+03  0.47692755618E+03  0.00000000000E+00 0.  1.
         24    2    1    2    0    0 -0.72783264474E+01  0.20563111361E+03 -0.16674958755E+03  0.27666747111E+03  0.80014596785E+02 0.  0.
        254    2    1    2    0    0  0.72783264474E+01 -0.20563111361E+03  0.60128158938E+03  0.11117196431E+04  0.91216439646E+03 0.  0.
         23    2    4    4    0    0 -0.42310235490E+03  0.18143633770E+02  0.35794916279E+03  0.56183806419E+03  0.90496480948E+02 0.  0.
         23    2    4    4    0    0  0.43038068135E+03 -0.22377474738E+03  0.24333242659E+03  0.54988157889E+03  0.88636406301E+02 0.  0.
          4    1    3    3  502    0 -0.39211378768E+02  0.70518338703E+02 -0.47368315114E+02  0.93563484304E+02  0.00000000000E+00 0. -1.
         -3    1    3    3    0  502  0.31933052321E+02  0.13511277491E+03 -0.11938127244E+03  0.18310398681E+03  0.00000000000E+00 0.  1.
         11    1    5    5    0    0 -0.70982667413E+02  0.13228436288E+02  0.22868084304E+02  0.75739552939E+02  0.00000000000E+00 0. -1.
        -11    1    5    5    0    0 -0.35211968749E+03  0.49151974822E+01  0.33508107849E+03  0.48609851125E+03  0.00000000000E+00 0.  1.
          1    1    6    6  503    0  0.14293174800E+03 -0.11708155556E+03  0.11405049040E+03  0.21712920025E+03  0.00000000000E+00 0. -1.
         -1    1    6    6    0  503  0.28744893335E+03 -0.10669319182E+03  0.12928193619E+03  0.33275237864E+03  0.00000000000E+00 0.  1.
<mgrwt>
<rscale>  0 0.13186359E+04</rscale>
<asrwt>0</asrwt>
<pdfrwt beam="1">  1        2 0.14022455E+00 0.13186359E+04</pdfrwt>
<pdfrwt beam="2">  1       -1 0.73373470E-01 0.13186359E+04</pdfrwt>
<totfact> 0.60242735E+01</totfact>
</mgrwt>
</event>
<event>
12    6  0.1556619E-007  0.1441051E+04  0.7818608E-02  0.8924628E-01
          2   -1    0    0  501    0  0.00000000000E+00  0.00000000000E+00  0.84658720236E+03  0.84658720236E+03  0.00000000000E+00 0. -1.
         -1   -1    0    0    0  501 -0.00000000000E+00 -0.00000000000E+00 -0.61323504326E+03  0.61323504326E+03  0.00000000000E+00 0.  1.
         24    2    1    2    0    0 -0.13262509061E+03 -0.46599296577E+02 -0.34831157021E+03  0.38389223046E+03  0.79318254955E+02 0.  0.
        254    2    1    2    0    0  0.13262509061E+03  0.46599296577E+02  0.58166372930E+03  0.10759300152E+04  0.89416541783E+03 0.  0.
         23    2    4    4    0    0  0.36462914719E+03  0.23661425501E+03  0.61616691794E+03  0.76087493646E+03  0.10162813344E+03 0.  0.
         23    2    4    4    0    0 -0.23200405658E+03 -0.19001495844E+03 -0.34503188644E+02  0.31505507870E+03  0.90209012229E+02 0.  0.
          4    1    3    3  502    0 -0.82931448293E+02  0.37075785441E+01 -0.12846185139E+03  0.15295037926E+03  0.00000000000E+00 0. -1.
         -3    1    3    3    0  502 -0.49693642319E+02 -0.50306875122E+02 -0.21984971882E+03  0.23094185120E+03  0.00000000000E+00 0.  1.
         11    1    5    5    0    0  0.28724459648E+03  0.18054493859E+03  0.39985707538E+03  0.52439642808E+03  0.00000000000E+00 0. -1.
        -11    1    5    5    0    0  0.77384550714E+02  0.56069316425E+02  0.21630984256E+03  0.23647850838E+03  0.00000000000E+00 0.  1.
          4    1    6    6  503    0 -0.15622086447E+03 -0.78114121198E+02 -0.42203016445E+02  0.17968825511E+03  0.00000000000E+00 0. -1.
         -4    1    6    6    0  503 -0.75783192114E+02 -0.11190083724E+03  0.76998278020E+01  0.13536682359E+03  0.00000000000E+00 0.  1.
<mgrwt>
<rscale>  0 0.14410509E+04</rscale>
<asrwt>0</asrwt>
<pdfrwt beam="1">  1        2 0.13024418E+00 0.14410509E+04</pdfrwt>
<pdfrwt beam="2">  1       -1 0.94343853E-01 0.14410509E+04</pdfrwt>
<totfact> 0.38462005E+01</totfact>
</mgrwt>
</event>
<event>
12    6  0.1556619E-007  0.2433489E+04  0.7818608E-02  0.8427071E-01
          2   -1    0    0  501    0  0.00000000000E+00  0.00000000000E+00  0.31277707938E+04  0.31277707938E+04  0.00000000000E+00 0. -1.
         -1   -1    0    0    0  501 -0.00000000000E+00 -0.00000000000E+00 -0.47332971254E+03  0.47332971254E+03  0.00000000000E+00 0.  1.
         24    2    1    2    0    0 -0.84514099252E+03  0.16733000773E+03  0.20193377179E+04  0.21969324113E+04  0.80774823013E+02 0.  0.
        254    2    1    2    0    0  0.84514099252E+03 -0.16733000773E+03  0.63510336339E+03  0.14041680951E+04  0.90888345149E+03 0.  0.
         23    2    4    4    0    0 -0.12027004083E+03  0.57549954675E+02 -0.75689009826E+02  0.18101888629E+03  0.96239965607E+02 0.  0.
         23    2    4    4    0    0  0.96541103335E+03 -0.22487996241E+03  0.71079237322E+03  0.12231492088E+04  0.90987517880E+02 0.  0.
          2    1    3    3  502    0 -0.60196220898E+03  0.10239831277E+03  0.13435952017E+04  0.14758360280E+04  0.00000000000E+00 0. -1.
         -1    1    3    3    0  502 -0.24317878354E+03  0.64931694959E+02  0.67574251614E+03  0.72109638322E+03  0.00000000000E+00 0.  1.
         11    1    5    5    0    0 -0.10376371688E+03  0.11911047135E+00 -0.57107562000E+02  0.11844068881E+03  0.00000000000E+00 0.  1.
        -11    1    5    5    0    0 -0.16506323949E+02  0.57430844204E+02 -0.18581447826E+02  0.62578197478E+02  0.00000000000E+00 0. -1.
          2    1    6    6  503    0  0.91502548732E+03 -0.19921671400E+03  0.68870849834E+03  0.11624449825E+04  0.00000000000E+00 0.  1.
         -2    1    6    6    0  503  0.50385546027E+02 -0.25663248402E+02  0.22083874877E+02  0.60704226349E+02  0.00000000000E+00 0. -1.
<mgrwt>
<rscale>  0 0.24334887E+04</rscale>
<asrwt>0</asrwt>
<pdfrwt beam="1">  1        2 0.48119549E+00 0.24334887E+04</pdfrwt>
<pdfrwt beam="2">  1       -1 0.72819958E-01 0.24334887E+04</pdfrwt>
<totfact> 0.28029023E+00</totfact>
</mgrwt>
</event>
<event>
12    6  0.1556619E-007  0.1601908E+04  0.7818608E-02  0.8819377E-01
         -1   -1    0    0    0  501 -0.00000000000E+00  0.00000000000E+00  0.37032008088E+03  0.37032008088E+03  0.00000000000E+00 0.  1.
          2   -1    0    0  501    0  0.00000000000E+00 -0.00000000000E+00 -0.17323588657E+04  0.17323588657E+04  0.00000000000E+00 0. -1.
         24    2    1    2    0    0 -0.30216759218E+03  0.14341431563E+03 -0.10346257545E+04  0.10903918942E+04  0.81431636177E+02 0.  0.
        254    2    1    2    0    0  0.30216759218E+03 -0.14341431563E+03 -0.32741303036E+03  0.10122870524E+04  0.89758167560E+03 0.  0.
         23    2    4    4    0    0  0.44410900843E+03 -0.43007265635E+03 -0.21614079095E+03  0.66095343436E+03  0.89147629040E+02 0.  0.
         23    2    4    4    0    0 -0.14194141626E+03  0.28665834072E+03 -0.11127223941E+03  0.35133361807E+03  0.93452822147E+02 0.  0.
          4    1    3    3  502    0 -0.27597506746E+03  0.14139132611E+03 -0.99971187893E+03  0.10466984216E+04  0.00000000000E+00 0. -1.
         -3    1    3    3    0  502 -0.26192524715E+02  0.20229895137E+01 -0.34913875523E+02  0.43693472528E+02  0.00000000000E+00 0.  1.
         11    1    5    5    0    0  0.44810899123E+03 -0.42385099870E+03 -0.21081564978E+03  0.65183937846E+03  0.00000000000E+00 0.  1.
        -11    1    5    5    0    0 -0.39999828018E+01 -0.62216576558E+01 -0.53251411675E+01  0.91140558948E+01  0.00000000000E+00 0. -1.
          3    1    6    6  503    0 -0.52611695373E+02  0.12204250223E+03 -0.94946866871E+02  0.16333178003E+03  0.00000000000E+00 0. -1.
         -3    1    6    6    0  503 -0.89329720883E+02  0.16461583850E+03 -0.16325372540E+02  0.18800183804E+03  0.00000000000E+00 0.  1.
<mgrwt>
<rscale>  0 0.16019080E+04</rscale>
<asrwt>0</asrwt>
<pdfrwt beam="1">  1        2 0.26651675E+00 0.16019080E+04</pdfrwt>
<pdfrwt beam="2">  1       -1 0.56972321E-01 0.16019080E+04</pdfrwt>
<totfact> 0.32053197E+01</totfact>
</mgrwt>
</event>
<event>
12    6  0.1556619E-007  0.1654821E+04  0.7818608E-02  0.8787559E-01
          2   -1    0    0  501    0  0.00000000000E+00  0.00000000000E+00  0.26526498012E+04  0.26526498012E+04  0.00000000000E+00 0. -1.
         -1   -1    0    0    0  501 -0.00000000000E+00 -0.00000000000E+00 -0.25808467628E+03  0.25808467628E+03  0.00000000000E+00 0.  1.
         24    2    1    2    0    0 -0.37553979478E+03 -0.31058152254E+03  0.14007891278E+04  0.14853313618E+04  0.80672511611E+02 0.  0.
        254    2    1    2    0    0  0.37553979478E+03  0.31058152254E+03  0.99377599712E+03  0.14254031157E+04  0.89816050358E+03 0.  0.
         23    2    4    4    0    0 -0.16444056370E+03 -0.19780820262E+03  0.30855530322E+03  0.41153707417E+03  0.89373397929E+02 0.  0.
         23    2    4    4    0    0  0.53998035848E+03  0.50838972516E+03  0.68522069390E+03  0.10138660415E+04  0.91422374860E+02 0.  0.
          4    1    3    3  502    0 -0.15088315330E+03 -0.10056978111E+03  0.62623856942E+03  0.65196223254E+03  0.00000000000E+00 0. -1.
         -1    1    3    3    0  502 -0.22465664148E+03 -0.21001174143E+03  0.77455055840E+03  0.83336912927E+03  0.00000000000E+00 0.  1.
         11    1    5    5    0    0 -0.60368783233E+02 -0.11518211297E+03  0.99158758255E+02  0.16353522090E+03  0.00000000000E+00 0.  1.
        -11    1    5    5    0    0 -0.10407178047E+03 -0.82626089652E+02  0.20939654496E+03  0.24800185326E+03  0.00000000000E+00 0. -1.
          3    1    6    6  503    0  0.16168389338E+01  0.19243779966E+02  0.11956506512E+02  0.22713328322E+02  0.00000000000E+00 0. -1.
         -3    1    6    6    0  503  0.53836351955E+03  0.48914594519E+03  0.67326418739E+03  0.99115271321E+03  0.00000000000E+00 0.  1.
<mgrwt>
<rscale>  0 0.16548212E+04</rscale>
<asrwt>0</asrwt>
<pdfrwt beam="1">  1        2 0.40809995E+00 0.16548212E+04</pdfrwt>
<pdfrwt beam="2">  1       -1 0.39705336E-01 0.16548212E+04</pdfrwt>
<totfact> 0.19072187E+01</totfact>
</mgrwt>
</event>
<event>
12    6  0.1556619E-007  0.1304430E+04  0.7818608E-02  0.9026060E-01
          2   -1    0    0  501    0  0.00000000000E+00  0.00000000000E+00  0.18520550869E+04  0.18520550869E+04  0.00000000000E+00 0. -1.
         -1   -1    0    0    0  501 -0.00000000000E+00 -0.00000000000E+00 -0.22968234595E+03  0.22968234595E+03  0.00000000000E+00 0.  1.
         24    2    1    2    0    0  0.10692076309E+03 -0.15170783556E+03  0.87375284418E+03  0.89662501559E+03  0.77750041237E+02 0.  0.
        254    2    1    2    0    0 -0.10692076309E+03  0.15170783556E+03  0.74861989681E+03  0.11851124173E+04  0.89978462688E+03 0.  0.
         23    2    4    4    0    0 -0.27306392905E+03 -0.12431601588E+03 -0.50838034511E+02  0.31806126486E+03  0.92520707387E+02 0.  0.
         23    2    4    4    0    0  0.16614316596E+03  0.27602385144E+03  0.79945793132E+03  0.86705115244E+03  0.94085061695E+02 0.  0.
          4    1    3    3  502    0  0.72057857541E+02 -0.69280749039E+02  0.60913621330E+03  0.61728363284E+03  0.00000000000E+00 0. -1.
         -3    1    3    3    0  502  0.34862905546E+02 -0.82427086517E+02  0.26461663088E+03  0.27934138275E+03  0.00000000000E+00 0.  1.
         11    1    5    5    0    0 -0.18749774853E+03 -0.12733854978E+03 -0.51548703093E+02  0.23243876775E+03  0.00000000000E+00 0.  1.
        -11    1    5    5    0    0 -0.85566180525E+02  0.30225338991E+01  0.71066858138E+00  0.85622497106E+02  0.00000000000E+00 0. -1.
          4    1    6    6  503    0  0.11567538995E+03  0.13347041634E+03  0.52181985337E+03  0.55090026978E+03  0.00000000000E+00 0. -1.
         -4    1    6    6    0  503  0.50467776012E+02  0.14255343510E+03  0.27763807795E+03  0.31615088265E+03  0.00000000000E+00 0.  1.
<mgrwt>
<rscale>  0 0.13044299E+04</rscale>
<asrwt>0</asrwt>
<pdfrwt beam="1">  1        2 0.28493154E+00 0.13044299E+04</pdfrwt>
<pdfrwt beam="2">  1       -1 0.35335747E-01 0.13044299E+04</pdfrwt>
<totfact> 0.68761719E+01</totfact>
</mgrwt>
</event>
<event>
12    6  0.1556619E-007  0.1554626E+04  0.7818608E-02  0.8848918E-01
          2   -1    0    0  501    0  0.00000000000E+00  0.00000000000E+00  0.20016700408E+04  0.20016700408E+04  0.00000000000E+00 0. -1.
         -1   -1    0    0    0  501 -0.00000000000E+00 -0.00000000000E+00 -0.30185580385E+03  0.30185580385E+03  0.00000000000E+00 0.  1.
         24    2    1    2    0    0  0.16524055773E+02 -0.31643238468E+03 -0.27008129141E+02  0.32772110739E+03  0.79178195803E+02 0.  0.
        254    2    1    2    0    0 -0.16524055773E+02  0.31643238468E+03  0.17268223661E+04  0.19758047373E+04  0.90635885681E+03 0.  0.
         23    2    4    4    0    0 -0.43300943032E+03  0.29694449717E+03  0.96131917788E+03  0.10990708813E+04  0.90272029190E+02 0.  0.
         23    2    4    4    0    0  0.41648537454E+03  0.19487887510E+02  0.76550318826E+03  0.87673385600E+03  0.93953595233E+02 0.  0.
          4    1    3    3  502    0 -0.13591752067E+02 -0.12008483872E+03 -0.43385809952E+02  0.12840339840E+03  0.00000000000E+00 0. -1.
         -3    1    3    3    0  502  0.30115807840E+02 -0.19634754596E+03  0.16377680812E+02  0.19931770898E+03  0.00000000000E+00 0.  1.
         11    1    5    5    0    0 -0.78686982703E+02  0.55061702478E+02  0.11192029446E+03  0.14747740383E+03  0.00000000000E+00 0.  1.
        -11    1    5    5    0    0 -0.35432244761E+03  0.24188279470E+03  0.84939888341E+03  0.95159347749E+03  0.00000000000E+00 0. -1.
          4    1    6    6  503    0  0.36430426142E+03  0.19228413698E+02  0.59036401358E+03  0.69398630773E+03  0.00000000000E+00 0. -1.
         -4    1    6    6    0  503  0.52181113125E+02  0.25947381194E+00  0.17513917468E+03  0.18274754828E+03  0.00000000000E+00 0.  1.
<mgrwt>
<rscale>  0 0.15546263E+04</rscale>
<asrwt>0</asrwt>
<pdfrwt beam="1">  1        2 0.30794923E+00 0.15546263E+04</pdfrwt>
<pdfrwt beam="2">  1       -1 0.46439356E-01 0.15546263E+04</pdfrwt>
<totfact> 0.33744491E+01</totfact>
</mgrwt>
</event>
<event>
12    6  0.1556619E-007  0.3000842E+04  0.7818608E-02  0.8243490E-01
          2   -1    0    0  501    0  0.00000000000E+00  0.00000000000E+00  0.10871506927E+04  0.10871506927E+04  0.00000000000E+00 0. -1.
         -1   -1    0    0    0  501 -0.00000000000E+00 -0.00000000000E+00 -0.20707923159E+04  0.20707923159E+04  0.00000000000E+00 0.  1.
         24    2    1    2    0    0  0.19704625260E+03  0.11497684406E+04  0.29683305244E+03  0.12062543740E+04  0.78390441323E+02 0.  0.
        254    2    1    2    0    0 -0.19704625260E+03 -0.11497684406E+04 -0.12804746757E+04  0.19516886346E+04  0.89926549962E+03 0.  0.
         23    2    4    4    0    0  0.33660702315E+03 -0.46677774979E+03 -0.66396080355E+03  0.88348010922E+03  0.92235562559E+02 0.  0.
         23    2    4    4    0    0 -0.53365327575E+03 -0.68299069077E+03 -0.61651387213E+03  0.10682085254E+04  0.98579900509E+02 0.  0.
          2    1    3    3  502    0  0.86781929099E+02  0.63863179957E+03  0.19678936605E+03  0.67387516146E+03  0.00000000000E+00 0. -1.
         -1    1    3    3    0  502  0.11026432350E+03  0.51113664098E+03  0.10004368639E+03  0.53237921257E+03  0.00000000000E+00 0.  1.
         11    1    5    5    0    0  0.31415779604E+03 -0.38617173625E+03 -0.58839388975E+03  0.77073413067E+03  0.00000000000E+00 0. -1.
        -11    1    5    5    0    0  0.22449227112E+02 -0.80606013541E+02 -0.75566913800E+02  0.11274597855E+03  0.00000000000E+00 0.  1.
          2    1    6    6  503    0 -0.27523777038E+03 -0.42837445484E+03 -0.34427893333E+03  0.61464500953E+03  0.00000000000E+00 0. -1.
         -2    1    6    6    0  503 -0.25841550537E+03 -0.25461623593E+03 -0.27223493880E+03  0.45356351586E+03  0.00000000000E+00 0.  1.
<mgrwt>
<rscale>  0 0.30008421E+04</rscale>
<asrwt>0</asrwt>
<pdfrwt beam="1">  1        2 0.16725395E+00 0.30008421E+04</pdfrwt>
<pdfrwt beam="2">  1       -1 0.31858343E+00 0.30008421E+04</pdfrwt>
<totfact> 0.54100799E-01</totfact>
</mgrwt>
</event>
<event>
12    6  0.1556619E-007  0.1742685E+04  0.7818608E-02  0.8737387E-01
          2   -1    0    0  501    0  0.00000000000E+00  0.00000000000E+00  0.11499309171E+04  0.11499309171E+04  0.00000000000E+00 0. -1.
         -1   -1    0    0    0  501 -0.00000000000E+00 -0.00000000000E+00 -0.66024605911E+03  0.66024605911E+03  0.00000000000E+00 0.  1.
         24    2    1    2    0    0  0.26320366200E+03  0.95491457171E+02  0.77511964226E+03  0.82805907686E+03  0.80477256866E+02 0.  0.
        254    2    1    2    0    0 -0.26320366200E+03 -0.95491457171E+02 -0.28543478428E+03  0.98211789933E+03  0.89704390418E+03 0.  0.
         23    2    4    4    0    0 -0.33574344972E+03 -0.22691664977E+02  0.25048241691E+03  0.42891638509E+03  0.89382596347E+02 0.  0.
         23    2    4    4    0    0  0.72539787724E+02 -0.72799792193E+02 -0.53591720119E+03  0.55320151424E+03  0.90900155528E+02 0.  0.
          4    1    3    3  502    0  0.76654136279E+02 -0.41952873327E+01  0.26310483465E+03  0.27407592207E+03  0.00000000000E+00 0. -1.
         -3    1    3    3    0  502  0.18654952572E+03  0.99686744503E+02  0.51201480760E+03  0.55398315478E+03  0.00000000000E+00 0.  1.
         11    1    5    5    0    0  0.46432182852E+01 -0.28014977792E+01  0.10957509206E+02  0.12225991733E+02  0.00000000000E+00 0.  1.
        -11    1    5    5    0    0 -0.34038666801E+03 -0.19890167198E+02  0.23952490770E+03  0.41669039336E+03  0.00000000000E+00 0. -1.
          3    1    6    6  503    0  0.46460294317E+02  0.11279530868E+02 -0.15301655300E+03  0.16031173462E+03  0.00000000000E+00 0. -1.
         -3    1    6    6    0  503  0.26079493407E+02 -0.84079323061E+02 -0.38290064819E+03  0.39288977962E+03  0.00000000000E+00 0.  1.
<mgrwt>
<rscale>  0 0.17426845E+04</rscale>
<asrwt>0</asrwt>
<pdfrwt beam="1">  1        2 0.17691245E+00 0.17426845E+04</pdfrwt>
<pdfrwt beam="2">  1       -1 0.10157632E+00 0.17426845E+04</pdfrwt>
<totfact> 0.20193285E+01</totfact>
</mgrwt>
</event>
<event>
12    6  0.1556619E-007  0.1579811E+04  0.7818608E-02  0.8833048E-01
         -1   -1    0    0    0  501 -0.00000000000E+00  0.00000000000E+00  0.89986863299E+03  0.89986863299E+03  0.00000000000E+00 0.  1.
          2   -1    0    0  501    0  0.00000000000E+00 -0.00000000000E+00 -0.69337981757E+03  0.69337981757E+03  0.00000000000E+00 0. -1.
         24    2    1    2    0    0 -0.18445310927E+03 -0.25454688315E+03 -0.35020269374E+03  0.47707608300E+03  0.78374721873E+02 0.  0.
        254    2    1    2    0    0  0.18445310927E+03  0.25454688315E+03  0.55669150916E+03  0.11161723676E+04  0.91494166617E+03 0.  0.
         23    2    4    4    0    0 -0.34787813004E+03  0.18061000429E+02  0.31519417156E+03  0.47873437962E+03  0.92162071097E+02 0.  0.
         23    2    4    4    0    0  0.53233123930E+03  0.23648588272E+03  0.24149733760E+03  0.63743798794E+03  0.93295784146E+02 0.  0.
          2    1    3    3  502    0 -0.17738745665E+03 -0.24078843119E+03 -0.35154537950E+03  0.46155122383E+03  0.00000000000E+00 0. -1.
         -1    1    3    3    0  502 -0.70656526161E+01 -0.13758451956E+02  0.13426857601E+01  0.15524859167E+02  0.00000000000E+00 0.  1.
         11    1    5    5    0    0 -0.26841040531E+02  0.46334621856E+01  0.68253564921E+02  0.73487819079E+02  0.00000000000E+00 0. -1.
        -11    1    5    5    0    0 -0.32103708950E+03  0.13427538243E+02  0.24694060664E+03  0.40524656054E+03  0.00000000000E+00 0.  1.
          1    1    6    6  503    0  0.34893078153E+02 -0.32099186505E+01  0.30049313415E+02  0.46160499536E+02  0.00000000000E+00 0. -1.
         -1    1    6    6    0  503  0.49743816115E+03  0.23969580137E+03  0.21144802418E+03  0.59127748840E+03  0.00000000000E+00 0.  1.
<mgrwt>
<rscale>  0 0.15798111E+04</rscale>
<asrwt>0</asrwt>
<pdfrwt beam="1">  1        2 0.10667382E+00 0.15798111E+04</pdfrwt>
<pdfrwt beam="2">  1       -1 0.13844133E+00 0.15798111E+04</pdfrwt>
<totfact> 0.19635805E+01</totfact>
</mgrwt>
</event>
<event>
12    6  0.1556619E-007  0.1582215E+04  0.7818608E-02  0.8831549E-01
          2   -1    0    0  501    0  0.00000000000E+00  0.00000000000E+00  0.10367332530E+04  0.10367332530E+04  0.00000000000E+00 0. -1.
         -3   -1    0    0    0  501 -0.00000000000E+00 -0.00000000000E+00 -0.60367593132E+03  0.60367593132E+03  0.00000000000E+00 0.  1.
         24    2    1    2    0    0 -0.19890230514E+03 -0.13425615461E+03  0.63708378653E+03  0.68523774474E+03  0.78026750037E+02 0.  0.
        254    2    1    2    0    0  0.19890230514E+03  0.13425615461E+03 -0.20402646480E+03  0.95517143962E+03  0.90174211318E+03 0.  0.
         23    2    4    4    0    0  0.42973077201E+03  0.83240558631E+02  0.19020547100E+03  0.48598736306E+03  0.91695522441E+02 0.  0.
         23    2    4    4    0    0 -0.23082846687E+03  0.51015595975E+02 -0.39423193580E+03  0.46918407656E+03  0.93970773887E+02 0.  0.
          4    1    3    3  502    0 -0.16565674635E+03 -0.14193027693E+03  0.55654003979E+03  0.59776515205E+03  0.00000000000E+00 0. -1.
         -3    1    3    3    0  502 -0.33245558794E+02  0.76741223244E+01  0.80543746743E+02  0.87472592693E+02  0.00000000000E+00 0.  1.
         11    1    5    5    0    0  0.19159313292E+03  0.76006561341E+02  0.11564985136E+03  0.23634680888E+03  0.00000000000E+00 0. -1.
        -11    1    5    5    0    0  0.23813763909E+03  0.72339972907E+01  0.74555619647E+02  0.24964055417E+03  0.00000000000E+00 0.  1.
          1    1    6    6  503    0 -0.10040766697E+03 -0.23267064914E+02 -0.18351251705E+03  0.21047541379E+03  0.00000000000E+00 0. -1.
         -1    1    6    6    0  503 -0.13042079990E+03  0.74282660889E+02 -0.21071941876E+03  0.25870866278E+03  0.00000000000E+00 0.  1.
<mgrwt>
<rscale>  0 0.15822148E+04</rscale>
<asrwt>0</asrwt>
<pdfrwt beam="1">  1        2 0.15949742E+00 0.15822148E+04</pdfrwt>
<pdfrwt beam="2">  1       -3 0.92873221E-01 0.15822148E+04</pdfrwt>
<totfact> 0.15082764E+01</totfact>
</mgrwt>
</event>
<event>
12    6  0.1556619E-007  0.1759554E+04  0.7818608E-02  0.8728109E-01
          2   -1    0    0  501    0  0.00000000000E+00  0.00000000000E+00  0.28713898238E+04  0.28713898238E+04  0.00000000000E+00 0. -1.
         -1   -1    0    0    0  501 -0.00000000000E+00 -0.00000000000E+00 -0.26955855883E+03  0.26955855883E+03  0.00000000000E+00 0.  1.
         24    2    1    2    0    0 -0.33357072820E+03  0.36678357063E+03  0.22239120228E+03  0.54917668525E+03  0.79608833523E+02 0.  0.
        254    2    1    2    0    0  0.33357072820E+03 -0.36678357063E+03  0.23794400626E+04  0.25917716973E+04  0.89985882282E+03 0.  0.
         23    2    4    4    0    0  0.19397219909E+03 -0.65772587822E+03  0.16159707935E+04  0.17578193448E+04  0.91316476423E+02 0.  0.
         23    2    4    4    0    0  0.13959852911E+03  0.29094230759E+03  0.76346926919E+03  0.83395235251E+03  0.91956650543E+02 0.  0.
          4    1    3    3  502    0 -0.44106200226E+02  0.70099849338E+02  0.99814370929E+01  0.83420470281E+02  0.00000000000E+00 0. -1.
         -3    1    3    3    0  502 -0.28946452797E+03  0.29668372129E+03  0.21240976519E+03  0.46575621497E+03  0.00000000000E+00 0.  1.
         11    1    5    5    0    0  0.19823647052E+03 -0.56224601020E+03  0.13860399313E+04  0.15088157493E+04  0.00000000000E+00 0. -1.
        -11    1    5    5    0    0 -0.42642714282E+01 -0.95479868023E+02  0.22993086218E+03  0.24900359554E+03  0.00000000000E+00 0.  1.
          1    1    6    6  503    0  0.53647669216E+02  0.20400866925E+03  0.52946014618E+03  0.56993478218E+03  0.00000000000E+00 0. -1.
         -1    1    6    6    0  503  0.85950859891E+02  0.86933638334E+02  0.23400912301E+03  0.26401757033E+03  0.00000000000E+00 0.  1.
<mgrwt>
<rscale>  0 0.17595542E+04</rscale>
<asrwt>0</asrwt>
<pdfrwt beam="1">  1        2 0.44175226E+00 0.17595542E+04</pdfrwt>
<pdfrwt beam="2">  1       -1 0.41470550E-01 0.17595542E+04</pdfrwt>
<totfact> 0.12901089E+01</totfact>
</mgrwt>
</event>
<event>
12    6  0.1556619E-007  0.1416969E+04  0.7818608E-02  0.8941627E-01
          2   -1    0    0  501    0  0.00000000000E+00  0.00000000000E+00  0.28258339481E+04  0.28258339481E+04  0.00000000000E+00 0. -1.
         -1   -1    0    0    0  501 -0.00000000000E+00 -0.00000000000E+00 -0.17762898276E+03  0.17762898276E+03  0.00000000000E+00 0.  1.
         24    2    1    2    0    0  0.26584596922E+03 -0.18860717929E+03  0.24469823700E+03  0.41535093874E+03  0.79952659070E+02 0.  0.
        254    2    1    2    0    0 -0.26584596922E+03  0.18860717929E+03  0.24035067284E+04  0.25881119922E+04  0.90290217806E+03 0.  0.
         23    2    4    4    0    0  0.65622136376E+02  0.34602879053E+03  0.20095402286E+04  0.20422198163E+04  0.91474909677E+02 0.  0.
         23    2    4    4    0    0 -0.33146810560E+03 -0.15742161124E+03  0.39396649977E+03  0.54589217584E+03  0.90199756026E+02 0.  0.
          4    1    3    3  502    0  0.37600238469E+02  0.14165015757E+01  0.17925429468E+02  0.41678596801E+02  0.00000000000E+00 0. -1.
         -3    1    3    3    0  502  0.22824573075E+03 -0.19002368087E+03  0.22677280753E+03  0.37367234194E+03  0.00000000000E+00 0.  1.
         11    1    5    5    0    0  0.64288254696E+02  0.30940059256E+03  0.19135918215E+04  0.19395090528E+04  0.00000000000E+00 0. -1.
        -11    1    5    5    0    0  0.13338816803E+01  0.36628197963E+02  0.95948407098E+02  0.10271076356E+03  0.00000000000E+00 0.  1.
          3    1    6    6  503    0 -0.29418360327E+03 -0.10280415076E+03  0.31981144347E+03  0.44653336406E+03  0.00000000000E+00 0. -1.
         -3    1    6    6    0  503 -0.37284502332E+02 -0.54617460478E+02  0.74155056302E+02  0.99358811780E+02  0.00000000000E+00 0.  1.
<mgrwt>
<rscale>  0 0.14169686E+04</rscale>
<asrwt>0</asrwt>
<pdfrwt beam="1">  1        2 0.43474365E+00 0.14169686E+04</pdfrwt>
<pdfrwt beam="2">  1       -1 0.27327538E-01 0.14169686E+04</pdfrwt>
<totfact> 0.29857483E+01</totfact>
</mgrwt>
</event>
<event>
12    6  0.1556619E-007  0.1590768E+04  0.7818608E-02  0.8826240E-01
         -1   -1    0    0    0  501 -0.00000000000E+00  0.00000000000E+00  0.31915476711E+03  0.31915476711E+03  0.00000000000E+00 0.  1.
          2   -1    0    0  501    0  0.00000000000E+00 -0.00000000000E+00 -0.19822220035E+04  0.19822220035E+04  0.00000000000E+00 0. -1.
         24    2    1    2    0    0 -0.43248015591E+03  0.85072316483E+02 -0.10254878010E+04  0.11191033622E+04  0.80565010802E+02 0.  0.
        254    2    1    2    0    0  0.43248015591E+03 -0.85072316483E+02 -0.63757943536E+03  0.11822734084E+04  0.89274099913E+03 0.  0.
         23    2    4    4    0    0  0.35585276390E+03 -0.46623992443E+03 -0.41472620083E+03  0.72452502168E+03  0.94487187936E+02 0.  0.
         23    2    4    4    0    0  0.76627392008E+02  0.38116760794E+03 -0.22285323453E+03  0.45774838672E+03  0.93324802980E+02 0.  0.
          4    1    3    3  502    0 -0.37917701536E+03  0.86687300214E+02 -0.95122898777E+03  0.10276801468E+04  0.00000000000E+00 0. -1.
         -3    1    3    3    0  502 -0.53303140552E+02 -0.16149837313E+01 -0.74258813224E+02  0.91423215359E+02  0.00000000000E+00 0.  1.
         11    1    5    5    0    0  0.23135516682E+02 -0.42713364394E+02 -0.71416903467E+01  0.49098751217E+02  0.00000000000E+00 0.  1.
        -11    1    5    5    0    0  0.33271724722E+03 -0.42352656003E+03 -0.40758451048E+03  0.67542627047E+03  0.00000000000E+00 0. -1.
          2    1    6    6  503    0  0.80245355044E+02  0.29198774574E+03 -0.20774639676E+03  0.36722571538E+03  0.00000000000E+00 0. -1.
         -2    1    6    6    0  503 -0.36179630364E+01  0.89179862200E+02 -0.15106837770E+02  0.90522671337E+02  0.00000000000E+00 0.  1.
<mgrwt>
<rscale>  0 0.15907679E+04</rscale>
<asrwt>0</asrwt>
<pdfrwt beam="1">  1        2 0.30495723E+00 0.15907679E+04</pdfrwt>
<pdfrwt beam="2">  1       -1 0.49100734E-01 0.15907679E+04</pdfrwt>
<totfact> 0.31048569E+01</totfact>
</mgrwt>
</event>
<event>
12    6  0.1556619E-007  0.2331966E+04  0.7818608E-02  0.8465423E-01
          2   -1    0    0  501    0  0.00000000000E+00  0.00000000000E+00  0.29406424954E+04  0.29406424954E+04  0.00000000000E+00 0. -1.
         -1   -1    0    0    0  501 -0.00000000000E+00 -0.00000000000E+00 -0.46231930630E+03  0.46231930630E+03  0.00000000000E+00 0.  1.
         24    2    1    2    0    0  0.95033316811E+03  0.59402189516E+02  0.65287173728E+03  0.11572216141E+04  0.79111365852E+02 0.  0.
        254    2    1    2    0    0 -0.95033316811E+03 -0.59402189516E+02  0.18254514518E+04  0.22457401876E+04  0.89689142980E+03 0.  0.
         23    2    4    4    0    0 -0.13201336655E+03  0.13616725943E+03  0.11327299535E+04  0.11521186202E+04  0.91274946518E+02 0.  0.
         23    2    4    4    0    0 -0.81831980156E+03 -0.19556944895E+03  0.69272149829E+03  0.10936215674E+04  0.90831446140E+02 0.  0.
          2    1    3    3  502    0  0.13895658481E+03  0.32957368305E+02  0.11549567951E+03  0.18366919332E+03  0.00000000000E+00 0. -1.
         -3    1    3    3    0  502  0.81137658329E+03  0.26444821211E+02  0.53737605777E+03  0.97355242075E+03  0.00000000000E+00 0.  1.
         11    1    5    5    0    0 -0.89478217928E+01 -0.13787686635E+02  0.95498616194E+02  0.96902783823E+02  0.00000000000E+00 0. -1.
        -11    1    5    5    0    0 -0.12306554476E+03  0.14995494607E+03  0.10372313373E+04  0.10552158364E+04  0.00000000000E+00 0.  1.
          1    1    6    6  503    0 -0.66737062034E+03 -0.18503150036E+03  0.59882854491E+03  0.91554127555E+03  0.00000000000E+00 0.  1.
         -1    1    6    6    0  503 -0.15094918121E+03 -0.10537948582E+02  0.93892953375E+02  0.17808029190E+03  0.00000000000E+00 0. -1.
<mgrwt>
<rscale>  0 0.23319655E+04</rscale>
<asrwt>0</asrwt>
<pdfrwt beam="1">  1        2 0.45240653E+00 0.23319655E+04</pdfrwt>
<pdfrwt beam="2">  1       -1 0.71126049E-01 0.23319655E+04</pdfrwt>
<totfact> 0.38962983E+00</totfact>
</mgrwt>
</event>
<event>
12    6  0.1556619E-007  0.1789095E+04  0.7818608E-02  0.8712120E-01
          2   -1    0    0  501    0  0.00000000000E+00  0.00000000000E+00  0.86475924612E+03  0.86475924612E+03  0.00000000000E+00 0. -1.
         -1   -1    0    0    0  501 -0.00000000000E+00 -0.00000000000E+00 -0.92536208586E+03  0.92536208586E+03  0.00000000000E+00 0.  1.
         24    2    1    2    0    0  0.63214484146E+03  0.18027276554E+03  0.83686801410E+02  0.66743881917E+03  0.79785500086E+02 0.  0.
        254    2    1    2    0    0 -0.63214484146E+03 -0.18027276554E+03 -0.14428964115E+03  0.11226825128E+04  0.89860511543E+03 0.  0.
         23    2    4    4    0    0 -0.78287287859E+03 -0.13649394769E+03  0.11350887795E+03  0.80785446667E+03  0.90686449610E+02 0.  0.
         23    2    4    4    0    0  0.15072803713E+03 -0.43778817843E+02 -0.25779851909E+03  0.31482804615E+03  0.89560572398E+02 0.  0.
          4    1    3    3  502    0  0.41672715333E+03  0.94166863135E+02  0.84184052789E+02  0.43544904774E+03  0.00000000000E+00 0. -1.
         -1    1    3    3    0  502  0.21541768813E+03  0.86105902401E+02 -0.49725137884E+00  0.23198977143E+03  0.00000000000E+00 0.  1.
         11    1    5    5    0    0 -0.36750807826E+03 -0.10770035973E+03  0.39912185467E+02  0.38503835864E+03  0.00000000000E+00 0.  1.
        -11    1    5    5    0    0 -0.41536480034E+03 -0.28793587960E+02  0.73596692478E+02  0.42281610803E+03  0.00000000000E+00 0. -1.
          1    1    6    6  503    0  0.25406662055E+02 -0.25094581911E+02 -0.13019087755E+03  0.13499963376E+03  0.00000000000E+00 0. -1.
         -1    1    6    6    0  503  0.12532137508E+03 -0.18684235932E+02 -0.12760764155E+03  0.17982841240E+03  0.00000000000E+00 0.  1.
<mgrwt>
<rscale>  0 0.17890952E+04</rscale>
<asrwt>0</asrwt>
<pdfrwt beam="1">  1        2 0.13303988E+00 0.17890952E+04</pdfrwt>
<pdfrwt beam="2">  1       -1 0.14236340E+00 0.17890952E+04</pdfrwt>
<totfact> 0.13409397E+01</totfact>
</mgrwt>
</event>
<event>
12    6  0.1556619E-007  0.1114916E+04  0.7818608E-02  0.9190775E-01
          2   -1    0    0  501    0  0.00000000000E+00  0.00000000000E+00  0.20413422842E+04  0.20413422842E+04  0.00000000000E+00 0. -1.
         -3   -1    0    0    0  501 -0.00000000000E+00 -0.00000000000E+00 -0.15223282807E+03  0.15223282807E+03  0.00000000000E+00 0.  1.
         24    2    1    2    0    0 -0.30549677764E+02 -0.13371316200E+02 -0.98142423733E+01  0.85534510305E+02  0.78152147708E+02 0.  0.
        254    2    1    2    0    0  0.30549677764E+02  0.13371316200E+02  0.18989236985E+04  0.21080406020E+04  0.91477422999E+03 0.  0.
         23    2    4    4    0    0  0.16634889775E+03  0.30006079797E+03  0.27151965047E+03  0.44737475976E+03  0.93342470604E+02 0.  0.
         23    2    4    4    0    0 -0.13579921999E+03 -0.28668948177E+03  0.16274040481E+04  0.16606658422E+04  0.93460241670E+02 0.  0.
          4    1    3    3  502    0 -0.20258057321E+02 -0.45827174757E+02 -0.19130589478E-01  0.50105081565E+02  0.00000000000E+00 0. -1.
         -3    1    3    3    0  502 -0.10291620443E+02  0.32455858557E+02 -0.97951117838E+01  0.35429428740E+02  0.00000000000E+00 0.  1.
         11    1    5    5    0    0  0.13558751706E+03  0.20953390344E+03  0.14449111097E+03  0.28838535438E+03  0.00000000000E+00 0. -1.
        -11    1    5    5    0    0  0.30761380691E+02  0.90526894535E+02  0.12702853950E+03  0.15898940538E+03  0.00000000000E+00 0.  1.
          2    1    6    6  503    0 -0.13987481155E+03 -0.22163285847E+03  0.13891281662E+04  0.14136347297E+04  0.00000000000E+00 0. -1.
         -2    1    6    6    0  503  0.40755915626E+01 -0.65056623305E+02  0.23827588189E+03  0.24703111256E+03  0.00000000000E+00 0.  1.
<mgrwt>
<rscale>  0 0.11149158E+04</rscale>
<asrwt>0</asrwt>
<pdfrwt beam="1">  1        2 0.31405264E+00 0.11149158E+04</pdfrwt>
<pdfrwt beam="2">  1       -3 0.23420436E-01 0.11149158E+04</pdfrwt>
<totfact> 0.70402134E+01</totfact>
</mgrwt>
</event>
<event>
12    6  0.1556619E-007  0.1548743E+04  0.7818608E-02  0.8852671E-01
          2   -1    0    0  501    0  0.00000000000E+00  0.00000000000E+00  0.67050369054E+03  0.67050369054E+03  0.00000000000E+00 0. -1.
         -1   -1    0    0    0  501 -0.00000000000E+00 -0.00000000000E+00 -0.89432936932E+03  0.89432936932E+03  0.00000000000E+00 0.  1.
         24    2    1    2    0    0  0.11513919945E+03 -0.85303267802E+02  0.42525484880E+03  0.45500861801E+03  0.75216177085E+02 0.  0.
        254    2    1    2    0    0 -0.11513919945E+03  0.85303267802E+02 -0.64908052758E+03  0.11098244418E+04  0.88874691430E+03 0.  0.
         23    2    4    4    0    0  0.18928879018E+03 -0.15657017897E+03  0.83982853652E+02  0.27526623573E+03  0.91509091325E+02 0.  0.
         23    2    4    4    0    0 -0.30442798963E+03  0.24187344677E+03 -0.73306338123E+03  0.83455820611E+03  0.89029845338E+02 0.  0.
          4    1    3    3  502    0  0.10128491902E+03 -0.98657052438E+02  0.35376566311E+03  0.38097505589E+03  0.00000000000E+00 0. -1.
         -1    1    3    3    0  502  0.13854280424E+02  0.13353784636E+02  0.71489185685E+02  0.74033562120E+02  0.00000000000E+00 0.  1.
         11    1    5    5    0    0 -0.89718509043E+01 -0.24443193186E+01 -0.25695837420E+01  0.96473605814E+01  0.00000000000E+00 0.  1.
        -11    1    5    5    0    0  0.19826064109E+03 -0.15412585965E+03  0.86552437394E+02  0.26561887515E+03  0.00000000000E+00 0. -1.
          3    1    6    6  503    0 -0.19623248111E+03  0.18112017583E+03 -0.41891283823E+03  0.49678936257E+03  0.00000000000E+00 0. -1.
         -3    1    6    6    0  503 -0.10819550852E+03  0.60753270937E+02 -0.31415054300E+03  0.33776884354E+03  0.00000000000E+00 0.  1.
<mgrwt>
<rscale>  0 0.15487429E+04</rscale>
<asrwt>0</asrwt>
<pdfrwt beam="1">  1        2 0.10315441E+00 0.15487429E+04</pdfrwt>
<pdfrwt beam="2">  1       -1 0.13758913E+00 0.15487429E+04</pdfrwt>
<totfact> 0.20865687E+01</totfact>
</mgrwt>
</event>
<event>
12    6  0.1556619E-007  0.1617010E+04  0.7818608E-02  0.8810166E-01
         -1   -1    0    0    0  501 -0.00000000000E+00  0.00000000000E+00  0.40753809213E+03  0.40753809213E+03  0.00000000000E+00 0.  1.
          2   -1    0    0  501    0  0.00000000000E+00 -0.00000000000E+00 -0.16039731829E+04  0.16039731829E+04  0.00000000000E+00 0. -1.
         24    2    1    2    0    0  0.34110909005E+03 -0.36136617750E+02 -0.97176832712E+03  0.10336082086E+04  0.79693041378E+02 0.  0.
        254    2    1    2    0    0 -0.34110909005E+03  0.36136617750E+02 -0.22466676365E+03  0.97790306642E+03  0.88778262327E+03 0.  0.
         23    2    4    4    0    0 -0.88372353509E+02  0.40705278230E+03 -0.28950315098E+03  0.51532104725E+03  0.90785829624E+02 0.  0.
         23    2    4    4    0    0 -0.25273673654E+03 -0.37091616455E+03  0.64836387336E+02  0.46258201917E+03  0.91234358747E+02 0.  0.
          4    1    3    3  502    0  0.11301223123E+03 -0.12503525310E+02 -0.44096041958E+03  0.45538356821E+03  0.00000000000E+00 0. -1.
         -3    1    3    3    0  502  0.22809685881E+03 -0.23633092440E+02 -0.53080790754E+03  0.57822464040E+03  0.00000000000E+00 0.  1.
         11    1    5    5    0    0 -0.75140216572E+02  0.37903320849E+03 -0.29185760117E+03  0.48424486022E+03  0.00000000000E+00 0.  1.
        -11    1    5    5    0    0 -0.13232136937E+02  0.28019573817E+02  0.23544501882E+01  0.31076187033E+02  0.00000000000E+00 0. -1.
          3    1    6    6  503    0 -0.96112234511E+02 -0.21392073454E+03  0.13225934124E+02  0.23489267256E+03  0.00000000000E+00 0. -1.
         -3    1    6    6    0  503 -0.15662450202E+03 -0.15699543001E+03  0.51610453211E+02  0.22768934661E+03  0.00000000000E+00 0.  1.
<mgrwt>
<rscale>  0 0.16170098E+04</rscale>
<asrwt>0</asrwt>
<pdfrwt beam="1">  1        2 0.24676510E+00 0.16170098E+04</pdfrwt>
<pdfrwt beam="2">  1       -1 0.62698169E-01 0.16170098E+04</pdfrwt>
<totfact> 0.31233984E+01</totfact>
</mgrwt>
</event>
<event>
12    6  0.1556619E-007  0.1433028E+04  0.7818608E-02  0.8930252E-01
          2   -1    0    0  501    0  0.00000000000E+00  0.00000000000E+00  0.79634263403E+03  0.79634263403E+03  0.00000000000E+00 0. -1.
         -1   -1    0    0    0  501 -0.00000000000E+00 -0.00000000000E+00 -0.64468729475E+03  0.64468729475E+03  0.00000000000E+00 0.  1.
         24    2    1    2    0    0  0.27106392091E+03  0.63890430079E+02 -0.28144633611E+03  0.40342097543E+03  0.77322745885E+02 0.  0.
        254    2    1    2    0    0 -0.27106392091E+03 -0.63890430079E+02  0.43310167538E+03  0.10376089534E+04  0.90083163942E+03 0.  0.
         23    2    4    4    0    0 -0.37200319563E+02 -0.45049639225E+03  0.10864913510E+03  0.47355682567E+03  0.90114201855E+02 0.  0.
         23    2    4    4    0    0 -0.23386360135E+03  0.38660596217E+03  0.32445254028E+03  0.56405212768E+03  0.93429105898E+02 0.  0.
          4    1    3    3  502    0  0.68769557055E+01  0.18639818954E+02 -0.11252558873E+02  0.22833209402E+02  0.00000000000E+00 0. -1.
         -3    1    3    3    0  502  0.26418696521E+03  0.45250611125E+02 -0.27019377723E+03  0.38058776603E+03  0.00000000000E+00 0.  1.
         11    1    5    5    0    0  0.17077147438E+02 -0.21712199499E+03  0.22562984000E+02  0.21895816477E+03  0.00000000000E+00 0.  1.
        -11    1    5    5    0    0 -0.54277467002E+02 -0.23337439726E+03  0.86086151104E+02  0.25459866090E+03  0.00000000000E+00 0. -1.
          4    1    6    6  503    0 -0.23411545446E+03  0.38807363446E+03  0.30901945887E+03  0.54854737055E+03  0.00000000000E+00 0. -1.
         -4    1    6    6    0  503  0.25185310974E+00 -0.14676722883E+01  0.15433081410E+02  0.15504757132E+02  0.00000000000E+00 0.  1.
<mgrwt>
<rscale>  0 0.14330275E+04</rscale>
<asrwt>0</asrwt>
<pdfrwt beam="1">  1        2 0.12251425E+00 0.14330275E+04</pdfrwt>
<pdfrwt beam="2">  1       -1 0.99182661E-01 0.14330275E+04</pdfrwt>
<totfact> 0.37328362E+01</totfact>
</mgrwt>
</event>
<event>
12    6  0.1556619E-007  0.2615473E+04  0.7818608E-02  0.8362964E-01
          2   -1    0    0  501    0  0.00000000000E+00  0.00000000000E+00  0.20496704428E+04  0.20496704428E+04  0.00000000000E+00 0. -1.
         -1   -1    0    0    0  501 -0.00000000000E+00 -0.00000000000E+00 -0.83436574992E+03  0.83436574992E+03  0.00000000000E+00 0.  1.
         24    2    1    2    0    0  0.74636571299E+03  0.77033829555E+03  0.60883323275E+02  0.10774769165E+04  0.82260922729E+02 0.  0.
        254    2    1    2    0    0 -0.74636571299E+03 -0.77033829555E+03  0.11544213696E+04  0.18065592762E+04  0.88345053781E+03 0.  0.
         23    2    4    4    0    0 -0.88410684632E+03 -0.49788924682E+03  0.64327513776E+03  0.12042075263E+04  0.82305806403E+02 0.  0.
         23    2    4    4    0    0  0.13774113333E+03 -0.27244904874E+03  0.51114623182E+03  0.60235174989E+03  0.91411467078E+02 0.  0.
          4    1    3    3  502    0  0.33772297063E+02  0.56827811860E+02  0.16290944586E+02  0.68083501124E+02  0.00000000000E+00 0. -1.
         -3    1    3    3    0  502  0.71259341593E+03  0.71351048369E+03  0.44592378689E+02  0.10093934154E+04  0.00000000000E+00 0.  1.
         11    1    5    5    0    0 -0.76572416813E+02 -0.55467779148E+02  0.86658870740E+02  0.12825665448E+03  0.00000000000E+00 0.  1.
        -11    1    5    5    0    0 -0.80753442951E+03 -0.44242146767E+03  0.55661626702E+03  0.10759508718E+04  0.00000000000E+00 0. -1.
          3    1    6    6  503    0  0.53608090345E+02 -0.77679564880E+02  0.24120126667E+03  0.25900963920E+03  0.00000000000E+00 0. -1.
         -3    1    6    6    0  503  0.84133042989E+02 -0.19476948386E+03  0.26994496515E+03  0.34334211069E+03  0.00000000000E+00 0.  1.
<mgrwt>
<rscale>  0 0.26154730E+04</rscale>
<asrwt>0</asrwt>
<pdfrwt beam="1">  1        2 0.31533391E+00 0.26154730E+04</pdfrwt>
<pdfrwt beam="2">  1       -1 0.12836396E+00 0.26154730E+04</pdfrwt>
<totfact> 0.32988145E+00</totfact>
</mgrwt>
</event>
<event>
12    6  0.1556619E-007  0.1645914E+04  0.7818608E-02  0.8792828E-01
          2   -1    0    0  501    0  0.00000000000E+00  0.00000000000E+00  0.87687525010E+03  0.87687525010E+03  0.00000000000E+00 0. -1.
         -1   -1    0    0    0  501 -0.00000000000E+00 -0.00000000000E+00 -0.77235390259E+03  0.77235390259E+03  0.00000000000E+00 0.  1.
         24    2    1    2    0    0 -0.11088171529E+03 -0.51150243234E+03 -0.20291177501E+03  0.56697877201E+03  0.79763691032E+02 0.  0.
        254    2    1    2    0    0  0.11088171529E+03  0.51150243234E+03  0.30743312251E+03  0.10822503807E+04  0.89600294005E+03 0.  0.
         23    2    4    4    0    0 -0.27583525395E+03 -0.10108135693E+03  0.11679012869E+03  0.32752130657E+03  0.85602243302E+02 0.  0.
         23    2    4    4    0    0  0.38671696924E+03  0.61258378926E+03  0.19064299382E+03  0.75472907410E+03  0.91990820393E+02 0.  0.
          2    1    3    3  502    0 -0.56169832079E+02 -0.10788868625E+03 -0.36537704595E+02  0.12700402558E+03  0.00000000000E+00 0. -1.
         -1    1    3    3    0  502 -0.54711883206E+02 -0.40361374608E+03 -0.16637407041E+03  0.43997474643E+03  0.00000000000E+00 0.  1.
         11    1    5    5    0    0 -0.24201351328E+03 -0.11675512177E+03  0.10336973084E+03  0.28790206725E+03  0.00000000000E+00 0.  1.
        -11    1    5    5    0    0 -0.33821740671E+02  0.15673764843E+02  0.13420397843E+02  0.39619239325E+02  0.00000000000E+00 0. -1.
          4    1    6    6  503    0  0.17786387843E+03  0.34403568424E+03  0.13414588226E+03  0.40986733099E+03  0.00000000000E+00 0.  1.
         -4    1    6    6    0  503  0.20885309081E+03  0.26854810502E+03  0.56497111565E+02  0.34486174311E+03  0.00000000000E+00 0. -1.
<mgrwt>
<rscale>  0 0.16459138E+04</rscale>
<asrwt>0</asrwt>
<pdfrwt beam="1">  1        2 0.13490388E+00 0.16459138E+04</pdfrwt>
<pdfrwt beam="2">  1       -1 0.11882368E+00 0.16459138E+04</pdfrwt>
<totfact> 0.21036109E+01</totfact>
</mgrwt>
</event>
<event>
12    6  0.1556619E-007  0.1225266E+04  0.7818608E-02  0.9091024E-01
         -1   -1    0    0    0  501 -0.00000000000E+00  0.00000000000E+00  0.20984468544E+03  0.20984468544E+03  0.00000000000E+00 0.  1.
          2   -1    0    0  501    0  0.00000000000E+00 -0.00000000000E+00 -0.17885575337E+04  0.17885575337E+04  0.00000000000E+00 0. -1.
         24    2    1    2    0    0 -0.10105298071E+02 -0.27198649201E+03 -0.40687587454E+03  0.49619440934E+03  0.81130423973E+02 0.  0.
        254    2    1    2    0    0  0.10105298071E+02  0.27198649201E+03 -0.11718369738E+04  0.15022078098E+04  0.89963750589E+03 0.  0.
         23    2    4    4    0    0  0.34872724630E+03  0.83532385867E+02 -0.10052884476E+04  0.10711544501E+04  0.90435840416E+02 0.  0.
         23    2    4    4    0    0 -0.33862194823E+03  0.18845410614E+03 -0.16654852612E+03  0.43105335974E+03  0.88818992571E+02 0.  0.
          2    1    3    3  502    0 -0.31730436512E+02 -0.11984251311E+03 -0.23457749579E+03  0.26532178591E+03  0.00000000000E+00 0. -1.
         -1    1    3    3    0  502  0.21625138441E+02 -0.15214397890E+03 -0.17229837875E+03  0.23087262343E+03  0.00000000000E+00 0.  1.
         11    1    5    5    0    0  0.87323410690E+02  0.25243769034E+02 -0.15504177099E+03  0.17972361192E+03  0.00000000000E+00 0.  1.
        -11    1    5    5    0    0  0.26140383561E+03  0.58288616833E+02 -0.85024667665E+03  0.89143083819E+03  0.00000000000E+00 0. -1.
          1    1    6    6  503    0 -0.25577654253E+03  0.14255908003E+03 -0.81976546796E+02  0.30408039271E+03  0.00000000000E+00 0. -1.
         -1    1    6    6    0  503 -0.82845405695E+02  0.45895026114E+02 -0.84571979327E+02  0.12697296702E+03  0.00000000000E+00 0.  1.
<mgrwt>
<rscale>  0 0.12252662E+04</rscale>
<asrwt>0</asrwt>
<pdfrwt beam="1">  1        2 0.27516270E+00 0.12252662E+04</pdfrwt>
<pdfrwt beam="2">  1       -1 0.32283798E-01 0.12252662E+04</pdfrwt>
<totfact> 0.88095207E+01</totfact>
</mgrwt>
</event>
<event>
12    6  0.1556619E-007  0.1372038E+04  0.7818608E-02  0.8974311E-01
          2   -1    0    0  501    0  0.00000000000E+00  0.00000000000E+00  0.20266610350E+04  0.20266610350E+04  0.00000000000E+00 0. -1.
         -1   -1    0    0    0  501 -0.00000000000E+00 -0.00000000000E+00 -0.23221539852E+03  0.23221539852E+03  0.00000000000E+00 0.  1.
         24    2    1    2    0    0 -0.15230772421E+03 -0.38892736578E+02  0.10866292296E+04  0.11008390479E+04  0.79832567333E+02 0.  0.
        254    2    1    2    0    0  0.15230772421E+03  0.38892736578E+02  0.70781640683E+03  0.11580373856E+04  0.90295970727E+03 0.  0.
         23    2    4    4    0    0  0.31571096911E+03  0.10649477570E+03 -0.72402319156E+02  0.35282835257E+03  0.90725946074E+02 0.  0.
         23    2    4    4    0    0 -0.16340324490E+03 -0.67602039119E+02  0.78021872598E+03  0.80520903307E+03  0.91376531044E+02 0.  0.
          4    1    3    3  502    0 -0.14750124676E+03 -0.47701474182E+02  0.10716793439E+04  0.10828336274E+04  0.00000000000E+00 0. -1.
         -3    1    3    3    0  502 -0.48064774451E+01  0.88087376039E+01  0.14949885724E+02  0.18005420483E+02  0.00000000000E+00 0.  1.
         11    1    5    5    0    0  0.11073439704E+03  0.57466400395E+02  0.12980776060E+02  0.12543123379E+03  0.00000000000E+00 0.  1.
        -11    1    5    5    0    0  0.20497657207E+03  0.49028375302E+02 -0.85383095216E+02  0.22739711878E+03  0.00000000000E+00 0. -1.
          3    1    6    6  503    0 -0.12977873932E+03 -0.99535745193E+01  0.56901307102E+03  0.58371009055E+03  0.00000000000E+00 0. -1.
         -3    1    6    6    0  503 -0.33624505576E+02 -0.57648464600E+02  0.21120565496E+03  0.22149894251E+03  0.00000000000E+00 0.  1.
<mgrwt>
<rscale>  0 0.13720378E+04</rscale>
<asrwt>0</asrwt>
<pdfrwt beam="1">  1        2 0.31179399E+00 0.13720378E+04</pdfrwt>
<pdfrwt beam="2">  1       -1 0.35725447E-01 0.13720378E+04</pdfrwt>
<totfact> 0.53686805E+01</totfact>
</mgrwt>
</event>
<event>
12    6  0.1556619E-007  0.1720511E+04  0.7818608E-02  0.8749752E-01
          2   -1    0    0  501    0  0.00000000000E+00  0.00000000000E+00  0.12618872602E+04  0.12618872602E+04  0.00000000000E+00 0. -1.
         -1   -1    0    0    0  501 -0.00000000000E+00 -0.00000000000E+00 -0.58645425424E+03  0.58645425424E+03  0.00000000000E+00 0.  1.
         24    2    1    2    0    0  0.28793506289E+03 -0.51805668362E+03  0.30864252085E+02  0.59903556507E+03  0.81250712473E+02 0.  0.
        254    2    1    2    0    0 -0.28793506289E+03  0.51805668362E+03  0.64456875392E+03  0.12493059494E+04  0.89107078777E+03 0.  0.
         23    2    4    4    0    0 -0.27728646528E+03  0.70256335701E+03  0.70280191676E+03  0.10360606942E+04  0.94911397280E+02 0.  0.
         23    2    4    4    0    0 -0.10648597612E+02 -0.18450667339E+03 -0.58233162838E+02  0.21324525526E+03  0.89029952713E+02 0.  0.
          2    1    3    3  502    0  0.26495117399E+02 -0.47228362113E+02 -0.20819152663E+02  0.58016778190E+02  0.00000000000E+00 0. -1.
         -3    1    3    3    0  502  0.26143994549E+03 -0.47082832151E+03  0.51683404749E+02  0.54101878689E+03  0.00000000000E+00 0.  1.
         11    1    5    5    0    0 -0.10525040719E+03  0.37702580849E+03  0.39568480917E+03  0.55659013349E+03  0.00000000000E+00 0.  1.
        -11    1    5    5    0    0 -0.17203605809E+03  0.32553754852E+03  0.30711710758E+03  0.47947056067E+03  0.00000000000E+00 0. -1.
          1    1    6    6  503    0  0.15484815185E+02 -0.10111252400E+03  0.94226794150E+01  0.10272443185E+03  0.00000000000E+00 0. -1.
         -1    1    6    6    0  503 -0.26133412797E+02 -0.83394149391E+02 -0.67655842253E+02  0.11052082341E+03  0.00000000000E+00 0.  1.
<mgrwt>
<rscale>  0 0.17205106E+04</rscale>
<asrwt>0</asrwt>
<pdfrwt beam="1">  1        2 0.19413650E+00 0.17205106E+04</pdfrwt>
<pdfrwt beam="2">  1       -1 0.90223732E-01 0.17205106E+04</pdfrwt>
<totfact> 0.22648306E+01</totfact>
</mgrwt>
</event>
<event>
12    6  0.1556619E-007  0.2117276E+04  0.7818608E-02  0.8553671E-01
          2   -1    0    0  501    0  0.00000000000E+00  0.00000000000E+00  0.50636001589E+03  0.50636001589E+03  0.00000000000E+00 0. -1.
         -1   -1    0    0    0  501 -0.00000000000E+00 -0.00000000000E+00 -0.22132768327E+04  0.22132768327E+04  0.00000000000E+00 0.  1.
         24    2    1    2    0    0 -0.43850571346E+03 -0.65933952069E+03 -0.11533505975E+04  0.14013019593E+04  0.80085679850E+02 0.  0.
        254    2    1    2    0    0  0.43850571346E+03  0.65933952069E+03 -0.55356621928E+03  0.13183348893E+04  0.89697015382E+03 0.  0.
         23    2    4    4    0    0 -0.39032072821E+00  0.53954482241E+03  0.58920508103E+02  0.54987615605E+03  0.88223539814E+02 0.  0.
         23    2    4    4    0    0  0.43889603419E+03  0.11979469828E+03 -0.61248672738E+03  0.76845873321E+03  0.91696973097E+02 0.  0.
          4    1    3    3  502    0 -0.16489373680E+02 -0.63054176589E+02 -0.10314875346E+03  0.12201390892E+03  0.00000000000E+00 0. -1.
         -3    1    3    3    0  502 -0.42201633978E+03 -0.59628534410E+03 -0.10502018440E+04  0.12792880504E+04  0.00000000000E+00 0.  1.
         11    1    5    5    0    0 -0.24124019942E+02  0.43247785210E+03  0.20359953663E+02  0.43362839922E+03  0.00000000000E+00 0.  1.
        -11    1    5    5    0    0  0.23733699214E+02  0.10706697031E+03  0.38560554440E+02  0.11624775683E+03  0.00000000000E+00 0. -1.
          1    1    6    6  503    0  0.73605293594E+02  0.32665881714E+02 -0.59995869060E+02  0.10042063223E+03  0.00000000000E+00 0. -1.
         -1    1    6    6    0  503  0.36529074059E+03  0.87128816568E+02 -0.55249085832E+03  0.66803810098E+03  0.00000000000E+00 0.  1.
<mgrwt>
<rscale>  0 0.21172765E+04</rscale>
<asrwt>0</asrwt>
<pdfrwt beam="1">  1        2 0.77901538E-01 0.21172765E+04</pdfrwt>
<pdfrwt beam="2">  1       -1 0.34050414E+00 0.21172765E+04</pdfrwt>
<totfact> 0.11463262E+00</totfact>
</mgrwt>
</event>
<event>
12    6  0.1556619E-007  0.2637172E+04  0.7818608E-02  0.8355683E-01
         -3   -1    0    0    0  501 -0.00000000000E+00  0.00000000000E+00  0.11165881260E+04  0.11165881260E+04  0.00000000000E+00 0.  1.
          2   -1    0    0  501    0  0.00000000000E+00 -0.00000000000E+00 -0.15571262491E+04  0.15571262491E+04  0.00000000000E+00 0. -1.
         24    2    1    2    0    0  0.58724161446E+02 -0.10086706692E+04  0.38827588528E+03  0.10850605804E+04  0.75718254142E+02 0.  0.
        254    2    1    2    0    0 -0.58724161446E+02  0.10086706692E+04 -0.82881400835E+03  0.15886537947E+04  0.90334000969E+03 0.  0.
         23    2    4    4    0    0 -0.36078955694E+03  0.72697575721E+03 -0.83088645030E+03  0.11652236299E+04  0.93332515160E+02 0.  0.
         23    2    4    4    0    0  0.30206539550E+03  0.28169491195E+03  0.20724419507E+01  0.42343016484E+03  0.93237776166E+02 0.  0.
          4    1    3    3  502    0  0.58241264515E+02 -0.57434039798E+03  0.19135594672E+03  0.60817434670E+03  0.00000000000E+00 0. -1.
         -3    1    3    3    0  502  0.48289693035E+00 -0.43433027118E+03  0.19691993855E+03  0.47688623366E+03  0.00000000000E+00 0.  1.
         11    1    5    5    0    0 -0.34999941647E+03  0.68124663072E+03 -0.80674259796E+03  0.11123983921E+04  0.00000000000E+00 0. -1.
        -11    1    5    5    0    0 -0.10790140468E+02  0.45729126489E+02 -0.24143852345E+02  0.52825237783E+02  0.00000000000E+00 0.  1.
          4    1    6    6  503    0  0.30214231558E+03  0.28613543527E+03 -0.37016879466E+01  0.41614560994E+03  0.00000000000E+00 0. -1.
         -4    1    6    6    0  503 -0.76920082014E-01 -0.44405233154E+01  0.57741298973E+01  0.72845548995E+01  0.00000000000E+00 0.  1.
<mgrwt>
<rscale>  0 0.26371717E+04</rscale>
<asrwt>0</asrwt>
<pdfrwt beam="1">  1        2 0.23955788E+00 0.26371717E+04</pdfrwt>
<pdfrwt beam="2">  1       -3 0.17178279E+00 0.26371717E+04</pdfrwt>
<totfact> 0.14788554E+00</totfact>
</mgrwt>
</event>
<event>
12    6  0.1556619E-007  0.2008096E+04  0.7818608E-02  0.8602845E-01
          2   -1    0    0  501    0  0.00000000000E+00  0.00000000000E+00  0.98763319795E+03  0.98763319795E+03  0.00000000000E+00 0. -1.
         -1   -1    0    0    0  501 -0.00000000000E+00 -0.00000000000E+00 -0.10207356477E+04  0.10207356477E+04  0.00000000000E+00 0.  1.
         24    2    1    2    0    0  0.49104421512E+03  0.35757752359E+03  0.50455740193E+03  0.79372521790E+03  0.80221213606E+02 0.  0.
        254    2    1    2    0    0 -0.49104421512E+03 -0.35757752359E+03 -0.53765985173E+03  0.12146436278E+04  0.90404364927E+03 0.  0.
         23    2    4    4    0    0 -0.66942642371E+03 -0.19861933421E+03 -0.10498733506E+03  0.71189964955E+03  0.90539460087E+02 0.  0.
         23    2    4    4    0    0  0.17838220859E+03 -0.15895818938E+03 -0.43267251667E+03  0.50274397824E+03  0.91967834916E+02 0.  0.
          4    1    3    3  502    0  0.45522537337E+03  0.30321242163E+03  0.43918002046E+03  0.70146062153E+03  0.00000000000E+00 0. -1.
         -1    1    3    3    0  502  0.35818841756E+02  0.54365101960E+02  0.65377381477E+02  0.92264596377E+02  0.00000000000E+00 0.  1.
         11    1    5    5    0    0 -0.32160059150E+03 -0.14063560061E+03 -0.39181553858E+02  0.35318622110E+03  0.00000000000E+00 0. -1.
        -11    1    5    5    0    0 -0.34782583221E+03 -0.57983733592E+02 -0.65805781199E+02  0.35871342845E+03  0.00000000000E+00 0.  1.
          3    1    6    6  503    0  0.16680938278E+02 -0.63527513335E+02 -0.82944974284E+02  0.10580107472E+03  0.00000000000E+00 0. -1.
         -3    1    6    6    0  503  0.16170127031E+03 -0.95430676044E+02 -0.34972754239E+03  0.39694290352E+03  0.00000000000E+00 0.  1.
<mgrwt>
<rscale>  0 0.20080960E+04</rscale>
<asrwt>0</asrwt>
<pdfrwt beam="1">  1        2 0.15194357E+00 0.20080960E+04</pdfrwt>
<pdfrwt beam="2">  1       -1 0.15703625E+00 0.20080960E+04</pdfrwt>
<totfact> 0.83650006E+00</totfact>
</mgrwt>
</event>
<event>
12    6  0.1556619E-007  0.1586578E+04  0.7818608E-02  0.8828836E-01
          2   -1    0    0  501    0  0.00000000000E+00  0.00000000000E+00  0.52514334627E+03  0.52514334627E+03  0.00000000000E+00 0. -1.
         -1   -1    0    0    0  501 -0.00000000000E+00 -0.00000000000E+00 -0.11983534688E+04  0.11983534688E+04  0.00000000000E+00 0.  1.
         24    2    1    2    0    0 -0.38209791663E+03  0.26763616174E+03  0.96452008622E+02  0.48313595773E+03  0.80557002966E+02 0.  0.
        254    2    1    2    0    0  0.38209791663E+03 -0.26763616174E+03 -0.76966213110E+03  0.12403608573E+04  0.85351469073E+03 0.  0.
         23    2    4    4    0    0  0.36613048005E+03 -0.46190163987E+03 -0.19659810923E+03  0.62805767408E+03  0.91656816859E+02 0.  0.
         23    2    4    4    0    0  0.15967436580E+02  0.19426547813E+03 -0.57306402187E+03  0.61230318321E+03  0.92297237152E+02 0.  0.
          4    1    3    3  502    0 -0.64257953832E+02  0.22339289374E+02 -0.74055111661E+01  0.68432229805E+02  0.00000000000E+00 0. -1.
         -3    1    3    3    0  502 -0.31783996280E+03  0.24529687237E+03  0.10385751979E+03  0.41470372793E+03  0.00000000000E+00 0.  1.
         11    1    5    5    0    0  0.36783814458E+03 -0.43634289472E+03 -0.19120950911E+03  0.60188129955E+03  0.00000000000E+00 0.  1.
        -11    1    5    5    0    0 -0.17076645278E+01 -0.25558745155E+02 -0.53886001194E+01  0.26176374525E+02  0.00000000000E+00 0. -1.
          3    1    6    6  503    0  0.33286110172E+02  0.48081452230E+02 -0.25802199204E+03  0.26456594557E+03  0.00000000000E+00 0. -1.
         -3    1    6    6    0  503 -0.17318673592E+02  0.14618402590E+03 -0.31504202983E+03  0.34773723764E+03  0.00000000000E+00 0.  1.
<mgrwt>
<rscale>  0 0.15865779E+04</rscale>
<asrwt>0</asrwt>
<pdfrwt beam="1">  1        2 0.80791285E-01 0.15865779E+04</pdfrwt>
<pdfrwt beam="2">  1       -1 0.18436207E+00 0.15865779E+04</pdfrwt>
<totfact> 0.12353832E+01</totfact>
</mgrwt>
</event>
<event>
12    6  0.1556619E-007  0.2227444E+04  0.7818608E-02  0.8507091E-01
         -1   -1    0    0    0  501 -0.00000000000E+00  0.00000000000E+00  0.51546641880E+03  0.51546641880E+03  0.00000000000E+00 0.  1.
          2   -1    0    0  501    0  0.00000000000E+00 -0.00000000000E+00 -0.24063196249E+04  0.24063196249E+04  0.00000000000E+00 0. -1.
         24    2    1    2    0    0 -0.12785979341E+02 -0.75022915993E+03 -0.15147117644E+04  0.16922933052E+04  0.80607863567E+02 0.  0.
        254    2    1    2    0    0  0.12785979341E+02  0.75022915993E+03 -0.37614144167E+03  0.12294927385E+04  0.89842235966E+03 0.  0.
         23    2    4    4    0    0  0.27635173543E+03  0.82949986846E+03 -0.29065021996E+03  0.92675587846E+03  0.99792757492E+02 0.  0.
         23    2    4    4    0    0 -0.26356575609E+03 -0.79270708524E+02 -0.85491221704E+02  0.30273686009E+03  0.92682816395E+02 0.  0.
          2    1    3    3  502    0 -0.18807143374E+02 -0.46708482758E+03 -0.10254947789E+04  0.11270144127E+04  0.00000000000E+00 0. -1.
         -1    1    3    3    0  502  0.60211640323E+01 -0.28314433235E+03 -0.48921698553E+03  0.56527889249E+03  0.00000000000E+00 0.  1.
         11    1    5    5    0    0  0.12995039926E+02  0.58336883042E+01  0.66739344106E+00  0.14260027907E+02  0.00000000000E+00 0.  1.
        -11    1    5    5    0    0  0.26335669551E+03  0.82366618015E+03 -0.29131761340E+03  0.91249585055E+03  0.00000000000E+00 0. -1.
          2    1    6    6  503    0 -0.17997887225E+03 -0.41098736271E+02 -0.99606069640E+02  0.20976860988E+03  0.00000000000E+00 0. -1.
         -2    1    6    6    0  503 -0.83586883839E+02 -0.38171972252E+02  0.14114847936E+02  0.92968250214E+02  0.00000000000E+00 0.  1.
<mgrwt>
<rscale>  0 0.22274442E+04</rscale>
<asrwt>0</asrwt>
<pdfrwt beam="1">  1        2 0.37020303E+00 0.22274442E+04</pdfrwt>
<pdfrwt beam="2">  1       -1 0.79302525E-01 0.22274442E+04</pdfrwt>
<totfact> 0.65021838E+00</totfact>
</mgrwt>
</event>
<event>
12    6  0.1556619E-007  0.1108670E+04  0.7818608E-02  0.9196783E-01
         -1   -1    0    0    0  501 -0.00000000000E+00  0.00000000000E+00  0.13375813455E+03  0.13375813455E+03  0.00000000000E+00 0.  1.
          2   -1    0    0  501    0  0.00000000000E+00 -0.00000000000E+00 -0.22973338981E+04  0.22973338981E+04  0.00000000000E+00 0. -1.
         24    2    1    2    0    0 -0.10405456596E+03  0.26062659432E+02 -0.70416373790E+02  0.15118361745E+03  0.79946266798E+02 0.  0.
        254    2    1    2    0    0  0.10405456596E+03 -0.26062659432E+02 -0.20931593898E+04  0.22799084152E+04  0.89730682370E+03 0.  0.
         23    2    4    4    0    0 -0.51372483858E+01 -0.44515500416E+03 -0.11848184414E+04  0.12694358200E+04  0.97381686300E+02 0.  0.
         23    2    4    4    0    0  0.10919181435E+03  0.41909234472E+03 -0.90834094835E+03  0.10104725953E+04  0.91707914477E+02 0.  0.
          4    1    3    3  502    0 -0.69778109357E+02 -0.18200146846E+02 -0.60921043321E+02  0.94401289239E+02  0.00000000000E+00 0. -1.
         -3    1    3    3    0  502 -0.34276456604E+02  0.44262806278E+02 -0.94953304693E+01  0.56782328216E+02  0.00000000000E+00 0.  1.
         11    1    5    5    0    0  0.34402385598E+02 -0.91677116408E+02 -0.30917792605E+03  0.32431344061E+03  0.00000000000E+00 0. -1.
        -11    1    5    5    0    0 -0.39539633984E+02 -0.35347788775E+03 -0.87564051537E+03  0.94512237935E+03  0.00000000000E+00 0.  1.
          3    1    6    6  503    0 -0.12680595743E+02  0.10096398909E+03 -0.19473646643E+03  0.21971985791E+03  0.00000000000E+00 0. -1.
         -3    1    6    6    0  503  0.12187241009E+03  0.31812835563E+03 -0.71360448192E+03  0.79075273734E+03  0.00000000000E+00 0.  1.
<mgrwt>
<rscale>  0 0.11086696E+04</rscale>
<asrwt>0</asrwt>
<pdfrwt beam="1">  1        2 0.35343593E+00 0.11086696E+04</pdfrwt>
<pdfrwt beam="2">  1       -1 0.20578178E-01 0.11086696E+04</pdfrwt>
<totfact> 0.10082945E+02</totfact>
</mgrwt>
</event>
<event>
12    6  0.1556619E-007  0.1695082E+04  0.7818608E-02  0.8764174E-01
         -1   -1    0    0    0  501 -0.00000000000E+00  0.00000000000E+00  0.73442164500E+03  0.73442164500E+03  0.00000000000E+00 0.  1.
          2   -1    0    0  501    0  0.00000000000E+00 -0.00000000000E+00 -0.97808371590E+03  0.97808371590E+03  0.00000000000E+00 0. -1.
         24    2    1    2    0    0 -0.21128418901E+02  0.59714479273E+03 -0.13142722347E+03  0.61685259873E+03  0.78776264980E+02 0.  0.
        254    2    1    2    0    0  0.21128418901E+02 -0.59714479273E+03 -0.11223484744E+03  0.10956527622E+04  0.91149876616E+03 0.  0.
         23    2    4    4    0    0  0.42244086160E+02 -0.28580379996E+03 -0.50336512012E+03  0.58709131156E+03  0.88495135824E+02 0.  0.
         23    2    4    4    0    0 -0.21115667259E+02 -0.31134099277E+03  0.39113027269E+03  0.50856145062E+03  0.90954789111E+02 0.  0.
          2    1    3    3  502    0  0.32915938686E+00  0.47548488888E+02 -0.33555988198E+02  0.58197693127E+02  0.00000000000E+00 0. -1.
         -1    1    3    3    0  502 -0.21457578288E+02  0.54959630384E+03 -0.97871235268E+02  0.55865490560E+03  0.00000000000E+00 0.  1.
         11    1    5    5    0    0  0.66199437059E+01 -0.10300909049E+03 -0.10446501772E+03  0.14685923977E+03  0.00000000000E+00 0. -1.
        -11    1    5    5    0    0  0.35624142454E+02 -0.18279470947E+03 -0.39890010240E+03  0.44023207178E+03  0.00000000000E+00 0.  1.
          2    1    6    6  503    0  0.58848860704E+01 -0.86253400050E+02  0.17573588397E+03  0.19585040674E+03  0.00000000000E+00 0. -1.
         -2    1    6    6    0  503 -0.27000553330E+02 -0.22508759272E+03  0.21539438872E+03  0.31271104388E+03  0.00000000000E+00 0.  1.
<mgrwt>
<rscale>  0 0.16950821E+04</rscale>
<asrwt>0</asrwt>
<pdfrwt beam="1">  1        2 0.15047442E+00 0.16950821E+04</pdfrwt>
<pdfrwt beam="2">  1       -1 0.11298795E+00 0.16950821E+04</pdfrwt>
<totfact> 0.20243371E+01</totfact>
</mgrwt>
</event>
<event>
12    6  0.1556619E-007  0.1511317E+04  0.7818608E-02  0.8876962E-01
          2   -1    0    0  501    0  0.00000000000E+00  0.00000000000E+00  0.19038484044E+04  0.19038484044E+04  0.00000000000E+00 0. -1.
         -1   -1    0    0    0  501 -0.00000000000E+00 -0.00000000000E+00 -0.29992938456E+03  0.29992938456E+03  0.00000000000E+00 0.  1.
         24    2    1    2    0    0  0.33253750403E+03  0.22638549413E+03  0.13859012101E+03  0.43300443393E+03  0.80337006544E+02 0.  0.
        254    2    1    2    0    0 -0.33253750403E+03 -0.22638549413E+03  0.14653288988E+04  0.17707733550E+04  0.90918529993E+03 0.  0.
         23    2    4    4    0    0 -0.40223439028E+03  0.19108598402E+03  0.11469348320E+04  0.12337548561E+04  0.91570618283E+02 0.  0.
         23    2    4    4    0    0  0.69696886253E+02 -0.41747147815E+03  0.31839406685E+03  0.53701849893E+03  0.88735536123E+02 0.  0.
          2    1    3    3  502    0  0.21050760873E+03  0.10637916995E+03  0.10685260429E+03  0.25893524321E+03  0.00000000000E+00 0. -1.
         -1    1    3    3    0  502  0.12202989530E+03  0.12000632418E+03  0.31737516726E+02  0.17406919072E+03  0.00000000000E+00 0.  1.
         11    1    5    5    0    0 -0.13723610932E+02 -0.42329736719E+01  0.13272752083E+02  0.19555600501E+02  0.00000000000E+00 0.  1.
        -11    1    5    5    0    0 -0.38851077935E+03  0.19531895769E+03  0.11336620799E+04  0.12141992556E+04  0.00000000000E+00 0. -1.
          1    1    6    6  503    0  0.41672765764E+02 -0.27215170893E+03  0.25753052093E+03  0.37699488231E+03  0.00000000000E+00 0. -1.
         -1    1    6    6    0  503  0.28024120489E+02 -0.14531976921E+03  0.60863545922E+02  0.16002361662E+03  0.00000000000E+00 0.  1.
<mgrwt>
<rscale>  0 0.15113174E+04</rscale>
<asrwt>0</asrwt>
<pdfrwt beam="1">  1        2 0.29289975E+00 0.15113174E+04</pdfrwt>
<pdfrwt beam="2">  1       -1 0.46142984E-01 0.15113174E+04</pdfrwt>
<totfact> 0.38831631E+01</totfact>
</mgrwt>
</event>
<event>
12    6  0.1556619E-007  0.1360635E+04  0.7818608E-02  0.8982816E-01
          2   -1    0    0  501    0  0.00000000000E+00  0.00000000000E+00  0.10674611145E+04  0.10674611145E+04  0.00000000000E+00 0. -1.
         -1   -1    0    0    0  501 -0.00000000000E+00 -0.00000000000E+00 -0.43358206273E+03  0.43358206273E+03  0.00000000000E+00 0.  1.
         24    2    1    2    0    0 -0.11068465679E+02 -0.13766797788E+03 -0.21111009353E+03  0.26557788753E+03  0.83000961986E+02 0.  0.
        254    2    1    2    0    0  0.11068465679E+02  0.13766797788E+03  0.84498914533E+03  0.12354652897E+04  0.89066988460E+03 0.  0.
         23    2    4    4    0    0 -0.37006280120E+03  0.94896665599E+02  0.12451901700E+03  0.41414523281E+03  0.10029673120E+03 0.  0.
         23    2    4    4    0    0  0.38113126688E+03  0.42771312278E+02  0.72047012833E+03  0.82132005692E+03  0.91646071084E+02 0.  0.
          4    1    3    3  502    0  0.25645293567E+02 -0.11358003368E+03 -0.14115150040E+03  0.18298046671E+03  0.00000000000E+00 0. -1.
         -3    1    3    3    0  502 -0.36713759247E+02 -0.24087944200E+02 -0.69958593125E+02  0.82597420818E+02  0.00000000000E+00 0.  1.
         11    1    5    5    0    0 -0.28879908104E+03  0.73063882347E+02  0.50644242933E+02  0.30217226784E+03  0.00000000000E+00 0.  1.
        -11    1    5    5    0    0 -0.81263720161E+02  0.21832783252E+02  0.73874774070E+02  0.11197296496E+03  0.00000000000E+00 0. -1.
          2    1    6    6  503    0  0.27068791529E+03  0.10628867946E+02  0.42215653379E+03  0.50159850413E+03  0.00000000000E+00 0. -1.
         -2    1    6    6    0  503  0.11044335158E+03  0.32142444332E+02  0.29831359454E+03  0.31972155280E+03  0.00000000000E+00 0.  1.
<mgrwt>
<rscale>  0 0.13606351E+04</rscale>
<asrwt>0</asrwt>
<pdfrwt beam="1">  1        2 0.16422479E+00 0.13606351E+04</pdfrwt>
<pdfrwt beam="2">  1       -1 0.66704933E-01 0.13606351E+04</pdfrwt>
<totfact> 0.57867318E+01</totfact>
</mgrwt>
</event>
