<LesHouchesEvents version="3.0">
  <!--
  <scalesfunctionalform>
    muR  H_T/2 := sum_i mT(i)/2, i=final state
    muF1 H_T/2 := sum_i mT(i)/2, i=final state
    muF2 H_T/2 := sum_i mT(i)/2, i=final state
    QES  H_T/2 := sum_i mT(i)/2, i=final state
  </scalesfunctionalform>
HERWIG6   
  -->
  <header>
      692
  </header>
  <init>
   2212   2212 0.65000000D+04 0.65000000D+04 -1 -1   244800   244800 -4   1
 0.17156554D-02 0.60141749D-05 0.26993063D-05     66
  </init>
  <event>
  8     66 0.26993063E-05 0.41479811E+03 0.75467711E-02 0.84432314E-01
        2 -1    0    0  501    0 0.00000000E+00 0.00000000E+00 0.89467611E+03 0.89467617E+03 0.32000000E+00 0.0000E+00 0.9000E+01
       -2 -1    0    0    0  501 0.00000000E+00 0.00000000E+00 -.32152308E+03 0.32152324E+03 0.32000000E+00 0.0000E+00 0.9000E+01
       25  2    1    2    0    0 0.98946617E+02 -.35240859E+03 0.67718488E+03 0.82625331E+03 0.30022145E+03 0.0000E+00 0.0000E+00
       23  2    1    2    0    0 -.98946617E+02 0.35240859E+03 -.10403185E+03 0.38994610E+03 0.85165044E+02 0.0000E+00 0.0000E+00
       24  1    3    3    0    0 0.98443345E+02 -.37307822E+02 0.10887005E+03 0.17147265E+03 0.80419002E+02 0.0000E+00 0.9000E+01
      -11  1    4    4    0    0 0.27828184E+00 0.10982552E+03 -.55615967E+01 0.10996660E+03 0.51099893E-03 0.0000E+00 0.9000E+01
       11  1    4    4    0    0 -.99224898E+02 0.24258307E+03 -.98470251E+02 0.27997950E+03 0.51099893E-03 0.0000E+00 0.9000E+01
      -24  1    3    3    0    0 0.50327119E+00 -.31510077E+03 0.56831483E+03 0.65478066E+03 0.80419002E+02 0.0000E+00 0.9000E+01
#aMCatNLO 1  0  0  2  1 0.12472019D+04 0.00000000D+00  -5  7  0 0.00000000D+00 0.00000000D+00 0.00000000D+00 0.00000000D+00 0.00000000D+00
  <mgrwgt>
 0.1248299348D-02    3    2    0
 0.536338652687109D+03 0.000000000000000D+00 0.000000000000000D+00 0.536338652687109D+03
 0.536338652687109D+03 0.000000000000000D+00 0.000000000000000D+00 -.536338652687109D+03
 0.136243896075606D+03 0.984433453115597D+02 -.373078219365263D+02 0.318153649941586D+02
 0.127651588758111D+03 0.278281845785148D+00 0.109825519562819D+03 -.650630918758181D+02
 0.370054833130821D+03 -.992248983473550D+02 0.242583073977107D+03 -.261244045465642D+03
 0.438726987409680D+03 0.503271190010182D+00 -.315100771603399D+03 0.294491772347302D+03
 0.000000000000000D+00 0.000000000000000D+00 -.000000000000000D+00 0.000000000000000D+00
 0.178187598846922D+04 0.000000000000000D+00 0.000000000000000D+00 0.178187598846922D+04
 0.122787173379839D+04 0.000000000000000D+00 0.000000000000000D+00 -.122787173379839D+04
 0.865615950003525D+02 0.357493449989633D+01 0.834366972276207D+00 0.318153649941586D+02
 0.243097957310180D+03 -.157583268490303D+03 0.173294328862355D+03 -.650630918758181D+02
 0.779764765264549D+03 -.588806898741976D+03 0.439421294261759D+03 -.261244045465642D+03
 0.535613431885525D+03 -.414361401676572D+03 -.148302924051384D+03 0.294491772347302D+03
 0.136470997280701D+04 0.115717663440896D+04 -.465247066045005D+03 0.554004254670828D+03
0.845158851542D-04 0.000000000000D+00 0.000000000000D+00 0.179729058823D-06 0.000000000000D+00  7 2 -2 24 -11 11 -24 21 0 0.13764250D+00 0.49465106D-01 0.17205747D+06 0.17205747D+06 0.17205747D+06 0.11028805D+01  1  2  2  2  7  2       -2 0.123005440149D-02 0.100000000000D+01
-.431834097231D-05 0.000000000000D+00 -.324563252536D-06 0.179729058823D-06 0.000000000000D+00  7 2 -2 24 -11 11 -24 21 2 0.13764250D+00 0.49465106D-01 0.17205747D+06 0.17205747D+06 0.17205747D+06 0.11028805D+01  1  2  3  2  7  2       -2 -.764468878739D-04 0.100000000000D+01
0.534896371378D-05 0.000000000000D+00 0.000000000000D+00 0.179729058823D-06 0.000000000000D+00  7 2 -2 24 -11 11 -24 21 2 0.13764250D+00 0.49465106D-01 0.17205747D+06 0.17205747D+06 0.17205747D+06 0.11028805D+01  1  2 15  2  7  2       -2 0.946918346401D-04 0.100000000000D+01
  </mgrwgt>
  </event>
  <event>
  8     66 0.26993063E-05 0.15287958E+03 0.75467711E-02 0.10472850E+00
        2 -1    0    0  501    0 0.00000000E+00 0.00000000E+00 0.18347599E+04 0.18347599E+04 0.32000000E+00 0.0000E+00 0.9000E+01
       -2 -1    0    0    0  501 0.00000000E+00 0.00000000E+00 -.74375416E+02 0.74376104E+02 0.32000000E+00 0.0000E+00 0.9000E+01
       25  2    1    2    0    0 -.20442891E+02 0.49972814E+02 0.17771094E+04 0.18029486E+04 0.29931689E+03 0.0000E+00 0.0000E+00
       23  2    1    2    0    0 0.20442891E+02 -.49972814E+02 -.16724986E+02 0.10618737E+03 0.89893488E+02 0.0000E+00 0.0000E+00
       24  1    3    3    0    0 0.73766293E+02 0.56803017E+02 0.36042378E+03 0.38084192E+03 0.80419002E+02 0.0000E+00 0.9000E+01
      -13  1    4    4    0    0 -.48140257E+01 -.41415174E+01 -.45857130E+02 0.46294865E+02 0.10565837E+00 0.0000E+00 0.9000E+01
       13  1    4    4    0    0 0.25256917E+02 -.45831297E+02 0.29132143E+02 0.59892509E+02 0.10565837E+00 0.0000E+00 0.9000E+01
      -24  1    3    3    0    0 -.94209184E+02 -.68302025E+01 0.14166857E+04 0.14221067E+04 0.80419002E+02 0.0000E+00 0.9000E+01
#aMCatNLO 1  0  0  1  2 0.93653505D+02 0.00000000D+00  -5  7  0 0.00000000D+00 0.00000000D+00 0.00000000D+00 0.00000000D+00 0.00000000D+00
  <mgrwgt>
 0.6610309257D-03    4    2    0
 0.369407242722828D+03 0.000000000000000D+00 0.000000000000000D+00 0.369407242722828D+03
 0.369407242722828D+03 0.000000000000000D+00 0.000000000000000D+00 -.369407242722828D+03
 0.125328614051417D+03 0.737662929086127D+02 0.568030169630949D+02 0.239164554248644D+02
 0.228893070995997D+03 -.481406706588907D+01 -.414146006016544D+01 -.228804962832613D+03
 0.853516361738269D+02 0.252569582315222D+02 -.458313544144830D+02 -.674275523133868D+02
 0.299241164224416D+03 -.942091840742458D+02 -.683020248844651D+01 0.272316059721136D+03
 0.000000000000000D+00 0.000000000000000D+00 0.000000000000000D+00 -.000000000000000D+00
 0.401464328318455D+03 0.000000000000000D+00 0.000000000000000D+00 0.401464328318455D+03
 0.447712827800717D+03 0.000000000000000D+00 0.000000000000000D+00 -.447712827800717D+03
 0.114568807355919D+03 0.610554075847152D+02 0.485699086797769D+02 0.239164554248644D+02
 0.231522320519059D+03 -.292090239127504D+02 -.199425876896841D+02 -.228804962832613D+03
 0.865058563079836D+02 0.161511459798775D+02 -.517293808984767D+02 -.674275523133868D+02
 0.312129692435923D+03 -.126602466185385D+03 -.278120139419463D+02 0.272316059721136D+03
 0.104450479500287D+03 0.786049365335423D+02 0.509140738503302D+02 -.462484994822619D+02
0.179167385426D-04 0.000000000000D+00 0.000000000000D+00 0.734197334072D-06 0.000000000000D+00  7 2 -2 24 -13 13 -24 21 0 0.28227080D+00 0.11442427D-01 0.23372166D+05 0.23372166D+05 0.23372166D+05 0.11775312D+01  1  2  2  1  7  1        2 0.994333269204D-03 0.100000000000D+01
-.533754206227D-07 0.000000000000D+00 -.688049935893D-07 0.734197334072D-06 0.000000000000D+00  7 2 -2 24 -13 13 -24 21 2 0.28227080D+00 0.11442427D-01 0.23372166D+05 0.23372166D+05 0.23372166D+05 0.11775312D+01  1  2  3  1  7  1        2 -.410732587226D-05 0.100000000000D+01
0.108958269898D-05 0.000000000000D+00 0.000000000000D+00 0.734197334072D-06 0.000000000000D+00  7 2 -2 24 -13 13 -24 21 2 0.28227080D+00 0.11442427D-01 0.23372166D+05 0.23372166D+05 0.23372166D+05 0.11775312D+01  1  2 15  1  7  1        2 0.838451698790D-04 0.100000000000D+01
-.536752973332D-05 0.000000000000D+00 0.000000000000D+00 0.734197334072D-06 0.000000000000D+00  7 2 -2 24 -13 13 -24 21 2 0.28227080D+00 0.11442427D-01 0.23372166D+05 0.23372166D+05 0.23372166D+05 0.11775312D+01  1  2  4  1  7  1        2 -.413040187535D-03 0.100000000000D+01
  </mgrwgt>
  </event>
  <event>
  7     66 0.26993063E-05 0.27880240E+03 0.75467711E-02 0.95291889E-01
        2 -1    0    0  501    0 0.00000000E+00 0.00000000E+00 0.63462978E+03 0.63462986E+03 0.32000000E+00 0.0000E+00 0.9000E+01
       -2 -1    0    0    0  501 0.00000000E+00 0.00000000E+00 -.23725418E+03 0.23725439E+03 0.32000000E+00 0.0000E+00 0.9000E+01
       25  2    1    2    0    0 -.32978846E+02 0.97354252E+02 0.13619897E+03 0.34539732E+03 0.30030600E+03 0.0000E+00 0.0000E+00
       24  1    3    3    0    0 0.60407869E+02 -.11608234E+02 0.14927905E+03 0.18037548E+03 0.80419002E+02 0.0000E+00 0.9000E+01
      -13  1    1    2    0    0 0.80510016E+02 -.17960664E+03 -.48377386E+02 0.20268396E+03 0.10565837E+00 0.0000E+00 0.9000E+01
       13  1    1    2    0    0 -.47531170E+02 0.82252384E+02 0.30955401E+03 0.32380297E+03 0.10565837E+00 0.0000E+00 0.9000E+01
      -24  1    3    3    0    0 -.93386715E+02 0.10896249E+03 -.13080080E+02 0.16502184E+03 0.80419002E+02 0.0000E+00 0.9000E+01
#aMCatNLO 1  0  0  2  1 0.31458117D+03 0.00000000D+00  -5  7  0 0.00000000D+00 0.00000000D+00 0.00000000D+00 0.00000000D+00 0.00000000D+00
  <mgrwgt>
 0.7777292220D-02    5    2    0
 0.388031822550926D+03 0.000000000000000D+00 0.000000000000000D+00 0.388031822550926D+03
 0.388031822550926D+03 0.000000000000000D+00 0.000000000000000D+00 -.388031822550926D+03
 0.126166283323538D+03 0.603711702480970D+02 -.114998986194729D+02 0.753245592613840D+02
 0.252497613757721D+03 0.805371257212367D+02 -.179708991328448D+03 -.158030043882854D+03
 0.205163490339552D+03 -.474656939640550D+02 0.820814242096604D+02 0.181938740966656D+03
 0.192236257681042D+03 -.934426020052787D+02 0.109127465738260D+03 -.992332563451858D+02
 0.000000000000000D+00 0.000000000000000D+00 0.000000000000000D+00 -.000000000000000D+00
 0.498783713026476D+03 0.000000000000000D+00 0.000000000000000D+00 0.498783713026476D+03
 0.727626961790846D+03 0.000000000000000D+00 0.000000000000000D+00 -.727626961790846D+03
 0.127903298704937D+03 0.355382195674449D+02 -.543625200601317D+02 0.753245592613840D+02
 0.319119097679491D+03 0.246668814754462D+02 -.276143167021080D+03 -.158030043882854D+03
 0.202234152337018D+03 -.872850437942417D+02 0.133517053883593D+02 0.181938740966656D+03
 0.188141858771856D+03 -.130621043164817D+03 0.449560561595877D+02 -.992332563451858D+02
 0.389012267324020D+03 0.157700985916168D+03 0.272197925533264D+03 -.228843248764370D+03
0.194160784955D-03 0.000000000000D+00 0.000000000000D+00 0.282192022817D-09 0.000000000000D+00  7 2 -2 24 -13 13 -24 21 0 0.97635373D-01 0.36500665D-01 0.77730781D+05 0.77730781D+05 0.77730781D+05 0.11308123D+01  1  2  2  2  7  2       -2 0.780485524778D-02 0.100000000000D+01
-.935341950081D-05 0.000000000000D+00 -.745628537936D-06 0.282192022817D-09 0.000000000000D+00  7 2 -2 24 -13 13 -24 21 2 0.97635373D-01 0.36500665D-01 0.77730781D+05 0.77730781D+05 0.77730781D+05 0.11308123D+01  1  2  3  2  7  2       -2 -.480789274310D-03 0.100000000000D+01
0.123617852862D-04 0.000000000000D+00 0.000000000000D+00 0.282192022817D-09 0.000000000000D+00  7 2 -2 24 -13 13 -24 21 2 0.97635373D-01 0.36500665D-01 0.77730781D+05 0.77730781D+05 0.77730781D+05 0.11308123D+01  1  2 15  2  7  2       -2 0.635426837896D-03 0.100000000000D+01
-.291446036292D-04 0.000000000000D+00 -.579327647885D-04 0.282192022817D-09 0.000000000000D+00  7 2 -2 24 -13 13 -24 21 2 0.97635373D-01 0.84069493D-01 0.77730781D+05 0.77730781D+05 0.77730781D+05 0.11308123D+01  1  2  5  2  7  2       -2 -.278788822905D-03 0.100000000000D+01
0.101783916323D-05 0.000000000000D+00 -.526103730145D-05 0.282192022817D-09 0.000000000000D+00  7 2 21 24 -13 13 -24 2 2 0.97635373D-01 0.84069493D-01 0.77730781D+05 0.77730781D+05 0.77730781D+05 0.11308123D+01  1  2  5  4  7  2       -2 0.965882312761D-04 0.100000000000D+01
  </mgrwgt>
  </event>
  <event>
  8     66 0.26993063E-05 0.29821236E+03 0.75467711E-02 0.93063638E-01
        2 -1    0    0  501    0 0.00000000E+00 0.00000000E+00 0.19076784E+03 0.19076810E+03 0.32000000E+00 0.0000E+00 0.9000E+01
       -2 -1    0    0    0  501 0.00000000E+00 0.00000000E+00 -.14216701E+04 0.14216701E+04 0.32000000E+00 0.0000E+00 0.9000E+01
       25  2    1    2    0    0 -.12862209E+02 -.43675801E+03 -.38700418E+03 0.65778185E+03 0.30328490E+03 0.0000E+00 0.0000E+00
       23  2    1    2    0    0 0.12862209E+02 0.43675801E+03 -.84389809E+03 0.95465639E+03 0.91004630E+02 0.0000E+00 0.0000E+00
       24  1    3    3    0    0 0.10010435E+03 -.33777785E+03 -.25550218E+03 0.44256450E+03 0.80419002E+02 0.0000E+00 0.9000E+01
      -11  1    4    4    0    0 -.17453331E+02 0.32377915E+03 -.67938165E+03 0.75279279E+03 0.51099893E-03 0.0000E+00 0.9000E+01
       11  1    4    4    0    0 0.30315540E+02 0.11297886E+03 -.16451644E+03 0.20186360E+03 0.51099893E-03 0.0000E+00 0.9000E+01
      -24  1    3    3    0    0 -.11296656E+03 -.98980160E+02 -.13150200E+03 0.21521735E+03 0.80419002E+02 0.0000E+00 0.9000E+01
#aMCatNLO 1  0  0  1  2 0.16407279D+03 0.00000000D+00  -5  7  0 0.00000000D+00 0.00000000D+00 0.00000000D+00 0.00000000D+00 0.00000000D+00
  <mgrwgt>
 0.5599663334D-03    9    2    0
 0.520777470521801D+03 0.000000000000000D+00 0.000000000000000D+00 0.520777470521801D+03
 0.520777470521801D+03 0.000000000000000D+00 0.000000000000000D+00 -.520777470521801D+03
 0.383186426247231D+03 0.100104351210717D+03 -.337777852967698D+03 0.127474947417005D+03
 0.362515173345945D+03 -.174533307228512D+02 0.323779152848278D+03 -.162110124093380D+03
 0.118082040768670D+03 0.303155397203024D+02 0.112978860597542D+03 -.161280334090027D+02
 0.177771300681756D+03 -.112966560208168D+03 -.989801604781216D+02 0.507632100853779D+02
 0.000000000000000D+00 0.000000000000000D+00 0.000000000000000D+00 0.000000000000000D+00
 0.758371015735274D+03 0.000000000000000D+00 0.000000000000000D+00 0.758371015735274D+03
 0.556311774534516D+03 0.000000000000000D+00 0.000000000000000D+00 -.556311774534516D+03
 0.381472348840286D+03 0.411277307832670D+02 -.348012333857588D+03 0.127474947417005D+03
 0.360973739677889D+03 -.732546010371709D+02 0.314095704890013D+03 -.162110124093380D+03
 0.111790009087280D+03 0.125859627208328D+02 0.109902166550446D+03 -.161280334090027D+02
 0.200162582368268D+03 -.142115853845402D+03 -.104038569836302D+03 0.507632100853779D+02
 0.260284110296066D+03 0.161656761378473D+03 0.280530322534311D+02 0.202059241200758D+03
0.238162311879D-03 0.000000000000D+00 0.000000000000D+00 0.159059235144D-06 0.000000000000D+00  7 2 -2 24 -11 11 -24 21 0 0.29348921D-01 0.21871850D+00 0.23666053D+06 0.23666053D+06 0.23666053D+06 0.10922552D+01  1  2  2  1  7  1        2 0.503373340644D-03 0.100000000000D+01
-.131565633787D-04 0.000000000000D+00 -.914605987191D-06 0.159059235144D-06 0.000000000000D+00  7 2 -2 24 -11 11 -24 21 2 0.29348921D-01 0.21871850D+00 0.23666053D+06 0.23666053D+06 0.23666053D+06 0.10922552D+01  1  2  3  1  7  1        2 -.331747651679D-04 0.100000000000D+01
0.152370823250D-04 0.000000000000D+00 0.000000000000D+00 0.159059235144D-06 0.000000000000D+00  7 2 -2 24 -11 11 -24 21 2 0.29348921D-01 0.21871850D+00 0.23666053D+06 0.23666053D+06 0.23666053D+06 0.10922552D+01  1  2 15  1  7  1        2 0.384208712736D-04 0.100000000000D+01
0.322386074889D-03 0.000000000000D+00 0.000000000000D+00 0.159059235144D-06 0.000000000000D+00  7 2 -2 24 -11 11 -24 21 2 0.43380705D-01 0.21871850D+00 0.33084353D+06 0.33084353D+06 0.33084353D+06 0.10814214D+01  1  2 12  1  7  1        2 0.505650600988D-03 0.100000000000D+01
-.352866161425D-03 0.000000000000D+00 0.000000000000D+00 0.159059235144D-06 0.000000000000D+00  7 2 -2 24 -11 11 -24 21 2 0.29348921D-01 0.21871850D+00 0.23666053D+06 0.23666053D+06 0.23666053D+06 0.10922552D+01  1  2  4  1  7  1        2 -.889765184419D-03 0.100000000000D+01
-.431076899306D-03 0.000000000000D+00 -.103418868913D-03 0.159059235144D-06 0.000000000000D+00  7 2 -2 24 -11 11 -24 21 2 0.45130455D-01 0.21871850D+00 0.23666053D+06 0.23666053D+06 0.23666053D+06 0.10922552D+01  1  2  5  1  7  1        2 -.669830949832D-03 0.100000000000D+01
0.442831995557D-03 0.000000000000D+00 0.945313145332D-04 0.159059235144D-06 0.000000000000D+00  7 2 -2 24 -11 11 -24 21 2 0.29348921D-01 0.21871850D+00 0.23666053D+06 0.23666053D+06 0.23666053D+06 0.10922552D+01  1  2  6  1  7  1        2 0.111661739001D-02 0.100000000000D+01
0.150850794452D-04 0.000000000000D+00 0.000000000000D+00 0.159059235144D-06 0.000000000000D+00  7 21 -2 24 -11 11 -24 -2 2 0.43380705D-01 0.21871850D+00 0.33084353D+06 0.33084353D+06 0.33084353D+06 0.10814214D+01  1  2 12  3  7  1        2 0.846235497628D-04 0.100000000000D+01
-.177706181103D-04 0.000000000000D+00 -.519613372782D-05 0.159059235144D-06 0.000000000000D+00  7 21 -2 24 -11 11 -24 -2 2 0.45130455D-01 0.21871850D+00 0.23666053D+06 0.23666053D+06 0.23666053D+06 0.10922552D+01  1  2  5  3  7  1        2 -.959485198261D-04 0.100000000000D+01
  </mgrwgt>
  </event>
  <event>
  7     66 0.26993063E-05 0.72799824E+02 0.75467711E-02 0.96460400E-01
        2 -1    0    0  501    0 0.00000000E+00 0.00000000E+00 0.22027691E+04 0.22027691E+04 0.32000000E+00 0.0000E+00 0.9000E+01
       -2 -1    0    0    0  501 0.00000000E+00 0.00000000E+00 -.57116385E+02 0.57117281E+02 0.32000000E+00 0.0000E+00 0.9000E+01
       25  2    1    2    0    0 0.21952552E+03 0.40198749E+02 0.97635069E+03 0.10457371E+04 0.30082885E+03 0.0000E+00 0.0000E+00
       24  1    3    3    0    0 0.12159360E+03 0.14099515E+03 0.42169119E+03 0.46792661E+03 0.80419002E+02 0.0000E+00 0.9000E+01
      -11  1    1    2    0    0 -.17689931E+03 -.53265526E+02 0.36955336E+03 0.41315889E+03 0.51099893E-03 0.0000E+00 0.9000E+01
       11  1    1    2    0    0 -.42626206E+02 0.13066777E+02 0.79974865E+03 0.80099041E+03 0.51099893E-03 0.0000E+00 0.9000E+01
      -24  1    3    3    0    0 0.97931912E+02 -.10079640E+03 0.55465949E+03 0.57781047E+03 0.80419002E+02 0.0000E+00 0.9000E+01
#aMCatNLO 1  0  0  1  2 0.22554820D+03 0.00000000D+00  -5  7  0 0.00000000D+00 0.00000000D+00 0.00000000D+00 0.00000000D+00 0.00000000D+00
  <mgrwgt>
 0.8091812219D-02    8    2    0
 0.354704448802659D+03 0.000000000000000D+00 0.000000000000000D+00 0.354704448802659D+03
 0.354704448802659D+03 0.000000000000000D+00 0.000000000000000D+00 -.354704448802659D+03
 0.215190652750566D+03 0.121593654346296D+03 0.140995158361804D+03 -.719385127597698D+02
 0.198417268747952D+03 -.176899331301121D+03 -.532655157372963D+02 -.723797206118745D+02
 0.132736489973320D+03 -.426262726912693D+02 0.130667507386967D+02 0.125024944199226D+03
 0.163064486133481D+03 0.979319496460944D+02 -.100796393363205D+03 0.192932891724181D+02
 0.000000000000000D+00 -.000000000000000D+00 0.000000000000000D+00 0.000000000000000D+00
 0.613834616027984D+03 0.000000000000000D+00 0.000000000000000D+00 0.613834616027984D+03
 0.424833838280454D+03 0.000000000000000D+00 0.000000000000000D+00 -.424833838280454D+03
 0.190231354486705D+03 0.134979137485783D+03 0.795376332372452D+02 -.719385127597698D+02
 0.212782413722499D+03 -.163323091436447D+03 -.115598872993476D+03 -.723797206118745D+02
 0.132340441179576D+03 -.338744468671287D+02 -.271160017154292D+02 0.125024944199226D+03
 0.209046875275672D+03 0.110217642739313D+03 -.157204390301449D+03 0.192932891724181D+02
 0.294267369643986D+03 -.479992419215205D+02 0.220381631773109D+03 0.189000777747530D+03
0.926389142476D-04 0.000000000000D+00 0.000000000000D+00 0.214124430906D-09 0.000000000000D+00  7 2 -2 24 -11 11 -24 21 0 0.33888762D+00 0.87872069D-02 0.88226155D+05 0.88226155D+05 0.88226155D+05 0.11262139D+01  1  2  2  1  7  1        2 0.476743010548D-02 0.100000000000D+01
-.494955402483D-05 0.000000000000D+00 -.355757823097D-06 0.214124430906D-09 0.000000000000D+00  7 2 -2 24 -11 11 -24 21 2 0.33888762D+00 0.87872069D-02 0.88226155D+05 0.88226155D+05 0.88226155D+05 0.11262139D+01  1  2  3  1  7  1        2 -.323071569716D-03 0.100000000000D+01
0.596604934670D-05 0.000000000000D+00 0.000000000000D+00 0.214124430906D-09 0.000000000000D+00  7 2 -2 24 -11 11 -24 21 2 0.33888762D+00 0.87872069D-02 0.88226155D+05 0.88226155D+05 0.88226155D+05 0.11262139D+01  1  2 15  1  7  1        2 0.389421131232D-03 0.100000000000D+01
0.589409066061D-05 0.000000000000D+00 0.000000000000D+00 0.214124430906D-09 0.000000000000D+00  7 2 -2 24 -11 11 -24 21 2 0.59946182D+00 0.87872069D-02 0.18202680D+06 0.18202680D+06 0.18202680D+06 0.11009801D+01  1  2 12  1  7  1        2 0.289944087815D-04 0.100000000000D+01
-.450390673363D-04 0.000000000000D+00 -.232611213072D-04 0.214124430906D-09 0.000000000000D+00  7 2 -2 24 -11 11 -24 21 2 0.60807530D+00 0.87872069D-02 0.88226155D+05 0.88226155D+05 0.88226155D+05 0.11262139D+01  1  2  5  1  7  1        2 -.219078691138D-03 0.100000000000D+01
0.528282077771D-04 0.000000000000D+00 0.197828998469D-04 0.214124430906D-09 0.000000000000D+00  7 2 -2 24 -11 11 -24 21 2 0.33888762D+00 0.87872069D-02 0.88226155D+05 0.88226155D+05 0.88226155D+05 0.11262139D+01  1  2  6  1  7  1        2 0.344824845355D-02 0.100000000000D+01
0.370253821533D-06 0.000000000000D+00 0.000000000000D+00 0.214124430906D-09 0.000000000000D+00  7 21 -2 24 -11 11 -24 -2 2 0.59946182D+00 0.87872069D-02 0.18202680D+06 0.18202680D+06 0.18202680D+06 0.11009801D+01  1  2 12  3  7  1        2 0.397666665212D-07 0.100000000000D+01
-.165927626607D-05 0.000000000000D+00 -.149255233639D-05 0.214124430906D-09 0.000000000000D+00  7 21 -2 24 -11 11 -24 -2 2 0.60807530D+00 0.87872069D-02 0.88226155D+05 0.88226155D+05 0.88226155D+05 0.11262139D+01  1  2  5  3  7  1        2 -.171385812628D-06 0.100000000000D+01
  </mgrwgt>
  </event>
  <event>
  8     66 0.26993063E-05 0.29663040E+03 0.75467711E-02 0.94888960E-01
        2 -1    0    0  501    0 0.00000000E+00 0.00000000E+00 0.17632725E+04 0.17632725E+04 0.32000000E+00 0.0000E+00 0.9000E+01
       -2 -1    0    0    0  501 0.00000000E+00 0.00000000E+00 -.73226052E+02 0.73226751E+02 0.32000000E+00 0.0000E+00 0.9000E+01
       25  2    1    2    0    0 -.90185337E+02 0.25198284E+03 0.70499966E+03 0.81167406E+03 0.30026907E+03 0.0000E+00 0.0000E+00
       23  2    1    2    0    0 0.90185337E+02 -.25198284E+03 0.98504675E+03 0.10248252E+04 0.91218472E+02 0.0000E+00 0.0000E+00
       24  1    3    3    0    0 -.43625880E+02 0.13687695E+03 0.61908296E+03 0.64060085E+03 0.80419002E+02 0.0000E+00 0.9000E+01
      -11  1    4    4    0    0 0.23297608E+02 -.37439297E+01 0.12362923E+03 0.12586097E+03 0.51099893E-03 0.0000E+00 0.9000E+01
       11  1    4    4    0    0 0.66887728E+02 -.24823891E+03 0.86141751E+03 0.89896421E+03 0.51099893E-03 0.0000E+00 0.9000E+01
      -24  1    3    3    0    0 -.46559457E+02 0.11510589E+03 0.85916692E+02 0.17107321E+03 0.80419002E+02 0.0000E+00 0.9000E+01
#aMCatNLO 1  0  0  1  1 0.32365979D+03 0.00000000D+00  -5  7  0 0.00000000D+00 0.00000000D+00 0.00000000D+00 0.00000000D+00 0.00000000D+00
  <mgrwgt>
 0.1765974966D-02    3    2    0
 0.359330139749007D+03 0.000000000000000D+00 0.000000000000000D+00 0.359330139749007D+03
 0.359330139749007D+03 0.000000000000000D+00 0.000000000000000D+00 -.359330139749007D+03
 0.181148226615317D+03 -.436258799767218D+02 0.136876950549672D+03 0.755575744448106D+02
 0.308969737867746D+02 0.232976081173958D+02 -.374392968052612D+01 0.199456119418825D+02
 0.271493394285744D+03 0.668877284554087D+02 -.248238906278607D+03 0.872475806682971D+02
 0.235121684810177D+03 -.465594565960827D+02 0.115105885409461D+03 -.182750767054990D+03
 0.000000000000000D+00 0.000000000000000D+00 0.000000000000000D+00 -.000000000000000D+00
 0.463256114496870D+03 0.000000000000000D+00 0.000000000000000D+00 0.463256114496870D+03
 0.772729072560492D+03 0.000000000000000D+00 0.000000000000000D+00 -.772729072560492D+03
 0.151742791134599D+03 -.747745914114379D+02 0.725153234166230D+02 0.755575744448106D+02
 0.308327403274159D+02 0.175215404274741D+02 -.156788412011246D+02 0.199456119418825D+02
 0.385266181958028D+03 0.543453977919113D+01 -.375217745323211D+03 0.872475806682971D+02
 0.220338633959117D+03 -.891770139432339D+02 0.270465337073040D+02 -.182750767054990D+03
 0.447804839678201D+03 0.140995525148007D+03 0.291334729400408D+03 -.309472958063622D+03
0.288071214155D-04 0.000000000000D+00 0.000000000000D+00 0.214568075368D-05 0.000000000000D+00  7 2 -2 24 -11 11 -24 21 0 0.27127274D+00 0.11265603D-01 0.87989591D+05 0.87989591D+05 0.87989591D+05 0.11263108D+01  1  2  2  1  7  1        2 0.174131278053D-02 0.100000000000D+01
-.152884709590D-05 0.000000000000D+00 -.110626931325D-06 0.214568075368D-05 0.000000000000D+00  7 2 -2 24 -11 11 -24 21 2 0.27127274D+00 0.11265603D-01 0.87989591D+05 0.87989591D+05 0.87989591D+05 0.11263108D+01  1  2  3  1  7  1        2 -.117235054746D-03 0.100000000000D+01
0.185046345071D-05 0.000000000000D+00 0.000000000000D+00 0.214568075368D-05 0.000000000000D+00  7 2 -2 24 -11 11 -24 21 2 0.27127274D+00 0.11265603D-01 0.87989591D+05 0.87989591D+05 0.87989591D+05 0.11263108D+01  1  2 15  1  7  1        2 0.141897240431D-03 0.100000000000D+01
  </mgrwgt>
  </event>
  <event>
  8     66 0.26993063E-05 0.15659024E+03 0.75467711E-02 0.10105349E+00
        2 -1    0    0  501    0 0.00000000E+00 0.00000000E+00 0.41580266E+02 0.41581497E+02 0.32000000E+00 0.0000E+00 0.9000E+01
       -2 -1    0    0    0  501 0.00000000E+00 0.00000000E+00 -.12064648E+04 0.12064649E+04 0.32000000E+00 0.0000E+00 0.9000E+01
       25  2    1    2    0    0 -.62646724E+02 -.33663620E+02 -.63667389E+03 0.70732455E+03 0.29982750E+03 0.0000E+00 0.0000E+00
       23  2    1    2    0    0 0.62646724E+02 0.33663620E+02 -.52821066E+03 0.54072180E+03 0.91190546E+02 0.0000E+00 0.0000E+00
       24  1    3    3    0    0 0.14143981E+01 -.72243322E+02 -.56712533E+03 0.57733825E+03 0.80419002E+02 0.0000E+00 0.9000E+01
      -13  1    4    4    0    0 0.18065627E+02 0.45644396E+02 -.11634620E+03 0.12627838E+03 0.10565837E+00 0.0000E+00 0.9000E+01
       13  1    4    4    0    0 0.44581097E+02 -.11980777E+02 -.41186446E+03 0.41444343E+03 0.10565837E+00 0.0000E+00 0.9000E+01
      -24  1    3    3    0    0 -.64061122E+02 0.38579702E+02 -.69548559E+02 0.12998630E+03 0.80419002E+02 0.0000E+00 0.9000E+01
#aMCatNLO 1  0  0  2  2 0.21401946D+03 0.00000000D+00  -5  7  0 0.00000000D+00 0.00000000D+00 0.00000000D+00 0.00000000D+00 0.00000000D+00
  <mgrwgt>
 0.1080890419D-02    5    2    0
 0.223977504869902D+03 0.000000000000000D+00 0.000000000000000D+00 0.223977504869902D+03
 0.223977504869902D+03 0.000000000000000D+00 0.000000000000000D+00 -.223977504869902D+03
 0.133739683010386D+03 0.141439437522101D+01 -.722433208604165D+02 -.787273074413077D+02
 0.492713558875406D+02 0.180655941426477D+02 0.456444738828475D+02 0.422880872443632D+01
 0.836469942558509D+02 0.445811357920896D+02 -.119808510754961D+02 -.697552950465583D+02
 0.181296976586027D+03 -.640611243099583D+02 0.385796980530652D+02 0.144253793763430D+03
 0.000000000000000D+00 -.000000000000000D+00 -.000000000000000D+00 -.000000000000000D+00
 0.293900059349913D+03 0.000000000000000D+00 0.000000000000000D+00 0.293900059349913D+03
 0.498950249369331D+03 0.000000000000000D+00 0.000000000000000D+00 -.498950249369331D+03
 0.132359055841183D+03 0.544232084364859D+02 -.434951624358328D+02 -.787273074413077D+02
 0.725896184775175D+02 0.423411910858004D+02 0.588098072171591D+02 0.422880872443632D+01
 0.108697977980237D+03 0.828976603757304D+02 0.879926895769069D+01 -.697552950465583D+02
 0.182808803228264D+03 0.847140877947372D+01 0.779161138759399D+02 0.144253793763430D+03
 0.296394853192042D+03 -.188133468677490D+03 -.102030027614957D+03 -.205050190019418D+03
0.439126858279D-04 0.000000000000D+00 0.000000000000D+00 0.479025497356D-06 0.000000000000D+00  7 2 -2 24 -13 13 -24 21 0 0.63970620D-02 0.18561007D+00 0.24520503D+05 0.24520503D+05 0.24520503D+05 0.11755511D+01  1  2  2  2  7  2       -2 0.105895486940D-02 0.100000000000D+01
-.205961922191D-05 0.000000000000D+00 -.168636276055D-06 0.479025497356D-06 0.000000000000D+00  7 2 -2 24 -13 13 -24 21 2 0.63970620D-02 0.18561007D+00 0.24520503D+05 0.24520503D+05 0.24520503D+05 0.11755511D+01  1  2  3  2  7  2       -2 -.686368634744D-04 0.100000000000D+01
0.281877947303D-05 0.000000000000D+00 0.000000000000D+00 0.479025497356D-06 0.000000000000D+00  7 2 -2 24 -13 13 -24 21 2 0.63970620D-02 0.18561007D+00 0.24520503D+05 0.24520503D+05 0.24520503D+05 0.11755511D+01  1  2 15  2  7  2       -2 0.939358983431D-04 0.100000000000D+01
-.648913403221D-05 0.000000000000D+00 -.110533964901D-04 0.479025497356D-06 0.000000000000D+00  7 2 -2 24 -13 13 -24 21 2 0.63970620D-02 0.45058653D+00 0.24520503D+05 0.24520503D+05 0.24520503D+05 0.11755511D+01  1  2  5  2  7  2       -2 -.367664024534D-05 0.100000000000D+01
0.613292529881D-07 0.000000000000D+00 -.107430121769D-05 0.479025497356D-06 0.000000000000D+00  7 2 21 24 -13 13 -24 2 2 0.63970620D-02 0.45058653D+00 0.24520503D+05 0.24520503D+05 0.24520503D+05 0.11755511D+01  1  2  5  4  7  2       -2 0.313154678742D-06 0.100000000000D+01
  </mgrwgt>
  </event>
  <event>
  9     66 0.26993063E-05 0.21012651E+03 0.75467711E-02 0.10317124E+00
        2 -1    0    0  501    0 0.00000000E+00 0.00000000E+00 0.29904087E+04 0.29904088E+04 0.32000000E+00 0.0000E+00 0.9000E+01
       21 -1    0    0  502  501 0.00000000E+00 0.00000000E+00 -.85466806E+02 0.85470096E+02 0.75000000E+00 0.0000E+00 0.9000E+01
       25  2    1    2    0    0 -.86131605E+02 0.31293354E+02 0.63779391E+03 0.71081965E+03 0.30014260E+03 0.0000E+00 0.0000E+00
       23  2    1    2    0    0 0.13884982E+03 0.26356239E+02 0.22797173E+04 0.22859341E+04 0.91707025E+02 0.0000E+00 0.0000E+00
       24  1    3    3    0    0 -.18680621E+02 0.11374223E+03 0.49836383E+03 0.51780303E+03 0.80419002E+02 0.0000E+00 0.9000E+01
      -13  1    4    4    0    0 0.44566563E+02 0.32169014E+02 0.38961357E+03 0.39347143E+03 0.10565837E+00 0.0000E+00 0.9000E+01
       13  1    4    4    0    0 0.94283256E+02 -.58127750E+01 0.18901037E+04 0.18924627E+04 0.10565837E+00 0.0000E+00 0.9000E+01
      -24  1    3    3    0    0 -.67450984E+02 -.82448873E+02 0.13943008E+03 0.19301662E+03 0.80419002E+02 0.0000E+00 0.9000E+01
        2  1    1    2  502    0 -.52718213E+02 -.57649594E+02 -.12569244E+02 0.79125052E+02 0.32000000E+00 0.0000E+00 0.9000E+01
#aMCatNLO 2  0  0  2  1 0.78119688D+02 0.00000000D+00  -5  7  0 0.00000000D+00 0.00000000D+00 0.00000000D+00 0.00000000D+00 0.00000000D+00
  <mgrwgt>
 0.2694121981D-03    2    2    0
 0.340058517199484D+03 0.000000000000000D+00 0.000000000000000D+00 0.340058517199484D+03
 0.340058517199484D+03 0.000000000000000D+00 0.000000000000000D+00 -.340058517199484D+03
 0.135526356199719D+03 -.294315519932775D+02 0.101985630129768D+03 -.251573501129148D+02
 0.562122620712595D+02 0.400005303578985D+02 0.271759874511945D+02 0.286573146736975D+02
 0.223801146599068D+03 0.767874794061175D+02 -.249452682160756D+02 0.208730375889904D+03
 0.264577269528922D+03 -.873564577707385D+02 -.104216349364887D+03 -.212230340450687D+03
 0.000000000000000D+00 -.000000000000000D+00 -.000000000000000D+00 -.000000000000000D+00
 0.346146340305693D+03 0.000000000000000D+00 0.000000000000000D+00 0.346146340305693D+03
 0.738374628371351D+03 0.000000000000000D+00 0.000000000000000D+00 -.738374628371351D+03
 0.142780839213859D+03 -.186806214393921D+02 0.113742227031906D+03 -.251573501129148D+02
 0.619859902014798D+02 0.445664963936902D+02 0.321690642720895D+02 0.286573146736975D+02
 0.229110243268256D+03 0.942833220568668D+02 -.581282489155268D+01 0.208730375889904D+03
 0.250711757273417D+03 -.674509841300061D+02 -.824488727202120D+02 -.212230340450687D+03
 0.399932138720032D+03 -.527182128811588D+02 -.576495936922310D+02 -.392228288065658D+03
-.103155351798D-04 0.000000000000D+00 0.000000000000D+00 0.296109837534D-05 0.000000000000D+00  7 2 21 24 -13 13 -24 2 2 0.45197173D+00 0.13137152D-01 0.62891738D+05 0.62891738D+05 0.62891738D+05 0.11386343D+01  1  2 13  4  7  2       -2 -.198442330721D-02 0.100000000000D+01
0.126394738431D-04 0.000000000000D+00 0.000000000000D+00 0.296109837534D-05 0.375823248184D-09  7 2 21 24 -13 13 -24 2 2 0.46006305D+00 0.13148991D-01 0.62891738D+05 0.62891738D+05 0.62891738D+05 0.11386343D+01  1  2  1  4  7  2       -2 0.225383550534D-02 0.100000000000D+01
  </mgrwgt>
  </event>
  <event>
  8     66 0.26993063E-05 0.33979958E+03 0.75467711E-02 0.94687916E-01
        2 -1    0    0  501    0 0.00000000E+00 0.00000000E+00 0.12317818E+04 0.12317818E+04 0.32000000E+00 0.0000E+00 0.9000E+01
       -2 -1    0    0    0  501 0.00000000E+00 0.00000000E+00 -.12995534E+03 0.12995574E+03 0.32000000E+00 0.0000E+00 0.9000E+01
       25  2    1    2    0    0 0.27647111E+03 0.15144274E+03 0.41583225E+03 0.60145655E+03 0.29910256E+03 0.0000E+00 0.0000E+00
       23  2    1    2    0    0 -.27647111E+03 -.15144274E+03 0.68599420E+03 0.76028102E+03 0.89822114E+02 0.0000E+00 0.0000E+00
       24  1    3    3    0    0 0.20436111E+03 0.88163139E+02 0.91360823E+02 0.25367345E+03 0.80419002E+02 0.0000E+00 0.9000E+01
      -11  1    4    4    0    0 -.16657594E+03 -.11321990E+03 0.51934409E+03 0.55703193E+03 0.51099893E-03 0.0000E+00 0.9000E+01
       11  1    4    4    0    0 -.10989517E+03 -.38222838E+02 0.16665011E+03 0.20324909E+03 0.51099893E-03 0.0000E+00 0.9000E+01
      -24  1    3    3    0    0 0.72109995E+02 0.63279598E+02 0.32447143E+03 0.34778310E+03 0.80419002E+02 0.0000E+00 0.9000E+01
#aMCatNLO 1  0  0  1  1 0.28537514D+03 0.00000000D+00  -5  7  0 0.00000000D+00 0.00000000D+00 0.00000000D+00 0.00000000D+00 0.00000000D+00
  <mgrwgt>
 0.1043570537D-02    6    2    0
 0.400096137730629D+03 0.000000000000000D+00 0.000000000000000D+00 0.400096137730629D+03
 0.400096137730629D+03 0.000000000000000D+00 0.000000000000000D+00 -.400096137730629D+03
 0.305892601110076D+03 0.204361113394032D+03 0.881631386401428D+02 -.193821731952297D+03
 0.232824358361225D+03 -.166575941897423D+03 -.113219899097894D+03 0.116794228776790D+03
 0.116412547067488D+03 -.109895166687370D+03 -.382228376522153D+02 0.373472024490530D+01
 0.145062768922468D+03 0.721099951907605D+02 0.632795981099669D+02 0.732927829306014D+02
 0.000000000000000D+00 0.000000000000000D+00 0.000000000000000D+00 0.000000000000000D+00
 0.606249700442459D+03 0.000000000000000D+00 0.000000000000000D+00 0.606249700442459D+03
 0.536970978653494D+03 0.000000000000000D+00 0.000000000000000D+00 -.536970978653494D+03
 0.247022312694690D+03 0.110701353714670D+03 0.687833811571826D+02 -.193821731952297D+03
 0.313543246510657D+03 -.259126635125709D+03 -.132370172339939D+03 0.116794228776790D+03
 0.164735488006845D+03 -.157519596309257D+03 -.480771219200389D+02 0.373472024490530D+01
 0.124255688878271D+03 0.264894098076352D+02 0.538399424458657D+02 0.732927829306014D+02
 0.293663943005488D+03 0.279455467912661D+03 0.578239706569298D+02 0.692787217889647D+02
0.149634993895D-04 0.000000000000D+00 0.000000000000D+00 0.350757604311D-06 0.000000000000D+00  7 2 -2 24 -11 11 -24 21 0 0.18950492D+00 0.19993163D-01 0.11546375D+06 0.11546375D+06 0.11546375D+06 0.11166334D+01  1  2  2  1  7  1        2 0.697583633024D-03 0.100000000000D+01
-.804335915493D-06 0.000000000000D+00 -.574637776355D-07 0.350757604311D-06 0.000000000000D+00  7 2 -2 24 -11 11 -24 21 2 0.18950492D+00 0.19993163D-01 0.11546375D+06 0.11546375D+06 0.11546375D+06 0.11166334D+01  1  2  3  1  7  1        2 -.467543256201D-04 0.100000000000D+01
0.953021913828D-06 0.000000000000D+00 0.000000000000D+00 0.350757604311D-06 0.000000000000D+00  7 2 -2 24 -11 11 -24 21 2 0.18950492D+00 0.19993163D-01 0.11546375D+06 0.11546375D+06 0.11546375D+06 0.11166334D+01  1  2 15  1  7  1        2 0.553971245395D-04 0.100000000000D+01
-.539964984570D-05 0.000000000000D+00 -.466406574871D-05 0.350757604311D-06 0.000000000000D+00  7 2 -2 24 -11 11 -24 21 2 0.33451510D+00 0.19993163D-01 0.11546375D+06 0.11546375D+06 0.11546375D+06 0.11166334D+01  1  2  5  1  7  1        2 -.967986207755D-04 0.100000000000D+01
0.747399381990D-05 0.000000000000D+00 0.400055104464D-05 0.350757604311D-06 0.000000000000D+00  7 2 -2 24 -11 11 -24 21 2 0.18950492D+00 0.19993163D-01 0.11546375D+06 0.11546375D+06 0.11546375D+06 0.11166334D+01  1  2  6  1  7  1        2 0.434447267624D-03 0.100000000000D+01
-.977682749166D-07 0.000000000000D+00 -.292069085541D-06 0.350757604311D-06 0.000000000000D+00  7 21 -2 24 -11 11 -24 -2 2 0.33451510D+00 0.19993163D-01 0.11546375D+06 0.11546375D+06 0.11546375D+06 0.11166334D+01  1  2  5  3  7  1        2 -.304541966709D-06 0.100000000000D+01
  </mgrwgt>
  </event>
  <event>
  9     66 0.26993063E-05 0.19479900E+03 0.75467711E-02 0.10346772E+00
        2 -1    0    0  501    0 0.00000000E+00 0.00000000E+00 0.90532467E+03 0.90532473E+03 0.32000000E+00 0.0000E+00 0.9000E+01
       -2 -1    0    0    0  502 0.00000000E+00 0.00000000E+00 -.10833852E+03 0.10833899E+03 0.32000000E+00 0.0000E+00 0.9000E+01
       25  2    1    2    0    0 -.93283559E+02 0.71078046E+02 0.57414240E+03 0.65765477E+03 0.29852368E+03 0.0000E+00 0.0000E+00
       23  2    1    2    0    0 0.19712812E+02 -.16386081E+02 0.24404370E+03 0.26191396E+03 0.91566895E+02 0.0000E+00 0.0000E+00
       24  1    3    3    0    0 0.76835643E+02 -.16739427E+02 0.22130697E+03 0.24824970E+03 0.80419002E+02 0.0000E+00 0.9000E+01
      -13  1    4    4    0    0 -.20744378E+02 -.29788075E+02 0.18817951E+03 0.19164863E+03 0.10565837E+00 0.0000E+00 0.9000E+01
       13  1    4    4    0    0 0.40457190E+02 0.13401994E+02 0.55864196E+02 0.70265335E+02 0.10565837E+00 0.0000E+00 0.9000E+01
      -24  1    3    3    0    0 -.17011920E+03 0.87817474E+02 0.35283543E+03 0.40940507E+03 0.80419002E+02 0.0000E+00 0.9000E+01
       21  1    1    2  501  502 0.73570747E+02 -.54691965E+02 -.21199950E+02 0.94094985E+02 0.75000000E+00 0.0000E+00 0.9000E+01
#aMCatNLO 2  0  0  2  1 0.91672601D+02 0.00000000D+00  -5  7  0 0.00000000D+00 0.00000000D+00 0.00000000D+00 0.00000000D+00 0.00000000D+00
  <mgrwgt>
 0.3793199775D-03    2    2    0
 0.204801298753413D+03 0.000000000000000D+00 0.000000000000000D+00 0.204801298753413D+03
 0.204801298753413D+03 0.000000000000000D+00 0.000000000000000D+00 -.204801298753413D+03
 0.131299663758660D+03 0.984613249068886D+02 -.328158325960181D+02 0.935081481386669D+00
 0.546169558152392D+02 -.111929550653498D+02 -.368886537858251D+02 0.386905265058306D+02
 0.516354162091665D+02 0.490337788501278D+02 0.702633060610956D+01 -.145785944790388D+02
 0.172050561723761D+03 -.136302148691667D+03 0.626781557757337D+02 -.250470135081784D+02
 0.000000000000000D+00 0.000000000000000D+00 -.000000000000000D+00 -.000000000000000D+00
 0.218670861514357D+03 0.000000000000000D+00 0.000000000000000D+00 0.218670861514357D+03
 0.448533969506880D+03 0.000000000000000D+00 0.000000000000000D+00 -.448533969506880D+03
 0.112481063280677D+03 0.768354965395563D+02 -.167393469563215D+02 0.935081481386669D+00
 0.530530168558509D+02 -.207443760393492D+02 -.297881959666392D+02 0.386905265058306D+02
 0.450438197356390D+02 0.404573479377291D+02 0.134019878092022D+02 -.145785944790388D+02
 0.209157914352331D+03 -.170119215265857D+03 0.878175204244370D+02 -.250470135081784D+02
 0.247469016796739D+03 0.735707468279210D+02 -.546919653106784D+02 -.229863107992523D+03
-.628268423540D-05 0.000000000000D+00 0.000000000000D+00 0.336845359518D-07 0.000000000000D+00  7 2 -2 24 -13 13 -24 21 2 0.13044632D+00 0.16615728D-01 0.60201921D+05 0.60201921D+05 0.60201921D+05 0.11402691D+01  1  2 13  2  7  2       -2 -.881517130602D-03 0.100000000000D+01
0.983253152149D-05 0.000000000000D+00 0.000000000000D+00 0.336845359518D-07 0.370424179467D-10  7 2 -2 24 -13 13 -24 21 2 0.13928041D+00 0.16667463D-01 0.60201921D+05 0.60201921D+05 0.60201921D+05 0.11402691D+01  1  2  1  2  7  2       -2 0.126083710810D-02 0.100000000000D+01
  </mgrwgt>
  </event>
  <event>
  8     66 0.26993063E-05 0.19694550E+03 0.75467711E-02 0.93432129E-01
        2 -1    0    0  501    0 0.00000000E+00 0.00000000E+00 0.11565387E+03 0.11565432E+03 0.32000000E+00 0.0000E+00 0.9000E+01
       -2 -1    0    0    0  501 0.00000000E+00 0.00000000E+00 -.51520461E+03 0.51520471E+03 0.32000000E+00 0.0000E+00 0.9000E+01
       25  2    1    2    0    0 -.41031338E+02 -.71577729E+02 -.39978854E+03 0.50763433E+03 0.30175286E+03 0.0000E+00 0.0000E+00
       23  2    1    2    0    0 0.41031338E+02 0.71577729E+02 0.23780335E+00 0.12322470E+03 0.91527747E+02 0.0000E+00 0.0000E+00
       24  1    3    3    0    0 -.12274785E+03 0.10131624E+02 -.30290512E+03 0.33673196E+03 0.80419002E+02 0.0000E+00 0.9000E+01
      -11  1    4    4    0    0 0.14571386E+02 -.11662440E+02 -.26017469E+02 0.32019471E+02 0.51099893E-03 0.0000E+00 0.9000E+01
       11  1    4    4    0    0 0.26459953E+02 0.83240169E+02 0.26255273E+02 0.91205231E+02 0.51099893E-03 0.0000E+00 0.9000E+01
      -24  1    3    3    0    0 0.81716510E+02 -.81709353E+02 -.96883422E+02 0.17090237E+03 0.80419002E+02 0.0000E+00 0.9000E+01
#aMCatNLO 1  0  0  1  1 0.48542885D+03 0.00000000D+00  -5  7  0 0.00000000D+00 0.00000000D+00 0.00000000D+00 0.00000000D+00 0.00000000D+00
  <mgrwgt>
 0.1055599163D-02    3    2    0
 0.244101578131727D+03 0.000000000000000D+00 0.000000000000000D+00 0.244101578131727D+03
 0.244101578131727D+03 0.000000000000000D+00 0.000000000000000D+00 -.244101578131727D+03
 0.187226220491801D+03 -.122747848043529D+03 0.101316242214321D+02 -.115830728550729D+03
 0.200827727969872D+02 0.145713858072035D+02 -.116624399683442D+02 -.741484813450748D+01
 0.139343542375734D+03 0.264599527482918D+02 0.832401689430229D+02 0.108570566806631D+03
 0.141550620598930D+03 0.817165094880333D+02 -.817093531961109D+02 0.146750098786049D+02
 0.000000000000000D+00 0.000000000000000D+00 0.000000000000000D+00 -.000000000000000D+00
 0.451640741698593D+03 0.000000000000000D+00 0.000000000000000D+00 0.451640741698593D+03
 0.892702105721525D+03 0.000000000000000D+00 0.000000000000000D+00 -.892702105721525D+03
 0.385256412611247D+03 -.358500536105708D+03 -.398690845701632D+01 -.115830728550729D+03
 0.145512953520311D+02 0.308813997116710D+00 -.125165832989446D+02 -.741484813450748D+01
 0.165292053546808D+03 -.989912949670875D+02 0.757272639790101D+02 0.108570566806631D+03
 0.123364825449175D+03 -.273776794072830D+02 -.882426821842457D+02 0.146750098786049D+02
 0.655878260460856D+03 0.484560696482961D+03 0.290189099611964D+02 -.441061364022932D+03
0.180324003652D-04 0.000000000000D+00 0.000000000000D+00 0.106467863194D-06 0.000000000000D+00  7 2 -2 24 -11 11 -24 21 0 0.17792945D-01 0.79262290D-01 0.38787530D+05 0.38787530D+05 0.38787530D+05 0.11571236D+01  1  2  2  1  7  1        2 0.104175115583D-02 0.100000000000D+01
-.945675289563D-06 0.000000000000D+00 -.692491654424D-07 0.106467863194D-06 0.000000000000D+00  7 2 -2 24 -11 11 -24 21 2 0.17792945D-01 0.79262290D-01 0.38787530D+05 0.38787530D+05 0.38787530D+05 0.11571236D+01  1  2  3  1  7  1        2 -.731496038827D-04 0.100000000000D+01
0.112470180033D-05 0.000000000000D+00 0.000000000000D+00 0.106467863194D-06 0.000000000000D+00  7 2 -2 24 -11 11 -24 21 2 0.17792945D-01 0.79262290D-01 0.38787530D+05 0.38787530D+05 0.38787530D+05 0.11571236D+01  1  2 15  1  7  1        2 0.869976112181D-04 0.100000000000D+01
  </mgrwgt>
  </event>
  <event>
  8     66 0.26993063E-05 0.19185303E+03 0.75467711E-02 0.94998407E-01
        2 -1    0    0  501    0 0.00000000E+00 0.00000000E+00 0.10489273E+04 0.10489273E+04 0.32000000E+00 0.0000E+00 0.9000E+01
       -2 -1    0    0    0  501 0.00000000E+00 0.00000000E+00 -.20813802E+03 0.20813826E+03 0.32000000E+00 0.0000E+00 0.9000E+01
       25  2    1    2    0    0 0.10599147E+03 -.79756859E+02 0.98605291E+03 0.10391325E+04 0.29983446E+03 0.0000E+00 0.0000E+00
       23  2    1    2    0    0 -.10599147E+03 0.79756859E+02 -.14526365E+03 0.21793307E+03 0.93797363E+02 0.0000E+00 0.0000E+00
       24  1    3    3    0    0 0.76718330E+02 -.81867340E+02 0.17177763E+03 0.22036954E+03 0.80419002E+02 0.0000E+00 0.9000E+01
      -11  1    4    4    0    0 -.12141772E+03 0.78493715E+02 -.14082897E+03 0.20183242E+03 0.51099893E-03 0.0000E+00 0.9000E+01
       11  1    4    4    0    0 0.15426246E+02 0.12631436E+01 -.44346827E+01 0.16100653E+02 0.51099893E-03 0.0000E+00 0.9000E+01
      -24  1    3    3    0    0 0.29273144E+02 0.21104815E+01 0.81427528E+03 0.81876298E+03 0.80419002E+02 0.0000E+00 0.9000E+01
#aMCatNLO 1  0  0  1  1 0.39150572D+03 0.00000000D+00  -5  7  0 0.00000000D+00 0.00000000D+00 0.00000000D+00 0.00000000D+00 0.00000000D+00
  <mgrwgt>
 0.1716640341D-02    3    2    0
 0.467249216717687D+03 0.000000000000000D+00 0.000000000000000D+00 0.467249216717687D+03
 0.467249216717687D+03 0.000000000000000D+00 0.000000000000000D+00 -.467249216717687D+03
 0.141883788848331D+03 0.767183298582289D+02 -.818673403878131D+02 0.327998479444199D+02
 0.398207272177983D+03 -.121417720401582D+03 0.784937152232087D+02 -.371033024754363D+03
 0.256482078862144D+02 0.154262463070424D+02 0.126314361986720D+01 -.204515515510320D+02
 0.368759164522846D+03 0.292731442363107D+02 0.211048154473720D+01 0.358684728360975D+03
 0.000000000000000D+00 -.000000000000000D+00 -.000000000000000D+00 -.000000000000000D+00
 0.527979123969460D+03 0.000000000000000D+00 0.000000000000000D+00 0.527979123969460D+03
 0.229875125600710D+04 0.000000000000000D+00 0.000000000000000D+00 -.229875125600710D+04
 0.142701983972790D+03 0.108010027973854D+03 -.339800545513129D+02 0.327998479444199D+02
 0.431444616872436D+03 -.301931444297476D+02 0.218099348919881D+03 -.371033024754363D+03
 0.317863425614567D+02 0.217414763208239D+02 0.109276630612776D+02 -.204515515510320D+02
 0.407262029157691D+03 0.114600744007932D+03 0.132691670999771D+03 0.358684728360975D+03
 0.181353540741218D+04 -.214159103872862D+03 -.327738628429617D+03 -.177077213203764D+04
0.583550672242D-04 0.000000000000D+00 0.000000000000D+00 0.178990783749D-05 0.000000000000D+00  7 2 -2 24 -11 11 -24 21 0 0.16137345D+00 0.32021256D-01 0.36807585D+05 0.36807585D+05 0.36807585D+05 0.11591840D+01  1  2  2  1  7  1        2 0.158841791957D-02 0.100000000000D+01
-.118764468072D-06 0.000000000000D+00 -.224098823383D-06 0.178990783749D-05 0.000000000000D+00  7 2 -2 24 -11 11 -24 21 2 0.16137345D+00 0.32021256D-01 0.36807585D+05 0.36807585D+05 0.36807585D+05 0.11591840D+01  1  2  3  1  7  1        2 -.434387687732D-05 0.100000000000D+01
0.362445031938D-05 0.000000000000D+00 0.000000000000D+00 0.178990783749D-05 0.000000000000D+00  7 2 -2 24 -11 11 -24 21 2 0.16137345D+00 0.32021256D-01 0.36807585D+05 0.36807585D+05 0.36807585D+05 0.11591840D+01  1  2 15  1  7  1        2 0.132566298582D-03 0.100000000000D+01
  </mgrwgt>
  </event>
  <event>
  8     66 0.26993063E-05 0.20393866E+03 0.75467711E-02 0.97428400E-01
        2 -1    0    0  501    0 0.00000000E+00 0.00000000E+00 0.10681934E+04 0.10681935E+04 0.32000000E+00 0.0000E+00 0.9000E+01
       -2 -1    0    0    0  501 0.00000000E+00 0.00000000E+00 -.12323981E+03 0.12324023E+03 0.32000000E+00 0.0000E+00 0.9000E+01
       25  2    1    2    0    0 -.23816492E+03 0.13455382E+03 0.72430163E+03 0.82818582E+03 0.29402662E+03 0.0000E+00 0.0000E+00
       23  2    1    2    0    0 0.23816492E+03 -.13455382E+03 0.22065197E+03 0.36324787E+03 0.91839315E+02 0.0000E+00 0.0000E+00
       24  1    3    3    0    0 -.24957815E+03 0.13294952E+03 0.41626460E+03 0.50961580E+03 0.80419002E+02 0.0000E+00 0.9000E+01
      -13  1    4    4    0    0 0.99087591E+02 -.75633813E+01 0.63217447E+02 0.11777951E+03 0.10565837E+00 0.0000E+00 0.9000E+01
       13  1    4    4    0    0 0.13907733E+03 -.12699044E+03 0.15743452E+03 0.24546836E+03 0.10565837E+00 0.0000E+00 0.9000E+01
      -24  1    3    3    0    0 0.11413227E+02 0.16042993E+01 0.30803703E+03 0.31857003E+03 0.80419002E+02 0.0000E+00 0.9000E+01
#aMCatNLO 1  0  0  2  1 0.11766761D+03 0.00000000D+00  -5  7  0 0.00000000D+00 0.00000000D+00 0.00000000D+00 0.00000000D+00 0.00000000D+00
  <mgrwgt>
 0.9454201515D-03    9    2    0
 0.362828105238648D+03 0.000000000000000D+00 0.000000000000000D+00 0.362828105238648D+03
 0.362828105238648D+03 0.000000000000000D+00 0.000000000000000D+00 -.362828105238648D+03
 0.294661156808799D+03 -.249578151032193D+03 0.132949517374988D+03 0.198281046658286D+02
 0.111056494604251D+03 0.990875383913629D+02 -.756322359542413D+01 -.495782450089728D+02
 0.198015307685622D+03 0.139077386305572D+03 -.126990593500246D+03 -.611631576907020D+02
 0.121923251378624D+03 0.114132263352582D+02 0.160429972068221D+01 0.909132980338462D+02
 0.000000000000000D+00 0.000000000000000D+00 -.000000000000000D+00 -.000000000000000D+00
 0.383706084155007D+03 0.000000000000000D+00 0.000000000000000D+00 0.383706084155007D+03
 0.582044116454164D+03 0.000000000000000D+00 0.000000000000000D+00 -.582044116454164D+03
 0.341771592714773D+03 -.300255137952669D+03 0.140692231593670D+03 0.198281046658286D+02
 0.964387715773795D+02 0.825653922601044D+02 -.503887746619639D+01 -.495782450089728D+02
 0.175198461532634D+03 0.109359636369897D+03 -.122450149031138D+03 -.611631576907020D+02
 0.121725585656039D+03 -.798770634276297D+01 0.456848300051138D+01 0.909132980338462D+02
 0.230615789128347D+03 0.116317815665430D+03 -.177716880968469D+02 -.198338032299157D+03
0.139076564723D-04 0.000000000000D+00 0.000000000000D+00 0.532329582839D-08 0.000000000000D+00  7 2 -2 24 -13 13 -24 21 0 0.16433748D+00 0.18960007D-01 0.10987310D+06 0.10987310D+06 0.10987310D+06 0.11183818D+01  1  2  2  2  7  2       -2 0.880482480689D-03 0.100000000000D+01
-.764972388350D-06 0.000000000000D+00 -.534090628236D-07 0.532329582839D-08 0.000000000000D+00  7 2 -2 24 -13 13 -24 21 2 0.16433748D+00 0.18960007D-01 0.10987310D+06 0.10987310D+06 0.10987310D+06 0.11183818D+01  1  2  3  2  7  2       -2 -.605749000244D-04 0.100000000000D+01
0.882131915745D-06 0.000000000000D+00 0.000000000000D+00 0.532329582839D-08 0.000000000000D+00  7 2 -2 24 -13 13 -24 21 2 0.16433748D+00 0.18960007D-01 0.10987310D+06 0.10987310D+06 0.10987310D+06 0.11183818D+01  1  2 15  2  7  2       -2 0.698522631907D-04 0.100000000000D+01
0.209959524916D-04 0.000000000000D+00 0.000000000000D+00 0.532329582839D-08 0.000000000000D+00  7 2 -2 24 -13 13 -24 21 2 0.16433748D+00 0.30685106D-01 0.15472490D+06 0.15472490D+06 0.15472490D+06 0.11064906D+01  1  2 12  2  7  2       -2 0.712323605525D-03 0.100000000000D+01
-.226342484721D-04 0.000000000000D+00 0.000000000000D+00 0.532329582839D-08 0.000000000000D+00  7 2 -2 24 -13 13 -24 21 2 0.16433748D+00 0.18960007D-01 0.10987310D+06 0.10987310D+06 0.10987310D+06 0.11183818D+01  1  2  4  2  7  2       -2 -.179230957772D-02 0.100000000000D+01
-.254655697044D-04 0.000000000000D+00 -.491524330283D-05 0.532329582839D-08 0.000000000000D+00  7 2 -2 24 -13 13 -24 21 2 0.16433748D+00 0.31814506D-01 0.10987310D+06 0.10987310D+06 0.10987310D+06 0.11183818D+01  1  2  5  2  7  2       -2 -.834183401773D-03 0.100000000000D+01
0.251562031079D-04 0.000000000000D+00 0.432311786793D-05 0.532329582839D-08 0.000000000000D+00  7 2 -2 24 -13 13 -24 21 2 0.16433748D+00 0.18960007D-01 0.10987310D+06 0.10987310D+06 0.10987310D+06 0.11183818D+01  1  2  6  2  7  2       -2 0.199201240654D-02 0.100000000000D+01
0.114915992534D-05 0.000000000000D+00 0.000000000000D+00 0.532329582839D-08 0.000000000000D+00  7 2 21 24 -13 13 -24 2 2 0.16433748D+00 0.30685106D-01 0.15472490D+06 0.15472490D+06 0.15472490D+06 0.11064906D+01  1  2 12  4  7  2       -2 0.455299130480D-03 0.100000000000D+01
-.124570965643D-05 0.000000000000D+00 -.284899882346D-06 0.532329582839D-08 0.000000000000D+00  7 2 21 24 -13 13 -24 2 2 0.16433748D+00 0.31814506D-01 0.10987310D+06 0.10987310D+06 0.10987310D+06 0.11183818D+01  1  2  5  4  7  2       -2 -.477481855460D-03 0.100000000000D+01
  </mgrwgt>
  </event>
  <event>
  8     66 0.26993063E-05 0.45225216E+03 0.75467711E-02 0.85643861E-01
        2 -1    0    0  501    0 0.00000000E+00 0.00000000E+00 0.11400250E+04 0.11400251E+04 0.32000000E+00 0.0000E+00 0.9000E+01
       -2 -1    0    0    0  501 0.00000000E+00 0.00000000E+00 -.23308075E+03 0.23308097E+03 0.32000000E+00 0.0000E+00 0.9000E+01
       25  2    1    2    0    0 -.33897239E+03 0.26062685E+03 0.72788827E+03 0.90047833E+03 0.31338674E+03 0.0000E+00 0.0000E+00
       23  2    1    2    0    0 0.33897239E+03 -.26062685E+03 0.17905601E+03 0.47262772E+03 0.92126411E+02 0.0000E+00 0.0000E+00
       24  1    3    3    0    0 -.12138357E+03 0.28028268E+02 0.43778838E+03 0.46221796E+03 0.80419002E+02 0.0000E+00 0.9000E+01
      -11  1    4    4    0    0 0.31097444E+03 -.24275567E+03 0.18970349E+03 0.43774745E+03 0.51099893E-03 0.0000E+00 0.9000E+01
       11  1    4    4    0    0 0.27997955E+02 -.17871180E+02 -.10647486E+02 0.34880274E+02 0.51099893E-03 0.0000E+00 0.9000E+01
      -24  1    3    3    0    0 -.21758882E+03 0.23259858E+03 0.29009989E+03 0.43826037E+03 0.80419002E+02 0.0000E+00 0.9000E+01
#aMCatNLO 1  0  0  1  1 0.10538885D+04 0.00000000D+00  -5  7  0 0.00000000D+00 0.00000000D+00 0.00000000D+00 0.00000000D+00 0.00000000D+00
  <mgrwgt>
 0.1812998740D-02    3    2    0
 0.515478493445853D+03 0.000000000000000D+00 0.000000000000000D+00 0.515478493445853D+03
 0.515478493445853D+03 0.000000000000000D+00 0.000000000000000D+00 -.515478493445853D+03
 0.230489349638161D+03 -.121383571461161D+03 0.280282676616981D+02 0.176461239748194D+03
 0.416140711977094D+03 0.310974436514345D+03 -.242755666280720D+03 -.132429900279325D+03
 0.558228837031818D+02 0.279979548419070D+02 -.178711798326595D+02 -.448656862312195D+02
 0.328504041573269D+03 -.217588819895092D+03 0.232598578451681D+03 0.834346762351075D+00
 0.000000000000000D+00 0.000000000000000D+00 -.000000000000000D+00 -.000000000000000D+00
 0.112693902523849D+04 0.000000000000000D+00 0.000000000000000D+00 0.112693902523849D+04
 0.144950683422361D+04 0.000000000000000D+00 0.000000000000000D+00 -.144950683422361D+04
 0.446793047541685D+03 -.351748890766948D+03 0.195680760648481D+03 0.176461239748194D+03
 0.192040362851966D+03 0.104112678284521D+03 -.922083114298631D+02 -.132429900279325D+03
 0.459372387319777D+02 -.661390454641064D+01 0.731822163995038D+01 -.448656862312195D+02
 0.789526890693978D+03 -.597866756805801D+03 0.509352667752437D+03 0.834346762351075D+00
 0.110214831964250D+04 0.852116873834638D+03 -.620143338611005D+03 -.322567808985117D+03
0.951678236773D-04 0.000000000000D+00 0.000000000000D+00 0.862178800050D-08 0.000000000000D+00  7 2 -2 24 -11 11 -24 21 0 0.17538849D+00 0.35858598D-01 0.20453202D+06 0.20453202D+06 0.20453202D+06 0.10970788D+01  1  2  2  1  7  1        2 0.179380032177D-02 0.100000000000D+01
-.517702743018D-05 0.000000000000D+00 -.365469501184D-06 0.862178800050D-08 0.000000000000D+00  7 2 -2 24 -11 11 -24 21 2 0.17538849D+00 0.35858598D-01 0.20453202D+06 0.20453202D+06 0.20453202D+06 0.10970788D+01  1  2  3  1  7  1        2 -.117446492605D-03 0.100000000000D+01
0.602329144151D-05 0.000000000000D+00 0.000000000000D+00 0.862178800050D-08 0.000000000000D+00  7 2 -2 24 -11 11 -24 21 2 0.17538849D+00 0.35858598D-01 0.20453202D+06 0.20453202D+06 0.20453202D+06 0.10970788D+01  1  2 15  1  7  1        2 0.136644911251D-03 0.100000000000D+01
  </mgrwgt>
  </event>
  <event>
  8     66 -.26993063E-05 0.30416932E+03 0.75467711E-02 0.10062641E+00
        2 -1    0    0  501    0 0.00000000E+00 0.00000000E+00 0.18366158E+04 0.18366159E+04 0.32000000E+00 0.0000E+00 0.9000E+01
       -2 -1    0    0    0  501 0.00000000E+00 0.00000000E+00 -.14610674E+03 0.14610710E+03 0.32000000E+00 0.0000E+00 0.9000E+01
       25  2    1    2    0    0 0.12980750E+03 0.19403565E+03 0.12985370E+03 0.40185203E+03 0.30020536E+03 0.0000E+00 0.0000E+00
       23  2    1    2    0    0 -.12980750E+03 -.19403565E+03 0.15606554E+04 0.15808709E+04 0.94909537E+02 0.0000E+00 0.0000E+00
       24  1    3    3    0    0 0.11815687E+03 0.23722132E+03 0.53041482E+02 0.28198514E+03 0.80419002E+02 0.0000E+00 0.9000E+01
      -11  1    4    4    0    0 -.11389966E+02 -.57564185E+02 0.20519083E+03 0.21341660E+03 0.51099893E-03 0.0000E+00 0.9000E+01
       11  1    4    4    0    0 -.11841753E+03 -.13647146E+03 0.13554646E+04 0.13674543E+04 0.51099893E-03 0.0000E+00 0.9000E+01
      -24  1    3    3    0    0 0.11650625E+02 -.43185678E+02 0.76812221E+02 0.11986690E+03 0.80419002E+02 0.0000E+00 0.9000E+01
#aMCatNLO 1  0  0  1  1 0.10538885D+04 0.00000000D+00  -5  7  0 0.00000000D+00 0.00000000D+00 0.00000000D+00 0.00000000D+00 0.00000000D+00
  <mgrwgt>
 -.1174113099D-04    1    2    0
 0.518017700937464D+03 0.000000000000000D+00 0.000000000000000D+00 0.518017700937464D+03
 0.518017700937464D+03 0.000000000000000D+00 0.000000000000000D+00 -.518017700937464D+03
 0.453103534466809D+03 0.118156871620834D+03 0.237221324388537D+03 -.358609249652139D+03
 0.736162319063475D+02 -.113899655698185D+02 -.575641854521967D+02 0.444520284985127D+02
 0.405254430760377D+03 -.118417531327690D+03 -.136471461407523D+03 0.362745064951224D+03
 0.104061204741396D+03 0.116506252766746D+02 -.431856775288167D+02 -.485878437975970D+02
 0.000000000000000D+00 -.000000000000000D+00 -.000000000000000D+00 -.000000000000000D+00
 0.731542938839743D+03 0.000000000000000D+00 0.000000000000000D+00 0.731542938839743D+03
 0.280747736793691D+04 0.000000000000000D+00 0.000000000000000D+00 -.280747736793691D+04
 0.676412961042901D+03 0.504909591841469D+03 0.259871098898791D+03 -.358609249652139D+03
 0.817902154554392D+02 0.418220649723944D+02 -.544478777185980D+02 0.444520284985127D+02
 0.415210016330693D+03 0.162514051361235D+03 -.120018992767915D+03 0.362745064951224D+03
 0.138889298628650D+03 0.948382267246166D+02 -.383138813750110D+02 -.485878437975970D+02
 0.222671781531897D+04 -.804083934899715D+03 -.470903470372669D+02 -.207593442909717D+04
-.511912825498D-06 0.000000000000D+00 0.000000000000D+00 0.977111645762D-06 0.000000000000D+00  7 2 -2 24 -11 11 -24 21 2 0.28255631D+00 0.22477990D-01 0.92518976D+05 0.92518976D+05 0.92518976D+05 0.11245038D+01  1  2 14  1  7  1        2 -.117411309899D-04 0.100000000000D+01
  </mgrwgt>
  </event>
  <event>
  8     66 0.26993063E-05 0.32769948E+03 0.75467711E-02 0.96718426E-01
        2 -1    0    0  501    0 0.00000000E+00 0.00000000E+00 0.67116817E+03 0.67116825E+03 0.32000000E+00 0.0000E+00 0.9000E+01
       -2 -1    0    0    0  501 0.00000000E+00 0.00000000E+00 -.19479385E+03 0.19479411E+03 0.32000000E+00 0.0000E+00 0.9000E+01
       25  2    1    2    0    0 -.26022226E+03 0.25307332E+02 0.12205265E+03 0.41658138E+03 0.30047814E+03 0.0000E+00 0.0000E+00
       23  2    1    2    0    0 0.26022226E+03 -.25307332E+02 0.35432168E+03 0.44938097E+03 0.89684564E+02 0.0000E+00 0.0000E+00
       24  1    3    3    0    0 0.32948909E+02 -.11345208E+02 0.53880579E+02 0.10288186E+03 0.80419002E+02 0.0000E+00 0.9000E+01
      -11  1    4    4    0    0 0.12747314E+03 -.87290144E+01 0.24616224E+03 0.27734715E+03 0.51099893E-03 0.0000E+00 0.9000E+01
       11  1    4    4    0    0 0.13274912E+03 -.16578318E+02 0.10815944E+03 0.17203382E+03 0.51099893E-03 0.0000E+00 0.9000E+01
      -24  1    3    3    0    0 -.29317117E+03 0.36652540E+02 0.68172067E+02 0.31369952E+03 0.80419002E+02 0.0000E+00 0.9000E+01
#aMCatNLO 1  0  0  1  1 0.15927977D+03 0.00000000D+00  -5  7  0 0.00000000D+00 0.00000000D+00 0.00000000D+00 0.00000000D+00 0.00000000D+00
  <mgrwgt>
 0.7871577036D-03    3    2    0
 0.361579281336247D+03 0.000000000000000D+00 0.000000000000000D+00 0.361579281336247D+03
 0.361579281336247D+03 0.000000000000000D+00 0.000000000000000D+00 -.361579281336247D+03
 0.877048226461988D+02 0.329489090855427D+02 -.113452077520108D+02 -.325201663080283D+01
 0.169958335355873D+03 0.127473138000394D+03 -.872901435583304D+01 0.112072472773860D+03
 0.134756658651963D+03 0.132749123914013D+03 -.165783175793653D+02 0.161921751886948D+02
 0.330738746018460D+03 -.293171170999949D+03 0.366525396872092D+02 -.125012631331752D+03
 0.000000000000000D+00 -.000000000000000D+00 0.000000000000000D+00 -.000000000000000D+00
 0.383839286378527D+03 0.000000000000000D+00 0.000000000000000D+00 0.383839286378527D+03
 0.836836901848913D+03 0.000000000000000D+00 0.000000000000000D+00 -.836836901848913D+03
 0.970341598544546D+02 0.486436422298565D+02 -.239088410998110D+02 -.325201663080283D+01
 0.197152434378984D+03 0.158661496231023D+03 -.336952940578506D+02 0.112072472773860D+03
 0.163094625182395D+03 0.158053455209953D+03 -.368344339204477D+02 0.161921751886948D+02
 0.283210747694337D+03 -.241012317803522D+03 -.510062052112865D+01 -.125012631331752D+03
 0.480184221117269D+03 -.124346275867310D+03 0.995391895992379D+02 -.452997615470386D+03
0.146036930938D-04 0.000000000000D+00 0.000000000000D+00 0.606041283818D-06 0.000000000000D+00  7 2 -2 24 -11 11 -24 21 0 0.10325667D+00 0.29968310D-01 0.10738695D+06 0.10738695D+06 0.10738695D+06 0.11191909D+01  1  2  2  1  7  1        2 0.778988198247D-03 0.100000000000D+01
-.801768031386D-06 0.000000000000D+00 -.560820267210D-07 0.606041283818D-06 0.000000000000D+00  7 2 -2 24 -11 11 -24 21 2 0.10325667D+00 0.29968310D-01 0.10738695D+06 0.10738695D+06 0.10738695D+06 0.11191909D+01  1  2  3  1  7  1        2 -.535704483740D-04 0.100000000000D+01
0.924037835974D-06 0.000000000000D+00 0.000000000000D+00 0.606041283818D-06 0.000000000000D+00  7 2 -2 24 -11 11 -24 21 2 0.10325667D+00 0.29968310D-01 0.10738695D+06 0.10738695D+06 0.10738695D+06 0.11191909D+01  1  2 15  1  7  1        2 0.617399537646D-04 0.100000000000D+01
  </mgrwgt>
  </event>
  <event>
  8     66 0.26993063E-05 0.97947900E+03 0.75467711E-02 0.80037745E-01
        2 -1    0    0  501    0 0.00000000E+00 0.00000000E+00 0.11354734E+04 0.11354735E+04 0.32000000E+00 0.0000E+00 0.9000E+01
       -2 -1    0    0    0  501 0.00000000E+00 0.00000000E+00 -.13395026E+04 0.13395027E+04 0.32000000E+00 0.0000E+00 0.9000E+01
       25  2    1    2    0    0 -.95467803E+03 -.12670750E+03 -.84391333E+03 0.13151511E+04 0.29994652E+03 0.0000E+00 0.0000E+00
       23  2    1    2    0    0 0.95467803E+03 0.12670750E+03 0.63988412E+03 0.11598250E+04 0.90979909E+02 0.0000E+00 0.0000E+00
       24  1    3    3    0    0 -.66698842E+03 -.17144227E+03 -.68151762E+03 0.97221370E+03 0.80419002E+02 0.0000E+00 0.9000E+01
      -13  1    4    4    0    0 0.27370066E+03 0.22058494E+02 0.22969037E+03 0.35798926E+03 0.10565837E+00 0.0000E+00 0.9000E+01
       13  1    4    4    0    0 0.68097736E+03 0.10464901E+03 0.41019375E+03 0.80183571E+03 0.10565837E+00 0.0000E+00 0.9000E+01
      -24  1    3    3    0    0 -.28768960E+03 0.44734773E+02 -.16239571E+03 0.34293744E+03 0.80419002E+02 0.0000E+00 0.9000E+01
#aMCatNLO 1  0  0  1  2 0.18970796D+04 0.00000000D+00  -5  7  0 0.00000000D+00 0.00000000D+00 0.00000000D+00 0.00000000D+00 0.00000000D+00
  <mgrwgt>
 0.1377814381D-02    5    2    0
 0.123327600825267D+04 0.000000000000000D+00 0.000000000000000D+00 0.123327600825267D+04
 0.123327600825267D+04 0.000000000000000D+00 0.000000000000000D+00 -.123327600825267D+04
 0.919160100201090D+03 -.666988421383003D+03 -.171442274346580D+03 -.603425278021388D+03
 0.378210908667004D+03 0.273700114158902D+03 0.220583822906540D+02 0.260086844563204D+03
 0.838505429879859D+03 0.680977910936463D+03 0.104649118981865D+03 0.477921544451532D+03
 0.330675577757387D+03 -.287689603712362D+03 0.447347730740608D+02 -.134583110993348D+03
 0.000000000000000D+00 -.000000000000000D+00 -.000000000000000D+00 0.000000000000000D+00
 0.286894483361700D+04 0.000000000000000D+00 0.000000000000000D+00 0.286894483361700D+04
 0.224106011015851D+04 0.000000000000000D+00 0.000000000000000D+00 -.224106011015851D+04
 0.913089801872303D+03 -.523441710566685D+03 0.434916635474736D+03 -.603425278021388D+03
 0.542141827029982D+03 0.345804693261677D+03 0.326636966705793D+03 0.260086844563204D+03
 0.125680956802778D+04 0.845134326354131D+03 0.798065948436081D+03 0.477921544451532D+03
 0.399676942239437D+03 -.230470497375767D+03 0.286435295098586D+03 -.134583110993348D+03
 0.199828680460601D+04 -.437026811673356D+03 -.184605484571520D+04 0.627884723458489D+03
0.483361509691D-02 0.000000000000D+00 0.000000000000D+00 0.441580629407D-04 0.000000000000D+00  7 2 -2 24 -13 13 -24 21 0 0.17468822D+00 0.20607733D+00 0.95937911D+06 0.95937911D+06 0.95937911D+06 0.10490649D+01  1  2  2  1  7  1        2 0.134949373132D-02 0.100000000000D+01
-.251200994698D-03 0.000000000000D+00 -.185623546922D-04 0.441580629407D-04 0.000000000000D+00  7 2 -2 24 -13 13 -24 21 2 0.17468822D+00 0.20607733D+00 0.95937911D+06 0.95937911D+06 0.95937911D+06 0.10490649D+01  1  2  3  1  7  1        2 -.771835741671D-04 0.100000000000D+01
0.305118049781D-03 0.000000000000D+00 0.000000000000D+00 0.441580629407D-04 0.000000000000D+00  7 2 -2 24 -13 13 -24 21 2 0.17468822D+00 0.20607733D+00 0.95937911D+06 0.95937911D+06 0.95937911D+06 0.10490649D+01  1  2 15  1  7  1        2 0.937500333281D-04 0.100000000000D+01
0.761583931149D-03 0.000000000000D+00 -.141698767988D-02 0.441580629407D-04 0.000000000000D+00  7 2 -2 24 -13 13 -24 21 2 0.51251089D+00 0.20607733D+00 0.95937911D+06 0.95937911D+06 0.95937911D+06 0.10490649D+01  1  2  5  1  7  1        2 0.116474847305D-04 0.100000000000D+01
0.166611987127D-03 0.000000000000D+00 -.172795519141D-03 0.441580629407D-04 0.000000000000D+00  7 21 -2 24 -13 13 -24 -2 2 0.51251089D+00 0.20607733D+00 0.95937911D+06 0.95937911D+06 0.95937911D+06 0.10490649D+01  1  2  5  3  7  1        2 0.106706162881D-06 0.100000000000D+01
  </mgrwgt>
  </event>
  <event>
  8     66 0.26993063E-05 0.48473074E+03 0.75467711E-02 0.94371164E-01
        2 -1    0    0  501    0 0.00000000E+00 0.00000000E+00 0.61852244E+03 0.61852252E+03 0.32000000E+00 0.0000E+00 0.9000E+01
       -2 -1    0    0    0  501 0.00000000E+00 0.00000000E+00 -.43037810E+03 0.43037822E+03 0.32000000E+00 0.0000E+00 0.9000E+01
       25  2    1    2    0    0 0.41967495E+03 0.11335247E+03 -.74446876E+02 0.53252454E+03 0.29843626E+03 0.0000E+00 0.0000E+00
       23  2    1    2    0    0 -.41967495E+03 -.11335247E+03 0.26259121E+03 0.51637621E+03 0.93350942E+02 0.0000E+00 0.0000E+00
       24  1    3    3    0    0 0.24412753E+02 -.40327745E+02 -.33034542E+02 0.98897960E+02 0.80419002E+02 0.0000E+00 0.9000E+01
      -11  1    4    4    0    0 -.18988565E+03 -.35383929E+01 0.10949629E+03 0.21922253E+03 0.51099893E-03 0.0000E+00 0.9000E+01
       11  1    4    4    0    0 -.22978930E+03 -.10981407E+03 0.15309493E+03 0.29715368E+03 0.51099893E-03 0.0000E+00 0.9000E+01
      -24  1    3    3    0    0 0.39526220E+03 0.15368021E+03 -.41412334E+02 0.43362658E+03 0.80419002E+02 0.0000E+00 0.9000E+01
#aMCatNLO 1  0  0  2  2 0.51513571D+02 0.00000000D+00  -5  7  0 0.00000000D+00 0.00000000D+00 0.00000000D+00 0.00000000D+00 0.00000000D+00
  <mgrwgt>
 0.2386676913D-03    4    2    0
 0.515944396220676D+03 0.000000000000000D+00 0.000000000000000D+00 0.515944396220676D+03
 0.515944396220676D+03 0.000000000000000D+00 0.000000000000000D+00 -.515944396220676D+03
 0.106551603632484D+03 0.244127525656083D+02 -.403277454943001D+02 -.516112268581247D+02
 0.202872215062660D+03 -.189885647928553D+03 -.353839294432905D+01 0.713306114550765D+02
 0.274138817744195D+03 -.229789300944813D+03 -.109814072616187D+03 0.101438838818896D+03
 0.448326156002012D+03 0.395262196307758D+03 0.153680211054816D+03 -.121158223415848D+03
 0.000000000000000D+00 0.000000000000000D+00 -.000000000000000D+00 0.000000000000000D+00
 0.631905072531663D+03 0.000000000000000D+00 0.000000000000000D+00 0.631905072531663D+03
 0.522339790159503D+03 0.000000000000000D+00 0.000000000000000D+00 -.522339790159503D+03
 0.105171255868742D+03 0.191937356569154D+02 -.395178299046088D+02 -.516112268581247D+02
 0.212465043851955D+03 -.200123806350332D+03 -.194957952207020D+01 0.713306114550765D+02
 0.284975297594214D+03 -.243571591759863D+03 -.107675261344245D+03 0.101438838818896D+03
 0.430562215715039D+03 0.373597396939137D+03 0.157042273118067D+03 -.121158223415848D+03
 0.121071049661216D+03 0.509042655141428D+02 -.789960234714250D+01 0.109565282372161D+03
0.208054024514D-04 0.000000000000D+00 0.000000000000D+00 0.359880482768D-07 0.000000000000D+00  7 2 -2 24 -11 11 -24 21 0 0.95157314D-01 0.66212031D-01 0.23496389D+06 0.23496389D+06 0.23496389D+06 0.10924915D+01  1  2  2  2  7  2       -2 0.262227230597D-03 0.100000000000D+01
-.115038263570D-05 0.000000000000D+00 -.798982236016D-07 0.359880482768D-07 0.000000000000D+00  7 2 -2 24 -11 11 -24 21 2 0.95157314D-01 0.66212031D-01 0.23496389D+06 0.23496389D+06 0.23496389D+06 0.10924915D+01  1  2  3  2  7  2       -2 -.173053397459D-04 0.100000000000D+01
0.132663476268D-05 0.000000000000D+00 0.000000000000D+00 0.359880482768D-07 0.000000000000D+00  7 2 -2 24 -11 11 -24 21 2 0.95157314D-01 0.66212031D-01 0.23496389D+06 0.23496389D+06 0.23496389D+06 0.10924915D+01  1  2 15  2  7  2       -2 0.199567209852D-04 0.100000000000D+01
-.174238635233D-05 0.000000000000D+00 0.000000000000D+00 0.359880482768D-07 0.000000000000D+00  7 2 -2 24 -11 11 -24 21 2 0.95157314D-01 0.66212031D-01 0.23496389D+06 0.23496389D+06 0.23496389D+06 0.10924915D+01  1  2  4  2  7  2       -2 -.262109204884D-04 0.100000000000D+01
  </mgrwgt>
  </event>
  <event>
  7     66 0.26993063E-05 0.38819059E+03 0.75467711E-02 0.88708168E-01
        2 -1    0    0  501    0 0.00000000E+00 0.00000000E+00 0.29136742E+04 0.29136742E+04 0.32000000E+00 0.0000E+00 0.9000E+01
       -2 -1    0    0    0  501 0.00000000E+00 0.00000000E+00 -.21153805E+03 0.21153829E+03 0.32000000E+00 0.0000E+00 0.9000E+01
       25  2    1    2    0    0 0.36614134E+03 0.61805141E+03 0.12896242E+04 0.15064680E+04 0.30044677E+03 0.0000E+00 0.0000E+00
       24  1    3    3    0    0 0.31342972E+03 0.31834106E+03 0.87686479E+03 0.98738964E+03 0.80419002E+02 0.0000E+00 0.9000E+01
      -11  1    1    2    0    0 -.22832305E+03 -.28805463E+03 0.10368697E+04 0.11000935E+04 0.51099893E-03 0.0000E+00 0.9000E+01
       11  1    1    2    0    0 -.13781829E+03 -.32999678E+03 0.37564216E+03 0.51865094E+03 0.51099893E-03 0.0000E+00 0.9000E+01
      -24  1    3    3    0    0 0.52711614E+02 0.29971035E+03 0.41275943E+03 0.51907839E+03 0.80419002E+02 0.0000E+00 0.9000E+01
#aMCatNLO 1  0  0  1  2 0.22858551D+03 0.00000000D+00  -5  7  0 0.00000000D+00 0.00000000D+00 0.00000000D+00 0.00000000D+00 0.00000000D+00
  <mgrwgt>
 0.7236375063D-02    9    2    0
 0.785081746763509D+03 0.000000000000000D+00 0.000000000000000D+00 0.785081746763509D+03
 0.785081746763509D+03 0.000000000000000D+00 0.000000000000000D+00 -.785081746763509D+03
 0.456254649223516D+03 0.313429722880316D+03 0.318341060954519D+03 0.460637244393398D+02
 0.405220727756485D+03 -.228323045495474D+03 -.288054630506285D+03 0.170578295638850D+03
 0.385856707908353D+03 -.137818292602617D+03 -.329996785064375D+03 -.144891818641177D+03
 0.322831408638662D+03 0.527116152177757D+02 0.299710354616142D+03 -.717502014370130D+02
 0.000000000000000D+00 0.000000000000000D+00 0.000000000000000D+00 0.000000000000000D+00
 0.950237438445278D+03 0.000000000000000D+00 0.000000000000000D+00 0.950237438445278D+03
 0.876623995884898D+03 0.000000000000000D+00 0.000000000000000D+00 -.876623995884898D+03
 0.398776868019590D+03 0.259136937955042D+03 0.288586131321662D+03 0.460637244393398D+02
 0.458795382496752D+03 -.283186334040909D+03 -.318122222219316D+03 0.170578295638850D+03
 0.430607464120742D+03 -.189662128528216D+03 -.358409578624085D+03 -.144891818641177D+03
 0.298535360950444D+03 0.132560727018836D+02 0.278086912517852D+03 -.717502014370130D+02
 0.240146358742650D+03 0.200455451912199D+03 0.109858757003887D+03 0.736134425603801D+02
0.199772129755D-02 0.000000000000D+00 0.000000000000D+00 0.686257945428D-09 0.000000000000D+00  7 2 -2 24 -11 11 -24 21 0 0.44825758D+00 0.32544335D-01 0.55791110D+06 0.55791110D+06 0.55791110D+06 0.10651628D+01  1  2  2  1  7  1        2 0.421708408725D-02 0.100000000000D+01
-.110649717731D-03 0.000000000000D+00 -.767177579468D-05 0.686257945428D-09 0.000000000000D+00  7 2 -2 24 -11 11 -24 21 2 0.44825758D+00 0.32544335D-01 0.55791110D+06 0.55791110D+06 0.55791110D+06 0.10651628D+01  1  2  3  1  7  1        2 -.265008412219D-03 0.100000000000D+01
0.127127155652D-03 0.000000000000D+00 0.000000000000D+00 0.686257945428D-09 0.000000000000D+00  7 2 -2 24 -11 11 -24 21 2 0.44825758D+00 0.32544335D-01 0.55791110D+06 0.55791110D+06 0.55791110D+06 0.10651628D+01  1  2 15  1  7  1        2 0.304472224240D-03 0.100000000000D+01
0.118248141303D-02 0.000000000000D+00 0.000000000000D+00 0.686257945428D-09 0.000000000000D+00  7 2 -2 24 -11 11 -24 21 2 0.56427293D+00 0.32544335D-01 0.76202675D+06 0.76202675D+06 0.76202675D+06 0.10558123D+01  1  2 12  1  7  1        2 0.829959613769D-03 0.100000000000D+01
-.119747404221D-02 0.000000000000D+00 0.000000000000D+00 0.686257945428D-09 0.000000000000D+00  7 2 -2 24 -11 11 -24 21 2 0.44825758D+00 0.32544335D-01 0.55791110D+06 0.55791110D+06 0.55791110D+06 0.10651628D+01  1  2  4  1  7  1        2 -.286797563614D-02 0.100000000000D+01
-.292064009456D-02 0.000000000000D+00 -.816938093410D-03 0.686257945428D-09 0.000000000000D+00  7 2 -2 24 -11 11 -24 21 2 0.55866423D+00 0.32544335D-01 0.55791110D+06 0.55791110D+06 0.55791110D+06 0.10651628D+01  1  2  5  1  7  1        2 -.227585341483D-02 0.100000000000D+01
0.304579603950D-02 0.000000000000D+00 0.797527989084D-03 0.686257945428D-09 0.000000000000D+00  7 2 -2 24 -11 11 -24 21 2 0.44825758D+00 0.32544335D-01 0.55791110D+06 0.55791110D+06 0.55791110D+06 0.10651628D+01  1  2  6  1  7  1        2 0.729474587845D-02 0.100000000000D+01
0.376369586765D-04 0.000000000000D+00 0.000000000000D+00 0.686257945428D-09 0.000000000000D+00  7 21 -2 24 -11 11 -24 -2 2 0.56427293D+00 0.32544335D-01 0.76202675D+06 0.76202675D+06 0.76202675D+06 0.10558123D+01  1  2 12  3  7  1        2 0.716130725234D-06 0.100000000000D+01
-.788325969775D-04 0.000000000000D+00 -.251504873325D-04 0.686257945428D-09 0.000000000000D+00  7 21 -2 24 -11 11 -24 -2 2 0.55866423D+00 0.32544335D-01 0.55791110D+06 0.55791110D+06 0.55791110D+06 0.10651628D+01  1  2  5  3  7  1        2 -.176540785899D-05 0.100000000000D+01
  </mgrwgt>
  </event>
  <event>
  8     66 0.26993063E-05 0.82407107E+02 0.75467711E-02 0.10289228E+00
        2 -1    0    0  501    0 0.00000000E+00 0.00000000E+00 0.39497147E+04 0.39497147E+04 0.32000000E+00 0.0000E+00 0.9000E+01
       -2 -1    0    0    0  501 0.00000000E+00 0.00000000E+00 -.15881848E+02 0.15885072E+02 0.32000000E+00 0.0000E+00 0.9000E+01
       25  2    1    2    0    0 0.52366375E+02 0.50408541E+02 0.16353738E+04 0.16642543E+04 0.30001934E+03 0.0000E+00 0.0000E+00
       23  2    1    2    0    0 -.52366375E+02 -.50408541E+02 0.22984590E+04 0.23013455E+04 0.89408262E+02 0.0000E+00 0.0000E+00
       24  1    3    3    0    0 -.18077651E+02 -.63227377E+02 0.11439574E+04 0.11486645E+04 0.80419002E+02 0.0000E+00 0.9000E+01
      -13  1    4    4    0    0 -.14062052E+02 0.25528040E+02 0.73090960E+03 0.73149044E+03 0.10565837E+00 0.0000E+00 0.9000E+01
       13  1    4    4    0    0 -.38304324E+02 -.75936580E+02 0.15675495E+04 0.15698550E+04 0.10565837E+00 0.0000E+00 0.9000E+01
      -24  1    3    3    0    0 0.70444027E+02 0.11363592E+03 0.49141646E+03 0.51558979E+03 0.80419002E+02 0.0000E+00 0.9000E+01
#aMCatNLO 1  0  0  1  2 0.12654200D+03 0.00000000D+00  -5  7  0 0.00000000D+00 0.00000000D+00 0.00000000D+00 0.00000000D+00 0.00000000D+00
  <mgrwgt>
 0.7858738188D-03    9    2    0
 0.250469934303749D+03 0.000000000000000D+00 0.000000000000000D+00 0.250469934303749D+03
 0.250469934303749D+03 0.000000000000000D+00 0.000000000000000D+00 -.250469934303749D+03
 0.109806984279648D+03 -.180776508219609D+02 -.632273760164767D+02 0.355788603675085D+02
 0.509484749721654D+02 -.140620187888594D+02 0.255281749748426D+02 0.417889819453041D+02
 0.117657571751942D+03 -.383043584991036D+02 -.759367175260879D+02 0.813000322379927D+02
 0.222526837603742D+03 0.704440281099238D+02 0.113635918567722D+03 -.158667874550805D+03
 0.000000000000000D+00 -.000000000000000D+00 0.000000000000000D+00 0.000000000000000D+00
 0.382694216098138D+03 0.000000000000000D+00 0.000000000000000D+00 0.382694216098138D+03
 0.290529273539239D+03 0.000000000000000D+00 0.000000000000000D+00 -.290529273539239D+03
 0.124397806973364D+03 -.267766296540395D+01 -.879464225617213D+02 0.355788603675085D+02
 0.451972046606361D+02 -.774002046045621D+01 0.153805195095028D+02 0.417889819453041D+02
 0.132518173542726D+03 -.218542106651045D+02 -.102341411722755D+03 0.813000322379927D+02
 0.214562371329670D+03 0.991845524766304D+02 0.675035211806119D+02 -.158667874550805D+03
 0.156547933130982D+03 -.669126583856658D+02 0.107403793594362D+03 0.921649425588989D+02
0.233836787791D-04 0.000000000000D+00 0.000000000000D+00 0.287931437035D-06 0.000000000000D+00  7 2 -2 24 -13 13 -24 21 0 0.60764867D+00 0.24436103D-02 0.34987748D+05 0.34987748D+05 0.34987748D+05 0.11611889D+01  1  2  2  1  7  1        2 0.631347387856D-03 0.100000000000D+01
-.116445288306D-05 0.000000000000D+00 -.897994835756D-07 0.287931437035D-06 0.000000000000D+00  7 2 -2 24 -13 13 -24 21 2 0.60764867D+00 0.24436103D-02 0.34987748D+05 0.34987748D+05 0.34987748D+05 0.11611889D+01  1  2  3  1  7  1        2 -.423919305422D-04 0.100000000000D+01
0.142616663286D-05 0.000000000000D+00 0.000000000000D+00 0.287931437035D-06 0.000000000000D+00  7 2 -2 24 -13 13 -24 21 2 0.60764867D+00 0.24436103D-02 0.34987748D+05 0.34987748D+05 0.34987748D+05 0.11611889D+01  1  2 15  1  7  1        2 0.519196248482D-04 0.100000000000D+01
0.207986133574D-05 0.000000000000D+00 0.000000000000D+00 0.287931437035D-06 0.000000000000D+00  7 2 -2 24 -13 13 -24 21 2 0.95631262D+00 0.24436103D-02 0.65547664D+05 0.65547664D+05 0.65547664D+05 0.11370939D+01  1  2 12  1  7  1        2 0.680016329565D-08 0.100000000000D+01
-.841756894490D-05 0.000000000000D+00 0.000000000000D+00 0.287931437035D-06 0.000000000000D+00  7 2 -2 24 -13 13 -24 21 2 0.60764867D+00 0.24436103D-02 0.34987748D+05 0.34987748D+05 0.34987748D+05 0.11611889D+01  1  2  4  1  7  1        2 -.306441766119D-03 0.100000000000D+01
-.939341484004D-05 0.000000000000D+00 -.411447625298D-05 0.287931437035D-06 0.000000000000D+00  7 2 -2 24 -13 13 -24 21 2 0.93282827D+00 0.24436103D-02 0.34987748D+05 0.34987748D+05 0.34987748D+05 0.11611889D+01  1  2  5  1  7  1        2 -.184368618724D-06 0.100000000000D+01
0.124053793477D-04 0.000000000000D+00 0.457413334173D-05 0.287931437035D-06 0.000000000000D+00  7 2 -2 24 -13 13 -24 21 2 0.60764867D+00 0.24436103D-02 0.34987748D+05 0.34987748D+05 0.34987748D+05 0.11611889D+01  1  2  6  1  7  1        2 0.451618083746D-03 0.100000000000D+01
0.108715871896D-06 0.000000000000D+00 0.000000000000D+00 0.287931437035D-06 0.000000000000D+00  7 21 -2 24 -13 13 -24 -2 2 0.95631262D+00 0.24436103D-02 0.65547664D+05 0.65547664D+05 0.65547664D+05 0.11370939D+01  1  2 12  3  7  1        2 0.103222940697D-11 0.100000000000D+01
-.316671354060D-06 0.000000000000D+00 -.206123790737D-06 0.287931437035D-06 0.000000000000D+00  7 21 -2 24 -13 13 -24 -2 2 0.93282827D+00 0.24436103D-02 0.34987748D+05 0.34987748D+05 0.34987748D+05 0.11611889D+01  1  2  5  3  7  1        2 -.135268800018D-10 0.100000000000D+01
  </mgrwgt>
  </event>
  <event>
  8     66 0.26993063E-05 0.20081745E+03 0.75467711E-02 0.96513283E-01
        2 -1    0    0  501    0 0.00000000E+00 0.00000000E+00 0.24825948E+04 0.24825949E+04 0.32000000E+00 0.0000E+00 0.9000E+01
       -2 -1    0    0    0  501 0.00000000E+00 0.00000000E+00 -.23225074E+02 0.23227279E+02 0.32000000E+00 0.0000E+00 0.9000E+01
       25  2    1    2    0    0 0.54775550E+01 -.80114231E+02 0.21752776E+04 0.21966325E+04 0.29481042E+03 0.0000E+00 0.0000E+00
       23  2    1    2    0    0 -.54775550E+01 0.80114231E+02 0.28409214E+03 0.30918967E+03 0.91878242E+02 0.0000E+00 0.0000E+00
       24  1    3    3    0    0 -.16526314E+02 -.16592024E+03 0.13971419E+04 0.14093528E+04 0.80419002E+02 0.0000E+00 0.9000E+01
      -13  1    4    4    0    0 -.19969218E+02 0.79922267E+02 0.28289678E+03 0.29464714E+03 0.10565837E+00 0.0000E+00 0.9000E+01
       13  1    4    4    0    0 0.14491663E+02 0.19196424E+00 0.11953677E+01 0.14542531E+02 0.10565837E+00 0.0000E+00 0.9000E+01
      -24  1    3    3    0    0 0.22003869E+02 0.85806013E+02 0.77813575E+03 0.78727969E+03 0.80419002E+02 0.0000E+00 0.9000E+01
#aMCatNLO 1  0  0  2  1 0.32987395D+03 0.00000000D+00  -5  7  0 0.00000000D+00 0.00000000D+00 0.00000000D+00 0.00000000D+00 0.00000000D+00
  <mgrwgt>
 0.2029624140D-02    5    2    0
 0.240127544431173D+03 0.000000000000000D+00 0.000000000000000D+00 0.240127544431173D+03
 0.240127544431173D+03 0.000000000000000D+00 0.000000000000000D+00 -.240127544431173D+03
 0.198850432367006D+03 -.165263118146217D+02 -.165920239174095D+03 0.726060173015394D+02
 0.886727883792916D+02 -.199692634121756D+02 0.799223774692269D+02 -.328101432090779D+02
 0.697569621994535D+02 0.144917076136538D+02 0.191865023604237D+00 -.682347959149074D+02
 0.122974905916596D+03 0.220038676131435D+02 0.858059966812643D+02 0.284389218224459D+02
 0.000000000000000D+00 0.000000000000000D+00 -.000000000000000D+00 -.000000000000000D+00
 0.354185693238019D+03 0.000000000000000D+00 0.000000000000000D+00 0.354185693238019D+03
 0.724029603823594D+03 0.000000000000000D+00 0.000000000000000D+00 -.724029603823594D+03
 0.140514305784913D+03 -.572273130098555D+02 -.687783037965177D+02 0.726060173015394D+02
 0.163508000314382D+03 -.502140396901443D+02 0.152108220972452D+03 -.328101432090779D+02
 0.809023827981374D+02 -.357730631576355D+01 0.433175605083029D+02 -.682347959149074D+02
 0.197708789973910D+03 -.164566617889672D+02 0.177600550919522D+03 0.284389218224459D+02
 0.495581818190270D+03 0.127475320804731D+03 -.304248028603759D+03 -.369843910585575D+03
0.129824478453D-04 0.000000000000D+00 0.000000000000D+00 0.549447967140D-08 0.000000000000D+00  7 2 -2 24 -13 13 -24 21 0 0.38193784D+00 0.35732595D-02 0.40327648D+05 0.40327648D+05 0.40327648D+05 0.11555996D+01  1  2  2  2  7  2       -2 0.181638375207D-02 0.100000000000D+01
-.693220271741D-06 0.000000000000D+00 -.498560180829D-07 0.549447967140D-08 0.000000000000D+00  7 2 -2 24 -13 13 -24 21 2 0.38193784D+00 0.35732595D-02 0.40327648D+05 0.40327648D+05 0.40327648D+05 0.11555996D+01  1  2  3  2  7  2       -2 -.129520062019D-03 0.100000000000D+01
0.818152785118D-06 0.000000000000D+00 0.000000000000D+00 0.549447967140D-08 0.000000000000D+00  7 2 -2 24 -13 13 -24 21 2 0.38193784D+00 0.35732595D-02 0.40327648D+05 0.40327648D+05 0.40327648D+05 0.11555996D+01  1  2 15  2  7  2       -2 0.152862234111D-03 0.100000000000D+01
0.432552165393D-05 0.000000000000D+00 -.563518421498D-05 0.549447967140D-08 0.000000000000D+00  7 2 -2 24 -13 13 -24 21 2 0.38193784D+00 0.19099232D-01 0.40327648D+05 0.40327648D+05 0.40327648D+05 0.11555996D+01  1  2  5  2  7  2       -2 0.632696965236D-04 0.100000000000D+01
0.653965415003D-06 0.000000000000D+00 -.115489322439D-05 0.549447967140D-08 0.000000000000D+00  7 2 21 24 -13 13 -24 2 2 0.38193784D+00 0.19099232D-01 0.40327648D+05 0.40327648D+05 0.40327648D+05 0.11555996D+01  1  2  5  4  7  2       -2 0.126628518890D-03 0.100000000000D+01
  </mgrwgt>
  </event>
  <event>
  8     66 0.26993063E-05 0.23205010E+03 0.75467711E-02 0.79383343E-01
        2 -1    0    0  501    0 0.00000000E+00 0.00000000E+00 0.26388055E+03 0.26388074E+03 0.32000000E+00 0.0000E+00 0.9000E+01
       -2 -1    0    0    0  501 0.00000000E+00 0.00000000E+00 -.34532191E+03 0.34532206E+03 0.32000000E+00 0.0000E+00 0.9000E+01
       25  2    1    2    0    0 0.73877897E+02 -.14450632E+03 -.19307685E+03 0.39177218E+03 0.29977783E+03 0.0000E+00 0.0000E+00
       23  2    1    2    0    0 -.73877897E+02 0.14450632E+03 0.11163549E+03 0.21743063E+03 0.92052025E+02 0.0000E+00 0.0000E+00
       24  1    3    3    0    0 0.13385428E+03 -.79019572E+02 -.20710839E+03 0.27114970E+03 0.80419002E+02 0.0000E+00 0.9000E+01
      -11  1    4    4    0    0 -.81014102E+02 0.13152100E+03 0.12403854E+03 0.19810759E+03 0.51099893E-03 0.0000E+00 0.9000E+01
       11  1    4    4    0    0 0.71362046E+01 0.12985323E+02 -.12403054E+02 0.19323038E+02 0.51099893E-03 0.0000E+00 0.9000E+01
      -24  1    3    3    0    0 -.59976385E+02 -.65486749E+02 0.14031536E+02 0.12062247E+03 0.80419002E+02 0.0000E+00 0.9000E+01
#aMCatNLO 1  0  0  1  1 0.24759646D+04 0.00000000D+00  -5  7  0 0.00000000D+00 0.00000000D+00 0.00000000D+00 0.00000000D+00 0.00000000D+00
  <mgrwgt>
 0.1287601663D-02    3    2    0
 0.301867255339527D+03 0.000000000000000D+00 0.000000000000000D+00 0.301867255339527D+03
 0.301867255339527D+03 0.000000000000000D+00 0.000000000000000D+00 -.301867255339527D+03
 0.245667535473113D+03 0.133854282364800D+03 -.790195722147268D+02 -.172407251386560D+03
 0.216634239764029D+03 -.810141015998317D+02 0.131520997867978D+03 0.151885931869684D+03
 0.178249329033972D+02 0.713620460194441D+01 0.129853233778362D+02 -.990879375417703D+01
 0.123607802538516D+03 -.599763853669126D+02 -.654867490310877D+02 0.304301132710528D+02
 0.000000000000000D+00 0.000000000000000D+00 0.000000000000000D+00 -.000000000000000D+00
 0.192508911052340D+04 0.000000000000000D+00 0.000000000000000D+00 0.192508911052340D+04
 0.362907637045602D+04 0.000000000000000D+00 0.000000000000000D+00 -.362907637045602D+04
 0.863991994978298D+03 -.496329139031084D+03 -.681137340666479D+03 -.172407251386560D+03
 0.782071420465378D+03 -.648186042776037D+03 -.410391550058176D+03 0.151885931869684D+03
 0.172941892868425D+02 -.128081909274323D+02 -.607083475254936D+01 -.990879375417703D+01
 0.885150993403964D+03 -.632857572744829D+03 -.612854277945002D+03 0.304301132710528D+02
 0.300565688284494D+04 0.179018094547938D+04 0.171045400342221D+04 -.170398725993262D+04
0.243411795943D-04 0.000000000000D+00 0.000000000000D+00 0.118454998652D-05 0.000000000000D+00  7 2 -2 24 -11 11 -24 21 0 0.40597034D-01 0.53126474D-01 0.53847251D+05 0.53847251D+05 0.53847251D+05 0.11444744D+01  1  2  2  1  7  1        2 0.126617558287D-02 0.100000000000D+01
-.123853168621D-05 0.000000000000D+00 -.934765388218D-07 0.118454998652D-05 0.000000000000D+00  7 2 -2 24 -11 11 -24 21 2 0.40597034D-01 0.53126474D-01 0.53847251D+05 0.53847251D+05 0.53847251D+05 0.11444744D+01  1  2  3  1  7  1        2 -.843862304222D-04 0.100000000000D+01
0.155300099264D-05 0.000000000000D+00 0.000000000000D+00 0.118454998652D-05 0.000000000000D+00  7 2 -2 24 -11 11 -24 21 2 0.40597034D-01 0.53126474D-01 0.53847251D+05 0.53847251D+05 0.53847251D+05 0.11444744D+01  1  2 15  1  7  1        2 0.105812310715D-03 0.100000000000D+01
  </mgrwgt>
  </event>
  <event>
  8     66 0.26993063E-05 0.18725726E+03 0.75467711E-02 0.97182252E-01
        4 -1    0    0  501    0 0.00000000E+00 0.00000000E+00 0.59976755E+03 0.59976956E+03 0.15500000E+01 0.0000E+00 0.9000E+01
       -4 -1    0    0    0  501 0.00000000E+00 0.00000000E+00 -.10489587E+03 0.10490733E+03 0.15500000E+01 0.0000E+00 0.9000E+01
       25  2    1    2    0    0 0.85940489E+02 -.11083188E+03 0.31012736E+03 0.45395527E+03 0.30037798E+03 0.0000E+00 0.0000E+00
       23  2    1    2    0    0 -.85940489E+02 0.11083188E+03 0.18474432E+03 0.25072161E+03 0.95191348E+02 0.0000E+00 0.0000E+00
       24  1    3    3    0    0 0.38788339E+02 -.13151489E+01 0.29630983E+03 0.30947212E+03 0.80419002E+02 0.0000E+00 0.9000E+01
      -11  1    4    4    0    0 -.66932970E+02 0.97168463E+02 0.19273761E+03 0.22598566E+03 0.51099893E-03 0.0000E+00 0.9000E+01
       11  1    4    4    0    0 -.19007518E+02 0.13663413E+02 -.79932934E+01 0.24735953E+02 0.51099893E-03 0.0000E+00 0.9000E+01
      -24  1    3    3    0    0 0.47152149E+02 -.10951673E+03 0.13817535E+02 0.14448314E+03 0.80419002E+02 0.0000E+00 0.9000E+01
#aMCatNLO 1  0  0  1  1 0.32542952D+03 0.00000000D+00  -5  7  0 0.00000000D+00 0.00000000D+00 0.00000000D+00 0.00000000D+00 0.00000000D+00
  <mgrwgt>
 0.3570718612D-04    3    2    0
 0.250834371735686D+03 0.000000000000000D+00 0.000000000000000D+00 0.250834371735686D+03
 0.250834371735686D+03 0.000000000000000D+00 0.000000000000000D+00 -.250834371735686D+03
 0.142409726531068D+03 0.387883393882665D+02 -.131514894756546D+01 0.110937141512793D+03
 0.127308083310548D+03 -.669329703719666D+02 0.971684631913007D+02 0.478081092957225D+02
 0.426307373359467D+02 -.190075182520789D+02 0.136634132040710D+02 -.356287125127780D+02
 0.189320196293809D+03 0.471521492357789D+02 -.109516727447806D+03 -.123116538295737D+03
 0.000000000000000D+00 0.000000000000000D+00 -.000000000000000D+00 -.000000000000000D+00
 0.371658654555290D+03 0.000000000000000D+00 0.000000000000000D+00 0.371658654555290D+03
 0.663319423767672D+03 0.000000000000000D+00 0.000000000000000D+00 -.663319423767672D+03
 0.146639455392084D+03 -.385350905994279D+02 0.352691274173467D+02 0.110937141512793D+03
 0.217953550064098D+03 -.159293770558487D+03 0.140867417568335D+03 0.478081092957225D+02
 0.657509682496289D+02 -.480006645673008D+02 0.273810312359304D+02 -.356287125127780D+02
 0.167632530537321D+03 -.483361306424236D+02 -.643380588187736D+02 -.123116538295737D+03
 0.437001574079830D+03 0.294165656367639D+03 -.139179517402839D+03 -.291660769212381D+03
0.488816706732D-05 0.000000000000D+00 0.000000000000D+00 0.559550962385D-07 0.000000000000D+00  7 4 -4 24 -11 11 -24 21 0 0.92272966D-01 0.16138862D-01 0.35065280D+05 0.35065280D+05 0.35065280D+05 0.11611011D+01  1  2  2  1  7  1        4 0.350267564696D-04 0.100000000000D+01
-.243352385443D-06 0.000000000000D+00 -.187718486225D-07 0.559550962385D-07 0.000000000000D+00  7 4 -4 24 -11 11 -24 21 2 0.92272966D-01 0.16138862D-01 0.35065280D+05 0.35065280D+05 0.35065280D+05 0.11611011D+01  1  2  3  1  7  1        4 -.235087521514D-05 0.100000000000D+01
0.313787505225D-06 0.000000000000D+00 0.000000000000D+00 0.559550962385D-07 0.000000000000D+00  7 4 -4 24 -11 11 -24 21 2 0.92272966D-01 0.16138862D-01 0.35065280D+05 0.35065280D+05 0.35065280D+05 0.11611011D+01  1  2 15  1  7  1        4 0.303130486069D-05 0.100000000000D+01
  </mgrwgt>
  </event>
  <event>
  8     66 0.26993063E-05 0.36595807E+03 0.75467711E-02 0.92143239E-01
        2 -1    0    0  501    0 0.00000000E+00 0.00000000E+00 0.74032013E+03 0.74032020E+03 0.32000000E+00 0.0000E+00 0.9000E+01
       -2 -1    0    0    0  501 0.00000000E+00 0.00000000E+00 -.25908356E+03 0.25908376E+03 0.32000000E+00 0.0000E+00 0.9000E+01
       25  2    1    2    0    0 -.90497995E+02 -.30264337E+03 0.50757550E+03 0.66916936E+03 0.30061910E+03 0.0000E+00 0.0000E+00
       23  2    1    2    0    0 0.90497995E+02 0.30264337E+03 -.26338934E+02 0.33023460E+03 0.92618848E+02 0.0000E+00 0.0000E+00
       24  1    3    3    0    0 0.64753934E+02 -.14859296E+03 0.32941540E+03 0.37583861E+03 0.80419002E+02 0.0000E+00 0.9000E+01
      -11  1    4    4    0    0 0.27189625E+02 0.15400908E+03 0.29797554E+02 0.15920416E+03 0.51099893E-03 0.0000E+00 0.9000E+01
       11  1    4    4    0    0 0.63308371E+02 0.14863430E+03 -.56136488E+02 0.17103043E+03 0.51099893E-03 0.0000E+00 0.9000E+01
      -24  1    3    3    0    0 -.15525193E+03 -.15405042E+03 0.17816010E+03 0.29333075E+03 0.80419002E+02 0.0000E+00 0.9000E+01
#aMCatNLO 1  0  0  2  1 0.43617087D+03 0.00000000D+00  -5  7  0 0.00000000D+00 0.00000000D+00 0.00000000D+00 0.00000000D+00 0.00000000D+00
  <mgrwgt>
 0.8159696684D-03    3    2    0
 0.437955373701283D+03 0.000000000000000D+00 0.000000000000000D+00 0.437955373701283D+03
 0.437955373701283D+03 0.000000000000000D+00 0.000000000000000D+00 -.437955373701283D+03
 0.247842441144605D+03 0.647539339563916D+02 -.148592957411378D+03 0.169368594264280D+03
 0.165278937981102D+03 0.271896248171638D+02 0.154009076371262D+03 -.534701415533349D+02
 0.225985836680119D+03 0.633083705881220D+02 0.148634296275435D+03 -.158017386904723D+03
 0.236803531596739D+03 -.155251929361677D+03 -.154050415235319D+03 0.421189341937771D+02
 0.000000000000000D+00 0.000000000000000D+00 0.000000000000000D+00 0.000000000000000D+00
 0.790006559471516D+03 0.000000000000000D+00 0.000000000000000D+00 0.790006559471516D+03
 0.647389662421974D+03 0.000000000000000D+00 0.000000000000000D+00 -.647389662421974D+03
 0.307224048392474D+03 -.265319143312132D+02 -.241929197814470D+03 0.169368594264280D+03
 0.120342781365360D+03 -.197835242224240D+02 0.105980852791238D+03 -.534701415533349D+02
 0.177497512183577D+03 -.304821995594769D+01 0.807872553207653D+02 -.158017386904723D+03
 0.373436893124936D+03 -.255611644603296D+03 -.256664332773396D+03 0.421189341937771D+02
 0.458894986827143D+03 0.304975303112881D+03 0.311825422475863D+03 0.142616897049543D+03
0.285728260992D-04 0.000000000000D+00 0.000000000000D+00 0.759178964852D-06 0.000000000000D+00  7 2 -2 24 -11 11 -24 21 0 0.11389543D+00 0.39859030D-01 0.13392531D+06 0.13392531D+06 0.13392531D+06 0.11114578D+01  1  2  2  2  7  2       -2 0.805883745866D-03 0.100000000000D+01
-.152512534477D-05 0.000000000000D+00 -.109727175619D-06 0.759178964852D-06 0.000000000000D+00  7 2 -2 24 -11 11 -24 21 2 0.11389543D+00 0.39859030D-01 0.13392531D+06 0.13392531D+06 0.13392531D+06 0.11114578D+01  1  2  3  2  7  2       -2 -.531386725051D-04 0.100000000000D+01
0.181459994812D-05 0.000000000000D+00 0.000000000000D+00 0.759178964852D-06 0.000000000000D+00  7 2 -2 24 -11 11 -24 21 2 0.11389543D+00 0.39859030D-01 0.13392531D+06 0.13392531D+06 0.13392531D+06 0.11114578D+01  1  2 15  2  7  2       -2 0.632245950807D-04 0.100000000000D+01
  </mgrwgt>
  </event>
  <event>
  8     66 0.26993063E-05 0.47765373E+03 0.75467711E-02 0.92124649E-01
        2 -1    0    0  501    0 0.00000000E+00 0.00000000E+00 0.32835050E+04 0.32835050E+04 0.32000000E+00 0.0000E+00 0.9000E+01
       -2 -1    0    0    0  501 0.00000000E+00 0.00000000E+00 -.10722628E+03 0.10722675E+03 0.32000000E+00 0.0000E+00 0.9000E+01
       25  2    1    2    0    0 0.29438423E+03 0.31297989E+03 0.26673922E+04 0.27184785E+04 0.30087490E+03 0.0000E+00 0.0000E+00
       23  2    1    2    0    0 -.29438423E+03 -.31297989E+03 0.50888653E+03 0.67225328E+03 0.91326267E+02 0.0000E+00 0.0000E+00
       24  1    3    3    0    0 0.32496423E+03 0.25254372E+03 0.21162786E+04 0.21574249E+04 0.80419002E+02 0.0000E+00 0.9000E+01
      -11  1    4    4    0    0 -.25067435E+03 -.24889030E+03 0.46212719E+03 0.58167478E+03 0.51099893E-03 0.0000E+00 0.9000E+01
       11  1    4    4    0    0 -.43709879E+02 -.64089586E+02 0.46759344E+02 0.90578501E+02 0.51099893E-03 0.0000E+00 0.9000E+01
      -24  1    3    3    0    0 -.30580006E+02 0.60436164E+02 0.55111365E+03 0.56105360E+03 0.80419002E+02 0.0000E+00 0.9000E+01
#aMCatNLO 1  0  0  1  1 0.26375345D+03 0.00000000D+00  -5  7  0 0.00000000D+00 0.00000000D+00 0.00000000D+00 0.00000000D+00 0.00000000D+00
  <mgrwgt>
 0.1993094281D-02    7    2    0
 0.593362325881845D+03 0.000000000000000D+00 0.000000000000000D+00 0.593362325881845D+03
 0.593362325881845D+03 0.000000000000000D+00 0.000000000000000D+00 -.593362325881845D+03
 0.499996874852318D+03 0.324964232109961D+03 0.252543722034190D+03 0.272304196107983D+03
 0.425084620333471D+03 -.250674347418058D+03 -.248890299410958D+03 -.236459139915770D+03
 0.133650793914575D+03 -.437098788490170D+02 -.640895862409325D+02 -.108832468227394D+03
 0.127992362663325D+03 -.305800058428861D+02 0.604361636177008D+02 0.729874120351805D+02
 0.000000000000000D+00 -.000000000000000D+00 0.000000000000000D+00 0.000000000000000D+00
 0.744842752014240D+03 0.000000000000000D+00 0.000000000000000D+00 0.744842752014240D+03
 0.734783846886201D+03 0.000000000000000D+00 0.000000000000000D+00 -.734783846886201D+03
 0.536409552839944D+03 0.416076756373080D+03 0.184386957270897D+03 0.272304196107983D+03
 0.423979374824570D+03 -.176031464285777D+03 -.304726941717225D+03 -.236459139915770D+03
 0.137665178992176D+03 -.198579588841031D+02 -.819320257008123D+02 -.108832468227394D+03
 0.117627299847623D+03 -.898709898504400D+01 0.442835799288153D+02 0.729874120351805D+02
 0.263945192396128D+03 -.211200234218155D+03 0.157988430218325D+03 0.100589051280393D+02
0.327245698417D-03 0.000000000000D+00 0.000000000000D+00 0.277863051695D-05 0.000000000000D+00  7 2 -2 24 -11 11 -24 21 0 0.50515466D+00 0.16496388D-01 0.22815309D+06 0.22815309D+06 0.22815309D+06 0.10934594D+01  1  2  2  1  7  1        2 0.134779403404D-02 0.100000000000D+01
-.171402078106D-04 0.000000000000D+00 -.125670964769D-05 0.277863051695D-05 0.000000000000D+00  7 2 -2 24 -11 11 -24 21 2 0.50515466D+00 0.16496388D-01 0.22815309D+06 0.22815309D+06 0.22815309D+06 0.10934594D+01  1  2  3  1  7  1        2 -.844055455512D-04 0.100000000000D+01
0.206503991684D-04 0.000000000000D+00 0.000000000000D+00 0.277863051695D-05 0.000000000000D+00  7 2 -2 24 -11 11 -24 21 2 0.50515466D+00 0.16496388D-01 0.22815309D+06 0.22815309D+06 0.22815309D+06 0.10934594D+01  1  2 15  1  7  1        2 0.101691194583D-03 0.100000000000D+01
-.101098682150D-03 0.000000000000D+00 0.000000000000D+00 0.277863051695D-05 0.000000000000D+00  7 2 -2 24 -11 11 -24 21 2 0.50515466D+00 0.16496388D-01 0.22815309D+06 0.22815309D+06 0.22815309D+06 0.10934594D+01  1  2  4  1  7  1        2 -.497852156502D-03 0.100000000000D+01
-.245137758996D-03 0.000000000000D+00 -.100126175143D-03 0.277863051695D-05 0.000000000000D+00  7 2 -2 24 -11 11 -24 21 2 0.66470722D+00 0.16496388D-01 0.22815309D+06 0.22815309D+06 0.22815309D+06 0.10934594D+01  1  2  5  1  7  1        2 -.187985633975D-03 0.100000000000D+01
0.266818423113D-03 0.000000000000D+00 0.969542063458D-04 0.277863051695D-05 0.000000000000D+00  7 2 -2 24 -11 11 -24 21 2 0.50515466D+00 0.16496388D-01 0.22815309D+06 0.22815309D+06 0.22815309D+06 0.10934594D+01  1  2  6  1  7  1        2 0.131392540947D-02 0.100000000000D+01
-.693240050745D-05 0.000000000000D+00 -.362873978592D-05 0.277863051695D-05 0.000000000000D+00  7 21 -2 24 -11 11 -24 -2 2 0.66470722D+00 0.16496388D-01 0.22815309D+06 0.22815309D+06 0.22815309D+06 0.10934594D+01  1  2  5  3  7  1        2 -.730208100198D-07 0.100000000000D+01
  </mgrwgt>
  </event>
  <event>
  8     66 0.26993063E-05 0.21262674E+03 0.75467711E-02 0.91979108E-01
        2 -1    0    0  501    0 0.00000000E+00 0.00000000E+00 0.12066643E+04 0.12066643E+04 0.32000000E+00 0.0000E+00 0.9000E+01
       -2 -1    0    0    0  501 0.00000000E+00 0.00000000E+00 -.22209251E+03 0.22209274E+03 0.32000000E+00 0.0000E+00 0.9000E+01
       25  2    1    2    0    0 -.36748253E+03 0.28596592E+03 0.44903865E+03 0.71329594E+03 0.30055859E+03 0.0000E+00 0.0000E+00
       23  2    1    2    0    0 0.36748253E+03 -.28596592E+03 0.53553314E+03 0.71546116E+03 0.90934032E+02 0.0000E+00 0.0000E+00
       24  1    3    3    0    0 0.68757601E+01 0.45342620E+02 0.31501587E+02 0.97789545E+02 0.80419002E+02 0.0000E+00 0.9000E+01
      -13  1    4    4    0    0 0.35121618E+03 -.24607213E+03 0.46293023E+03 0.63103780E+03 0.10565837E+00 0.0000E+00 0.9000E+01
       13  1    4    4    0    0 0.16266356E+02 -.39893789E+02 0.72602912E+02 0.84423354E+02 0.10565837E+00 0.0000E+00 0.9000E+01
      -24  1    3    3    0    0 -.37435829E+03 0.24062330E+03 0.41753706E+03 0.61550639E+03 0.80419002E+02 0.0000E+00 0.9000E+01
#aMCatNLO 1  0  0  2  1 0.22993151D+03 0.00000000D+00  -5  7  0 0.00000000D+00 0.00000000D+00 0.00000000D+00 0.00000000D+00 0.00000000D+00
  <mgrwgt>
 0.1192158655D-02    9    2    0
 0.517678764571473D+03 0.000000000000000D+00 0.000000000000000D+00 0.517678764571473D+03
 0.517678764571473D+03 0.000000000000000D+00 0.000000000000000D+00 -.517678764571473D+03
 0.104989753892206D+03 0.687575998687940D+01 0.453426196692719D+02 -.495217450632148D+02
 0.430587704231482D+03 0.351216629598933D+03 -.246072407944801D+03 0.387430016487020D+02
 0.474591140948826D+02 0.162659040078117D+02 -.398935103252999D+02 0.199071773841730D+02
 0.452320956924376D+03 -.374358293593624D+03 0.240623298600829D+03 -.912843396966020D+01
 0.000000000000000D+00 0.000000000000000D+00 0.000000000000000D+00 -.000000000000000D+00
 0.611081802979068D+03 0.000000000000000D+00 0.000000000000000D+00 0.611081802979068D+03
 0.693887571120509D+03 0.000000000000000D+00 0.000000000000000D+00 -.693887571120509D+03
 0.988155935875428D+02 -.737623945788647D+01 0.281157151614853D+02 -.495217450632148D+02
 0.433464798838921D+03 0.290793898074523D+03 -.319107537514141D+03 0.387430016487020D+02
 0.531389604993392D+02 0.923113420912506D+01 -.483966896880203D+02 0.199071773841730D+02
 0.475162427839465D+03 -.439216712904713D+03 0.162226593610186D+03 -.912843396966020D+01
 0.244387593334309D+03 0.146567920078952D+03 0.177161918430490D+03 -.828057681414409D+02
0.500119506560D-04 0.000000000000D+00 0.000000000000D+00 0.244988098441D-05 0.000000000000D+00  7 2 -2 24 -13 13 -24 21 0 0.18564068D+00 0.34168100D-01 0.25843439D+06 0.25843439D+06 0.25843439D+06 0.10893767D+01  1  2  2  2  7  2       -2 0.935485006518D-03 0.100000000000D+01
-.277732807779D-05 0.000000000000D+00 -.192059058968D-06 0.244988098441D-05 0.000000000000D+00  7 2 -2 24 -13 13 -24 21 2 0.18564068D+00 0.34168100D-01 0.25843439D+06 0.25843439D+06 0.25843439D+06 0.10893767D+01  1  2  3  2  7  2       -2 -.616518864684D-04 0.100000000000D+01
0.319274285624D-05 0.000000000000D+00 0.000000000000D+00 0.244988098441D-05 0.000000000000D+00  7 2 -2 24 -13 13 -24 21 2 0.18564068D+00 0.34168100D-01 0.25843439D+06 0.25843439D+06 0.25843439D+06 0.10893767D+01  1  2 15  2  7  2       -2 0.708733770669D-04 0.100000000000D+01
0.197193431918D-04 0.000000000000D+00 0.000000000000D+00 0.244988098441D-05 0.000000000000D+00  7 2 -2 24 -13 13 -24 21 2 0.18564068D+00 0.48035347D-01 0.40418841D+06 0.40418841D+06 0.40418841D+06 0.10751017D+01  1  2 12  2  7  2       -2 0.220748203025D-03 0.100000000000D+01
-.260891368721D-04 0.000000000000D+00 0.000000000000D+00 0.244988098441D-05 0.000000000000D+00  7 2 -2 24 -13 13 -24 21 2 0.18564068D+00 0.34168100D-01 0.25843439D+06 0.25843439D+06 0.25843439D+06 0.10893767D+01  1  2  4  2  7  2       -2 -.579133778741D-03 0.100000000000D+01
-.404013052085D-04 0.000000000000D+00 -.188140389777D-04 0.244988098441D-05 0.000000000000D+00  7 2 -2 24 -13 13 -24 21 2 0.18564068D+00 0.53603695D-01 0.25843439D+06 0.25843439D+06 0.25843439D+06 0.10893767D+01  1  2  5  2  7  2       -2 -.379341918593D-03 0.100000000000D+01
0.458993015430D-04 0.000000000000D+00 0.170552702226D-04 0.244988098441D-05 0.000000000000D+00  7 2 -2 24 -13 13 -24 21 2 0.18564068D+00 0.34168100D-01 0.25843439D+06 0.25843439D+06 0.25843439D+06 0.10893767D+01  1  2  6  2  7  2       -2 0.101888521934D-02 0.100000000000D+01
0.835369568143D-06 0.000000000000D+00 0.000000000000D+00 0.244988098441D-05 0.000000000000D+00  7 2 21 24 -13 13 -24 2 2 0.18564068D+00 0.48035347D-01 0.40418841D+06 0.40418841D+06 0.40418841D+06 0.10751017D+01  1  2 12  4  7  2       -2 0.975348994222D-04 0.100000000000D+01
-.135125048709D-05 0.000000000000D+00 -.978210979101D-06 0.244988098441D-05 0.000000000000D+00  7 2 21 24 -13 13 -24 2 2 0.18564068D+00 0.53603695D-01 0.25843439D+06 0.25843439D+06 0.25843439D+06 0.10893767D+01  1  2  5  4  7  2       -2 -.131240466882D-03 0.100000000000D+01
  </mgrwgt>
  </event>
  <event>
  8     66 0.26993063E-05 0.15338078E+03 0.75467711E-02 0.99006315E-01
        2 -1    0    0  501    0 0.00000000E+00 0.00000000E+00 0.14654729E+04 0.14654730E+04 0.32000000E+00 0.0000E+00 0.9000E+01
       -2 -1    0    0    0  501 0.00000000E+00 0.00000000E+00 -.40428809E+02 0.40430076E+02 0.32000000E+00 0.0000E+00 0.9000E+01
       25  2    1    2    0    0 0.68536873E+02 -.16954290E+02 0.13066014E+04 0.13423629E+04 0.29957646E+03 0.0000E+00 0.0000E+00
       23  2    1    2    0    0 -.68536873E+02 0.16954290E+02 0.11844267E+03 0.16354015E+03 0.87931570E+02 0.0000E+00 0.0000E+00
       24  1    3    3    0    0 0.43245189E+02 -.57044830E+02 0.11808612E+04 0.11857591E+04 0.80419002E+02 0.0000E+00 0.9000E+01
      -11  1    4    4    0    0 -.25780707E+01 0.36783192E+02 0.70694298E+02 0.79732888E+02 0.51099893E-03 0.0000E+00 0.9000E+01
       11  1    4    4    0    0 -.65958802E+02 -.19828902E+02 0.47748376E+02 0.83807257E+02 0.51099893E-03 0.0000E+00 0.9000E+01
      -24  1    3    3    0    0 0.25291684E+02 0.40090540E+02 0.12574021E+03 0.15660376E+03 0.80419002E+02 0.0000E+00 0.9000E+01
#aMCatNLO 1  0  0  1  1 0.28057615D+03 0.00000000D+00  -5  7  0 0.00000000D+00 0.00000000D+00 0.00000000D+00 0.00000000D+00 0.00000000D+00
  <mgrwgt>
 0.1073407053D-02    3    2    0
 0.243409746992451D+03 0.000000000000000D+00 0.000000000000000D+00 0.243409746992451D+03
 0.243409746992451D+03 0.000000000000000D+00 0.000000000000000D+00 -.243409746992451D+03
 0.211287612105523D+03 0.432451887214284D+02 -.570448299696942D+02 0.181799285205031D+03
 0.397015825313141D+02 -.257807068549851D+01 0.367831915568833D+02 -.147161824506544D+02
 0.119473563773515D+03 -.659588019437994D+02 -.198289019486768D+02 -.976226589188829D+02
 0.116356735574551D+03 0.252916839078695D+02 0.400905403614878D+02 -.694604438354933D+02
 0.000000000000000D+00 0.000000000000000D+00 0.000000000000000D+00 -.000000000000000D+00
 0.319586804191920D+03 0.000000000000000D+00 0.000000000000000D+00 0.319586804191920D+03
 0.790230878011595D+03 0.000000000000000D+00 0.000000000000000D+00 -.790230878011595D+03
 0.219110596729876D+03 -.719042873549710D+02 -.576283871357303D+02 0.181799285205031D+03
 0.472019075355873D+02 -.258283796900169D+02 0.366653631056002D+02 -.147161824506544D+02
 0.175968672417794D+03 -.145001925288394D+03 -.202294785090340D+02 -.976226589188829D+02
 0.119605105736333D+03 -.378379524223828D+02 0.397706105370105D+02 -.694604438354933D+02
 0.547931399783925D+03 0.280572544755765D+03 0.142189200215360D+01 -.470644073819675D+03
0.484179539714D-05 0.000000000000D+00 0.000000000000D+00 0.547193341437D-07 0.000000000000D+00  7 2 -2 24 -11 11 -24 21 0 0.22545747D+00 0.62199169D-02 0.23525663D+05 0.23525663D+05 0.23525663D+05 0.11772603D+01  1  2  2  1  7  1        2 0.104211729625D-02 0.100000000000D+01
-.199235154091D-06 0.000000000000D+00 -.185937691990D-07 0.547193341437D-07 0.000000000000D+00  7 2 -2 24 -11 11 -24 21 2 0.22545747D+00 0.62199169D-02 0.23525663D+05 0.23525663D+05 0.23525663D+05 0.11772603D+01  1  2  3  1  7  1        2 -.594321128535D-04 0.100000000000D+01
0.304128271350D-06 0.000000000000D+00 0.000000000000D+00 0.547193341437D-07 0.000000000000D+00  7 2 -2 24 -11 11 -24 21 2 0.22545747D+00 0.62199169D-02 0.23525663D+05 0.23525663D+05 0.23525663D+05 0.11772603D+01  1  2 15  1  7  1        2 0.907218699796D-04 0.100000000000D+01
  </mgrwgt>
  </event>
  <event>
  8     66 0.26993063E-05 0.57104678E+03 0.75467711E-02 0.89842200E-01
        2 -1    0    0  501    0 0.00000000E+00 0.00000000E+00 0.13921518E+04 0.13921518E+04 0.32000000E+00 0.0000E+00 0.9000E+01
       -2 -1    0    0    0  501 0.00000000E+00 0.00000000E+00 -.26576597E+03 0.26576617E+03 0.32000000E+00 0.0000E+00 0.9000E+01
       25  2    1    2    0    0 0.24180112E+03 0.48586909E+03 0.36846236E+03 0.72126841E+03 0.29987841E+03 0.0000E+00 0.0000E+00
       23  2    1    2    0    0 -.24180112E+03 -.48586909E+03 0.75792346E+03 0.93664959E+03 0.91257425E+02 0.0000E+00 0.0000E+00
       24  1    3    3    0    0 0.25031550E+03 0.31473042E+03 0.33393907E+03 0.52886256E+03 0.80419002E+02 0.0000E+00 0.9000E+01
      -11  1    4    4    0    0 -.67022063E+02 -.13426907E+03 0.14452646E+03 0.20834596E+03 0.51099893E-03 0.0000E+00 0.9000E+01
       11  1    4    4    0    0 -.17477905E+03 -.35160002E+03 0.61339700E+03 0.72830363E+03 0.51099893E-03 0.0000E+00 0.9000E+01
      -24  1    3    3    0    0 -.85143827E+01 0.17113867E+03 0.34523290E+02 0.19240585E+03 0.80419002E+02 0.0000E+00 0.9000E+01
#aMCatNLO 1  0  0  2  2 0.36547056D+03 0.00000000D+00  -5  7  0 0.00000000D+00 0.00000000D+00 0.00000000D+00 0.00000000D+00 0.00000000D+00
  <mgrwgt>
 0.7633951166D-03    4    2    0
 0.608265376781375D+03 0.000000000000000D+00 0.000000000000000D+00 0.608265376781375D+03
 0.608265376781375D+03 0.000000000000000D+00 0.000000000000000D+00 -.608265376781375D+03
 0.411552704886679D+03 0.250315498864062D+03 0.314730422609103D+03 -.345734733271429D+02
 0.150121941804376D+03 -.670220633057290D+02 -.134269072118395D+03 0.405668754337262D+01
 0.424605795261713D+03 -.174779052903054D+03 -.351600021342877D+03 0.161616178112934D+03
 0.230250311609983D+03 -.851438265527906D+01 0.171138670852169D+03 -.131099392329164D+03
 0.000000000000000D+00 -.000000000000000D+00 0.000000000000000D+00 0.000000000000000D+00
 0.848833051545560D+03 0.000000000000000D+00 0.000000000000000D+00 0.848833051545560D+03
 0.791369843161660D+03 0.000000000000000D+00 0.000000000000000D+00 -.791369843161660D+03
 0.487901394325184D+03 0.380611296059056D+03 0.292438490771019D+03 -.345734733271429D+02
 0.143705958473017D+03 -.244578673803109D+02 -.141551257536028D+03 0.405668754337262D+01
 0.409410334091706D+03 -.539626637812447D+02 -.372270148616408D+03 0.161616178112934D+03
 0.229224733513798D+03 0.580456200708937D+02 0.159751112113847D+03 -.131099392329164D+03
 0.369960474303514D+03 -.360236384968394D+03 0.616318032675712D+02 0.574632083839004D+02
0.977448770160D-04 0.000000000000D+00 0.000000000000D+00 0.108868361925D-04 0.000000000000D+00  7 2 -2 24 -11 11 -24 21 0 0.21417722D+00 0.40887091D-01 0.32609442D+06 0.32609442D+06 0.32609442D+06 0.10818821D+01  1  2  2  2  7  2       -2 0.102108471897D-02 0.100000000000D+01
-.540394924413D-05 0.000000000000D+00 -.375366064559D-06 0.108868361925D-04 0.000000000000D+00  7 2 -2 24 -11 11 -24 21 2 0.21417722D+00 0.40887091D-01 0.32609442D+06 0.32609442D+06 0.32609442D+06 0.10818821D+01  1  2  3  2  7  2       -2 -.660752667005D-04 0.100000000000D+01
0.618128991186D-05 0.000000000000D+00 0.000000000000D+00 0.108868361925D-04 0.000000000000D+00  7 2 -2 24 -11 11 -24 21 2 0.21417722D+00 0.40887091D-01 0.32609442D+06 0.32609442D+06 0.32609442D+06 0.10818821D+01  1  2 15  2  7  2       -2 0.755799806822D-04 0.100000000000D+01
-.218524206724D-04 0.000000000000D+00 0.000000000000D+00 0.108868361925D-04 0.000000000000D+00  7 2 -2 24 -11 11 -24 21 2 0.21417722D+00 0.40887091D-01 0.32609442D+06 0.32609442D+06 0.32609442D+06 0.10818821D+01  1  2  4  2  7  2       -2 -.267194316369D-03 0.100000000000D+01
  </mgrwgt>
  </event>
  <event>
  8     66 0.26993063E-05 0.19136785E+03 0.75467711E-02 0.96999855E-01
        2 -1    0    0  501    0 0.00000000E+00 0.00000000E+00 0.20127553E+04 0.20127553E+04 0.32000000E+00 0.0000E+00 0.9000E+01
       -2 -1    0    0    0  501 0.00000000E+00 0.00000000E+00 -.21334055E+02 0.21336454E+02 0.32000000E+00 0.0000E+00 0.9000E+01
       25  2    1    2    0    0 0.42026964E+02 0.18494918E+02 0.14255136E+04 0.14574405E+04 0.29989253E+03 0.0000E+00 0.0000E+00
       23  2    1    2    0    0 -.42026964E+02 -.18494918E+02 0.56590765E+03 0.57665126E+03 0.10083094E+03 0.0000E+00 0.0000E+00
       24  1    3    3    0    0 -.94346373E+02 -.20756747E+02 0.40759172E+03 0.42653289E+03 0.80419002E+02 0.0000E+00 0.9000E+01
      -11  1    4    4    0    0 -.54137302E+02 0.16743119E+02 0.47552111E+03 0.47888569E+03 0.51099893E-03 0.0000E+00 0.9000E+01
       11  1    4    4    0    0 0.12110338E+02 -.35238038E+02 0.90386535E+02 0.97765563E+02 0.51099893E-03 0.0000E+00 0.9000E+01
      -24  1    3    3    0    0 0.13637334E+03 0.39251665E+02 0.10179219E+04 0.10309076E+04 0.80419002E+02 0.0000E+00 0.9000E+01
#aMCatNLO 1  0  0  1  2 0.32566640D+03 0.00000000D+00  -5  7  0 0.00000000D+00 0.00000000D+00 0.00000000D+00 0.00000000D+00 0.00000000D+00
  <mgrwgt>
 0.2585777839D-02    3    2    0
 0.207226199866280D+03 0.000000000000000D+00 0.000000000000000D+00 0.207226199866280D+03
 0.207226199866280D+03 0.000000000000000D+00 0.000000000000000D+00 -.207226199866280D+03
 0.134925591599182D+03 -.943463702724811D+02 -.207567456213718D+02 -.490471124699124D+02
 0.654709879470974D+02 -.541373044594580D+02 0.167431172794260D+02 0.327913182473702D+02
 0.455214191929547D+02 0.121103355903568D+02 -.352380378436524D+02 -.261499534638010D+02
 0.168534400993325D+03 0.136373339141582D+03 0.392516661855983D+02 0.424057476863432D+02
 0.000000000000000D+00 -.000000000000000D+00 0.000000000000000D+00 -.000000000000000D+00
 0.326176215727647D+03 0.000000000000000D+00 0.000000000000000D+00 0.326176215727647D+03
 0.686910973504295D+03 0.000000000000000D+00 0.000000000000000D+00 -.686910973504295D+03
 0.107937515068986D+03 -.157129582941998D+02 -.503068077391666D+02 -.490471124699124D+02
 0.388162953709985D+02 -.203715134105434D+02 0.405409364622170D+01 0.327913182473702D+02
 0.765417220662001D+02 0.516315350251836D+02 -.500899165665476D+02 -.261499534638010D+02
 0.303799711868319D+03 0.289304113179621D+03 -.182189911196535D+02 0.424057476863432D+02
 0.485991944857440D+03 -.304851176500062D+03 0.114561621779146D+03 -.360734757776648D+03
0.896474504627D-05 0.000000000000D+00 0.000000000000D+00 0.635145267890D-08 0.000000000000D+00  7 2 -2 24 -11 11 -24 21 0 0.30965485D+00 0.32823488D-02 0.36621656D+05 0.36621656D+05 0.36621656D+05 0.11593838D+01  1  2  2  1  7  1        2 0.255448219237D-02 0.100000000000D+01
-.494203261872D-06 0.000000000000D+00 -.344269814493D-07 0.635145267890D-08 0.000000000000D+00  7 2 -2 24 -11 11 -24 21 2 0.30965485D+00 0.32823488D-02 0.36621656D+05 0.36621656D+05 0.36621656D+05 0.11593838D+01  1  2  3  1  7  1        2 -.189288827625D-03 0.100000000000D+01
0.575911257942D-06 0.000000000000D+00 0.000000000000D+00 0.635145267890D-08 0.000000000000D+00  7 2 -2 24 -11 11 -24 21 2 0.30965485D+00 0.32823488D-02 0.36621656D+05 0.36621656D+05 0.36621656D+05 0.11593838D+01  1  2 15  1  7  1        2 0.220584474532D-03 0.100000000000D+01
  </mgrwgt>
  </event>
  <event>
  8     66 0.26993063E-05 0.82484256E+02 0.75467711E-02 0.10601517E+00
        2 -1    0    0  501    0 0.00000000E+00 0.00000000E+00 0.36428205E+03 0.36428219E+03 0.32000000E+00 0.0000E+00 0.9000E+01
       -2 -1    0    0    0  501 0.00000000E+00 0.00000000E+00 -.13166892E+03 0.13166931E+03 0.32000000E+00 0.0000E+00 0.9000E+01
       25  2    1    2    0    0 0.82473264E+02 0.28059996E+02 0.16896470E+03 0.35491847E+03 0.29971461E+03 0.0000E+00 0.0000E+00
       23  2    1    2    0    0 -.82473264E+02 -.28059996E+02 0.63648429E+02 0.14103302E+03 0.90829448E+02 0.0000E+00 0.0000E+00
       24  1    3    3    0    0 0.51108520E+02 0.20646653E+02 -.56984864E+02 0.11292854E+03 0.80419002E+02 0.0000E+00 0.9000E+01
      -11  1    4    4    0    0 -.10229726E+03 -.21643163E+02 0.57393914E+02 0.11927790E+03 0.51099893E-03 0.0000E+00 0.9000E+01
       11  1    4    4    0    0 0.19823995E+02 -.64168327E+01 0.62545146E+01 0.21755125E+02 0.51099893E-03 0.0000E+00 0.9000E+01
      -24  1    3    3    0    0 0.31364744E+02 0.74133432E+01 0.22594956E+03 0.24198993E+03 0.80419002E+02 0.0000E+00 0.9000E+01
#aMCatNLO 1  0  0  1  2 0.94400999D+02 0.00000000D+00  -5  7  0 0.00000000D+00 0.00000000D+00 0.00000000D+00 0.00000000D+00 0.00000000D+00
  <mgrwgt>
 0.2091505971D-02    8    2    0
 0.219008572261133D+03 0.000000000000000D+00 0.000000000000000D+00 0.219008572261133D+03
 0.219008572261133D+03 0.000000000000000D+00 0.000000000000000D+00 -.219008572261133D+03
 0.158127388599502D+03 0.511085198067295D+02 0.206466529389459D+02 -.124493734768104D+03
 0.104574615020763D+03 -.102297258782805D+03 -.216431634570529D+02 0.164147124126033D+01
 0.213110484891867D+02 0.198239948358055D+02 -.641683267868294D+01 -.447149581596692D+01
 0.154004092412814D+03 0.313647441402698D+02 0.741334319678995D+01 0.127323759342811D+03
 0.000000000000000D+00 0.000000000000000D+00 0.000000000000000D+00 0.000000000000000D+00
 0.414682698184460D+03 0.000000000000000D+00 0.000000000000000D+00 0.414682698184460D+03
 0.235723160749946D+03 0.000000000000000D+00 0.000000000000000D+00 -.235723160749946D+03
 0.152138480930468D+03 0.335559856441590D+02 -.736255773476919D+01 -.124493734768104D+03
 0.122635554761301D+03 -.115151119483709D+03 -.421545317305835D+02 0.164147124126033D+01
 0.207034829155121D+02 0.174471252854339D+02 -.102096889901244D+02 -.447149581596692D+01
 0.152596769305651D+03 0.140195488477947D+02 -.202650093774868D+02 0.127323759342811D+03
 0.202331571021474D+03 0.501284597063214D+02 0.799917878329639D+02 0.178959537434514D+03
0.426900066256D-05 0.000000000000D+00 0.000000000000D+00 0.324529394914D-06 0.000000000000D+00  7 2 -2 24 -11 11 -24 21 0 0.56043433D-01 0.20256798D-01 0.23952465D+05 0.23952465D+05 0.23952465D+05 0.11765174D+01  1  2  2  1  7  1        2 0.865853675120D-03 0.100000000000D+01
-.202405991949D-06 0.000000000000D+00 -.163940865979D-07 0.324529394914D-06 0.000000000000D+00  7 2 -2 24 -11 11 -24 21 2 0.56043433D-01 0.20256798D-01 0.23952465D+05 0.23952465D+05 0.23952465D+05 0.11765174D+01  1  2  3  1  7  1        2 -.568248607612D-04 0.100000000000D+01
0.272981862021D-06 0.000000000000D+00 0.000000000000D+00 0.324529394914D-06 0.000000000000D+00  7 2 -2 24 -11 11 -24 21 2 0.56043433D-01 0.20256798D-01 0.23952465D+05 0.23952465D+05 0.23952465D+05 0.11765174D+01  1  2 15  1  7  1        2 0.766388195839D-04 0.100000000000D+01
0.274699906430D-05 0.000000000000D+00 0.000000000000D+00 0.324529394914D-06 0.000000000000D+00  7 2 -2 24 -11 11 -24 21 2 0.10649166D+00 0.20256798D-01 0.41779286D+05 0.41779286D+05 0.41779286D+05 0.11542209D+01  1  2 12  1  7  1        2 0.367248966237D-03 0.100000000000D+01
-.622487240200D-05 0.000000000000D+00 -.144955958684D-05 0.324529394914D-06 0.000000000000D+00  7 2 -2 24 -11 11 -24 21 2 0.11043984D+00 0.20256798D-01 0.23952465D+05 0.23952465D+05 0.23952465D+05 0.11765174D+01  1  2  5  1  7  1        2 -.828332291486D-03 0.100000000000D+01
0.604327251279D-05 0.000000000000D+00 0.116991090789D-05 0.324529394914D-06 0.000000000000D+00  7 2 -2 24 -11 11 -24 21 2 0.56043433D-01 0.20256798D-01 0.23952465D+05 0.23952465D+05 0.23952465D+05 0.11765174D+01  1  2  6  1  7  1        2 0.169663020237D-02 0.100000000000D+01
0.191606306173D-06 0.000000000000D+00 0.000000000000D+00 0.324529394914D-06 0.000000000000D+00  7 21 -2 24 -11 11 -24 -2 2 0.10649166D+00 0.20256798D-01 0.41779286D+05 0.41779286D+05 0.41779286D+05 0.11542209D+01  1  2 12  3  7  1        2 0.338060622252D-04 0.100000000000D+01
-.371367009909D-06 0.000000000000D+00 -.106479538803D-06 0.324529394914D-06 0.000000000000D+00  7 21 -2 24 -11 11 -24 -2 2 0.11043984D+00 0.20256798D-01 0.23952465D+05 0.23952465D+05 0.23952465D+05 0.11765174D+01  1  2  5  3  7  1        2 -.635146019879D-04 0.100000000000D+01
  </mgrwgt>
  </event>
  <event>
  9     66 0.26993063E-05 0.18183948E+03 0.75467711E-02 0.10452500E+00
        2 -1    0    0  502    0 0.00000000E+00 0.00000000E+00 0.56436106E+03 0.56436115E+03 0.32000000E+00 0.0000E+00 0.9000E+01
       -2 -1    0    0    0  501 0.00000000E+00 0.00000000E+00 -.20208393E+03 0.20208418E+03 0.32000000E+00 0.0000E+00 0.9000E+01
       25  2    1    2    0    0 -.12163725E+02 -.11131761E+03 0.43147562E+03 0.53715254E+03 0.29970331E+03 0.0000E+00 0.0000E+00
       23  2    1    2    0    0 -.32998502E+02 0.19148860E+02 -.81205423E+02 0.12595144E+03 0.88396072E+02 0.0000E+00 0.0000E+00
       24  1    3    3    0    0 -.39064363E+02 -.14621898E+03 0.11190390E+03 0.20468442E+03 0.80419002E+02 0.0000E+00 0.9000E+01
      -11  1    4    4    0    0 -.38085538E+01 0.47692115E+02 -.67799177E+02 0.82980548E+02 0.51099893E-03 0.0000E+00 0.9000E+01
       11  1    4    4    0    0 -.29189948E+02 -.28543255E+02 -.13406246E+02 0.42970896E+02 0.51099893E-03 0.0000E+00 0.9000E+01
      -24  1    3    3    0    0 0.26900638E+02 0.34901365E+02 0.31957172E+03 0.33246812E+03 0.80419002E+02 0.0000E+00 0.9000E+01
       21  1    1    2  502  501 0.45162226E+02 0.92168752E+02 0.12006938E+02 0.10334135E+03 0.75000000E+00 0.0000E+00 0.9000E+01
#aMCatNLO 2  0  0  1  1 0.10263871D+03 0.00000000D+00  -5  7  0 0.00000000D+00 0.00000000D+00 0.00000000D+00 0.00000000D+00 0.00000000D+00
  <mgrwgt>
 0.1727044025D-03    1    2    0
 0.276804523621432D+03 0.000000000000000D+00 0.000000000000000D+00 0.276804523621432D+03
 0.276804523621432D+03 0.000000000000000D+00 0.000000000000000D+00 -.276804523621432D+03
 0.146835389356670D+03 -.261917691026130D+02 -.119948107770057D+03 0.445626377278020D+01
 0.149918942964703D+03 0.791318868882690D+01 0.716142830151424D+02 -.131470397324478D+03
 0.528186839599717D+02 -.246696429181274D+02 -.193180483817993D+02 -.425209959934375D+02
 0.204036030961520D+03 0.429482233319135D+02 0.676518731367134D+02 0.169535129545135D+03
 0.000000000000000D+00 0.000000000000000D+00 0.000000000000000D+00 -.000000000000000D+00
 0.313564906330295D+03 0.000000000000000D+00 0.000000000000000D+00 0.313564906330295D+03
 0.363712814816568D+03 0.000000000000000D+00 0.000000000000000D+00 -.363712814816568D+03
 0.171444124391075D+03 -.390643630913817D+02 -.146218976481523D+03 0.445626377278020D+01
 0.139905354677565D+03 -.380855383773063D+01 0.476921147828902D+02 -.131470397324478D+03
 0.589474813735216D+02 -.291899478886821D+02 -.285432549346387D+02 -.425209959934375D+02
 0.192746272940759D+03 0.269006384907780D+02 0.349013649745343D+02 0.169535129545135D+03
 0.114234487763942D+03 0.451622263270164D+02 0.921687516587371D+02 -.501479084862726D+02
0.214031562374D-05 0.000000000000D+00 0.000000000000D+00 0.192829799282D-06 0.135493178683D-09  7 2 -2 24 -11 11 -24 21 2 0.86824479D-01 0.31089745D-01 0.51618788D+05 0.51618788D+05 0.51618788D+05 0.11460802D+01  1  2  1  1  7  1        2 0.172704402486D-03 0.100000000000D+01
  </mgrwgt>
  </event>
  <event>
  8     66 0.26993063E-05 0.41638115E+03 0.75467711E-02 0.86311251E-01
        2 -1    0    0  501    0 0.00000000E+00 0.00000000E+00 0.10241767E+04 0.10241767E+04 0.32000000E+00 0.0000E+00 0.9000E+01
       -2 -1    0    0    0  501 0.00000000E+00 0.00000000E+00 -.28625078E+03 0.28625096E+03 0.32000000E+00 0.0000E+00 0.9000E+01
       25  2    1    2    0    0 -.23823246E+03 0.27613789E+03 0.80039973E+03 0.92928037E+03 0.29985904E+03 0.0000E+00 0.0000E+00
       23  2    1    2    0    0 0.23823246E+03 -.27613789E+03 -.62473861E+02 0.38114729E+03 0.91451801E+02 0.0000E+00 0.0000E+00
       24  1    3    3    0    0 -.20534979E+03 0.63873289E+02 0.50945993E+03 0.55880674E+03 0.80419002E+02 0.0000E+00 0.9000E+01
      -13  1    4    4    0    0 0.70772204E+02 -.31795259E+02 -.29873040E+02 0.83138758E+02 0.10565837E+00 0.0000E+00 0.9000E+01
       13  1    4    4    0    0 0.16746026E+03 -.24434264E+03 -.32600821E+02 0.29800853E+03 0.10565837E+00 0.0000E+00 0.9000E+01
      -24  1    3    3    0    0 -.32882676E+02 0.21226461E+03 0.29093980E+03 0.37047363E+03 0.80419002E+02 0.0000E+00 0.9000E+01
#aMCatNLO 1  0  0  1  1 0.10065867D+04 0.00000000D+00  -5  7  0 0.00000000D+00 0.00000000D+00 0.00000000D+00 0.00000000D+00 0.00000000D+00
  <mgrwgt>
 0.1296635156D-02    3    2    0
 0.541453155390011D+03 0.000000000000000D+00 0.000000000000000D+00 0.541453155390011D+03
 0.541453155390011D+03 0.000000000000000D+00 0.000000000000000D+00 -.541453155390011D+03
 0.329051684504365D+03 -.205349786136126D+03 0.638732892208097D+02 0.235710549994590D+03
 0.120962485677791D+03 0.707720750948825D+02 -.317949753848559D+02 -.928025639106510D+02
 0.382836437715701D+03 0.167460387054388D+03 -.244342919485652D+03 -.242522771111643D+03
 0.250055702882165D+03 -.328826760131444D+02 0.212264605649699D+03 0.996147850277043D+02
 0.000000000000000D+00 0.000000000000000D+00 -.000000000000000D+00 -.000000000000000D+00
 0.940379840143299D+03 0.000000000000000D+00 0.000000000000000D+00 0.940379840143299D+03
 0.199858328544101D+04 0.000000000000000D+00 0.000000000000000D+00 -.199858328544101D+04
 0.534001803547438D+03 -.251424187786613D+03 0.399896392400126D+03 0.235710549994590D+03
 0.126932013892730D+03 0.575381435966842D+02 0.647208027910737D+02 -.928025639106510D+02
 0.276519780819639D+03 0.132260432863692D+03 0.123722502229554D+02 -.242522771111643D+03
 0.541026298983506D+03 -.751148555906894D+02 0.520266175443775D+03 0.996147850277043D+02
 0.146048322834100D+04 0.136740466916926D+03 -.997255620857931D+03 -.105820344529771D+04
0.844691157515D-04 0.000000000000D+00 0.000000000000D+00 0.502740029061D-05 0.000000000000D+00  7 2 -2 24 -13 13 -24 21 0 0.15756566D+00 0.44038600D-01 0.17337327D+06 0.17337327D+06 0.17337327D+06 0.11026229D+01  1  2  2  1  7  1        2 0.127695519606D-02 0.100000000000D+01
-.429910619449D-05 0.000000000000D+00 -.324383645715D-06 0.502740029061D-05 0.000000000000D+00  7 2 -2 24 -13 13 -24 21 2 0.15756566D+00 0.44038600D-01 0.17337327D+06 0.17337327D+06 0.17337327D+06 0.11026229D+01  1  2  3  1  7  1        2 -.790150583742D-04 0.100000000000D+01
0.536986714936D-05 0.000000000000D+00 0.000000000000D+00 0.502740029061D-05 0.000000000000D+00  7 2 -2 24 -13 13 -24 21 2 0.15756566D+00 0.44038600D-01 0.17337327D+06 0.17337327D+06 0.17337327D+06 0.11026229D+01  1  2 15  1  7  1        2 0.986950187022D-04 0.100000000000D+01
  </mgrwgt>
  </event>
  <event>
  8     66 0.26993063E-05 0.24164895E+03 0.75467711E-02 0.94594732E-01
        2 -1    0    0  501    0 0.00000000E+00 0.00000000E+00 0.73618988E+03 0.73618995E+03 0.32000000E+00 0.0000E+00 0.9000E+01
       -2 -1    0    0    0  501 0.00000000E+00 0.00000000E+00 -.88440431E+02 0.88441010E+02 0.32000000E+00 0.0000E+00 0.9000E+01
       25  2    1    2    0    0 0.15431525E+03 -.30354706E+02 0.41770056E+03 0.53199680E+03 0.28950343E+03 0.0000E+00 0.0000E+00
       23  2    1    2    0    0 -.15431525E+03 0.30354706E+02 0.23004889E+03 0.29263416E+03 0.89317709E+02 0.0000E+00 0.0000E+00
       24  1    3    3    0    0 0.22818008E+02 0.92521773E+02 0.21959421E+03 0.25252678E+03 0.80419002E+02 0.0000E+00 0.9000E+01
      -11  1    4    4    0    0 -.96941613E+02 0.80102808E+00 0.19825787E+03 0.22069097E+03 0.51099893E-03 0.0000E+00 0.9000E+01
       11  1    4    4    0    0 -.57373638E+02 0.29553677E+02 0.31791020E+02 0.71943194E+02 0.51099893E-03 0.0000E+00 0.9000E+01
      -24  1    3    3    0    0 0.13149724E+03 -.12287648E+03 0.19810634E+03 0.27947002E+03 0.80419002E+02 0.0000E+00 0.9000E+01
#aMCatNLO 1  0  0  1  2 0.38634623D+03 0.00000000D+00  -5  7  0 0.00000000D+00 0.00000000D+00 0.00000000D+00 0.00000000D+00 0.00000000D+00
  <mgrwgt>
 0.1841098297D-02    3    2    0
 0.255165079928318D+03 0.000000000000000D+00 0.000000000000000D+00 0.255165079928318D+03
 0.255165079928318D+03 0.000000000000000D+00 0.000000000000000D+00 -.255165079928318D+03
 0.129326807061437D+03 0.228180076789317D+02 0.925217729220180D+02 0.343113265739807D+02
 0.104965724030377D+03 -.969416132855167D+02 0.801028088988229D+00 0.402428277935740D+02
 0.758998240555423D+02 -.573736377814386D+02 0.295536774239825D+02 -.399453267617845D+02
 0.200137804709280D+03 0.131497243388024D+03 -.122876478434989D+03 -.346088276057702D+02
 0.000000000000000D+00 -.000000000000000D+00 -.000000000000000D+00 -.000000000000000D+00
 0.448249268422742D+03 0.000000000000000D+00 0.000000000000000D+00 0.448249268422742D+03
 0.611091540190545D+03 0.000000000000000D+00 0.000000000000000D+00 -.611091540190545D+03
 0.230548549932955D+03 0.878196223625476D+02 0.194411585865274D+03 0.343113265739807D+02
 0.926923772171224D+02 -.612400975060260D+02 0.567630342986567D+02 0.402428277935740D+02
 0.906983434674736D+02 -.272822472989935D+02 0.767218310518893D+02 -.399453267617845D+02
 0.226139070720712D+03 0.208492471504374D+03 -.218671667318443D+01 -.346088276057702D+02
 0.419262467275025D+03 -.207789749061902D+03 -.325709734542635D+03 -.162842271767803D+03
0.102837107421D-04 0.000000000000D+00 0.000000000000D+00 0.604580090241D-09 0.000000000000D+00  7 2 -2 24 -11 11 -24 21 0 0.11326003D+00 0.13606270D-01 0.58394215D+05 0.58394215D+05 0.58394215D+05 0.11414137D+01  1  2  2  1  7  1        2 0.181689188977D-02 0.100000000000D+01
-.569259714481D-06 0.000000000000D+00 -.394921570129D-07 0.604580090241D-09 0.000000000000D+00  7 2 -2 24 -11 11 -24 21 2 0.11326003D+00 0.13606270D-01 0.58394215D+05 0.58394215D+05 0.58394215D+05 0.11414137D+01  1  2  3  1  7  1        2 -.131031541048D-03 0.100000000000D+01
0.674423190154D-06 0.000000000000D+00 0.000000000000D+00 0.604580090241D-09 0.000000000000D+00  7 2 -2 24 -11 11 -24 21 2 0.11326003D+00 0.13606270D-01 0.58394215D+05 0.58394215D+05 0.58394215D+05 0.11414137D+01  1  2 15  1  7  1        2 0.155237947946D-03 0.100000000000D+01
  </mgrwgt>
  </event>
  <event>
  8     66 0.26993063E-05 0.19155883E+03 0.75467711E-02 0.91378559E-01
        2 -1    0    0  501    0 0.00000000E+00 0.00000000E+00 0.25140074E+04 0.25140074E+04 0.32000000E+00 0.0000E+00 0.9000E+01
       -2 -1    0    0    0  501 0.00000000E+00 0.00000000E+00 -.37153097E+02 0.37154475E+02 0.32000000E+00 0.0000E+00 0.9000E+01
       25  2    1    2    0    0 0.99116738E+02 0.36829597E+02 0.23090359E+04 0.23308197E+04 0.29982205E+03 0.0000E+00 0.0000E+00
       23  2    1    2    0    0 -.99116738E+02 -.36829597E+02 0.16781839E+03 0.22034215E+03 0.95953668E+02 0.0000E+00 0.0000E+00
       24  1    3    3    0    0 0.10606784E+03 0.99882382E+02 0.74167911E+03 0.76011972E+03 0.80419002E+02 0.0000E+00 0.9000E+01
      -11  1    4    4    0    0 -.45637155E+02 0.56398210E+01 0.81749344E+01 0.46705322E+02 0.51099893E-03 0.0000E+00 0.9000E+01
       11  1    4    4    0    0 -.53479583E+02 -.42469418E+02 0.15964345E+03 0.17363683E+03 0.51099893E-03 0.0000E+00 0.9000E+01
      -24  1    3    3    0    0 -.69511058E+01 -.63052784E+02 0.15673568E+04 0.15707000E+04 0.80419002E+02 0.0000E+00 0.9000E+01
#aMCatNLO 1  0  0  2  2 0.60360726D+03 0.00000000D+00  -5  7  0 0.00000000D+00 0.00000000D+00 0.00000000D+00 0.00000000D+00 0.00000000D+00
  <mgrwgt>
 0.1274393627D-02    5    2    0
 0.305622224655542D+03 0.000000000000000D+00 0.000000000000000D+00 0.305622224655542D+03
 0.305622224655542D+03 0.000000000000000D+00 0.000000000000000D+00 -.305622224655542D+03
 0.167130159309961D+03 0.106067843714449D+03 0.998823817440962D+02 0.154400953201802D+02
 0.161808774765128D+03 -.456371553583275D+02 0.563982092091133D+01 -.155137107301161D+03
 0.778119052130070D+02 -.534795825840174D+02 -.424694182876654D+02 -.372957819307299D+02
 0.204493610022989D+03 -.695110577210399D+01 -.630527843773422D+02 0.176992793911710D+03
 0.000000000000000D+00 -.000000000000000D+00 0.000000000000000D+00 -.000000000000000D+00
 0.672779413225332D+03 0.000000000000000D+00 0.000000000000000D+00 0.672779413225332D+03
 0.803966145435804D+03 0.000000000000000D+00 0.000000000000000D+00 -.803966145435804D+03
 0.138006692878786D+03 0.108150831954776D+03 -.253699099123847D+02 0.154400953201802D+02
 0.221089127495096D+03 -.430233385678188D+02 -.151531754339643D+03 -.155137107301161D+03
 0.150412185619782D+03 -.519216321301340D+02 -.136150631104076D+03 -.372957819307299D+02
 0.349538851554103D+03 -.316905488593099D+01 -.290471514585935D+03 0.176992793911710D+03
 0.617698701113370D+03 -.100368063708921D+02 0.603523809942040D+03 -.131186732210473D+03
0.158189508894D-04 0.000000000000D+00 0.000000000000D+00 0.137429262192D-06 0.000000000000D+00  7 2 -2 24 -11 11 -24 21 0 0.38677048D+00 0.57159686D-02 0.36694784D+05 0.36694784D+05 0.36694784D+05 0.11593051D+01  1  2  2  2  7  2       -2 0.106572690096D-02 0.100000000000D+01
-.645641449028D-06 0.000000000000D+00 -.607489366406D-07 0.137429262192D-06 0.000000000000D+00  7 2 -2 24 -11 11 -24 21 2 0.38677048D+00 0.57159686D-02 0.36694784D+05 0.36694784D+05 0.36694784D+05 0.11593051D+01  1  2  3  2  7  2       -2 -.584595045361D-04 0.100000000000D+01
0.979193521474D-06 0.000000000000D+00 0.000000000000D+00 0.137429262192D-06 0.000000000000D+00  7 2 -2 24 -11 11 -24 21 2 0.38677048D+00 0.57159686D-02 0.36694784D+05 0.36694784D+05 0.36694784D+05 0.11593051D+01  1  2 15  2  7  2       -2 0.886609250328D-04 0.100000000000D+01
0.693608864443D-04 0.000000000000D+00 -.173095753720D-04 0.137429262192D-06 0.000000000000D+00  7 2 -2 24 -11 11 -24 21 2 0.38677048D+00 0.91797365D-01 0.36694784D+05 0.36694784D+05 0.36694784D+05 0.11593051D+01  1  2  5  2  7  2       -2 0.505659564780D-04 0.100000000000D+01
0.174763013229D-04 0.000000000000D+00 -.535531522438D-05 0.137429262192D-06 0.000000000000D+00  7 2 21 24 -11 11 -24 2 2 0.38677048D+00 0.91797365D-01 0.36694784D+05 0.36694784D+05 0.36694784D+05 0.11593051D+01  1  2  5  4  7  2       -2 0.127899348921D-03 0.100000000000D+01
  </mgrwgt>
  </event>
  <event>
  8     66 0.26993063E-05 0.30458878E+03 0.75467711E-02 0.92011957E-01
        2 -1    0    0  501    0 0.00000000E+00 0.00000000E+00 0.11704514E+04 0.11704514E+04 0.32000000E+00 0.0000E+00 0.9000E+01
       -2 -1    0    0    0  501 0.00000000E+00 0.00000000E+00 -.83653101E+02 0.83653713E+02 0.32000000E+00 0.0000E+00 0.9000E+01
       25  2    1    2    0    0 0.42056473E+02 -.21859876E+03 0.52895612E+03 0.64661083E+03 0.29792083E+03 0.0000E+00 0.0000E+00
       23  2    1    2    0    0 -.42056473E+02 0.21859876E+03 0.55784215E+03 0.60749431E+03 0.91144360E+02 0.0000E+00 0.0000E+00
       24  1    3    3    0    0 0.14748149E+03 -.11836348E+03 0.30262940E+03 0.36580387E+03 0.80419002E+02 0.0000E+00 0.9000E+01
      -11  1    4    4    0    0 -.45554535E+02 0.45688772E+02 0.11155600E+03 0.12886978E+03 0.51099893E-03 0.0000E+00 0.9000E+01
       11  1    4    4    0    0 0.34980627E+01 0.17290999E+03 0.44628616E+03 0.47862453E+03 0.51099893E-03 0.0000E+00 0.9000E+01
      -24  1    3    3    0    0 -.10542502E+03 -.10023528E+03 0.22632673E+03 0.28080696E+03 0.80419002E+02 0.0000E+00 0.9000E+01
#aMCatNLO 1  0  0  1  1 0.48695354D+03 0.00000000D+00  -5  7  0 0.00000000D+00 0.00000000D+00 0.00000000D+00 0.00000000D+00 0.00000000D+00
  <mgrwgt>
 0.5734397765D-03    5    2    0
 0.312909410235301D+03 0.000000000000000D+00 0.000000000000000D+00 0.312909410235301D+03
 0.312909410235301D+03 0.000000000000000D+00 0.000000000000000D+00 -.312909410235301D+03
 0.207503195976386D+03 0.147481490089707D+03 -.118363481808879D+03 -.288037608836552D+02
 0.645192915987240D+02 -.455545352200868D+02 0.456887724073217D+02 -.243690777439234D+00
 0.184114706293605D+03 0.349806270488823D+01 0.172909992276989D+03 0.631515890668226D+02
 0.169681626601887D+03 -.105425017574508D+03 -.100235282875431D+03 -.341041374057282D+02
 0.000000000000000D+00 0.000000000000000D+00 -.000000000000000D+00 0.000000000000000D+00
 0.819889768514827D+03 0.000000000000000D+00 0.000000000000000D+00 0.819889768514827D+03
 0.536483141204510D+03 0.000000000000000D+00 0.000000000000000D+00 -.536483141204510D+03
 0.122341492371476D+03 0.840600994198730D+02 -.245859278000197D+02 -.288037608836552D+02
 0.131055842624552D+03 -.831590425262598D+02 0.101292389383172D+03 -.243690777439234D+00
 0.343208388154496D+03 -.978937897749315D+02 0.322832279088451D+03 0.631515890668226D+02
 0.196346323612711D+03 -.175803600121687D+03 0.382946966592711D+01 -.341041374057282D+02
 0.563420862956101D+03 0.272796333003005D+03 -.403368210337531D+03 0.283406627310317D+03
0.549430562602D-05 0.000000000000D+00 0.000000000000D+00 0.698755119270D-07 0.000000000000D+00  7 2 -2 24 -11 11 -24 21 0 0.18006949D+00 0.12869758D-01 0.92774323D+05 0.92774323D+05 0.92774323D+05 0.11244048D+01  1  2  2  1  7  1        2 0.566239429470D-03 0.100000000000D+01
-.304969628799D-06 0.000000000000D+00 -.210995802878D-07 0.698755119270D-07 0.000000000000D+00  7 2 -2 24 -11 11 -24 21 2 0.18006949D+00 0.12869758D-01 0.92774323D+05 0.92774323D+05 0.92774323D+05 0.11244048D+01  1  2  3  1  7  1        2 -.397364691303D-04 0.100000000000D+01
0.358593681963D-06 0.000000000000D+00 0.000000000000D+00 0.698755119270D-07 0.000000000000D+00  7 2 -2 24 -11 11 -24 21 2 0.18006949D+00 0.12869758D-01 0.92774323D+05 0.92774323D+05 0.92774323D+05 0.11244048D+01  1  2 15  1  7  1        2 0.467234944992D-04 0.100000000000D+01
0.427815442216D-07 0.000000000000D+00 -.162745140922D-05 0.698755119270D-07 0.000000000000D+00  7 2 -2 24 -11 11 -24 21 2 0.55834213D+00 0.12869758D-01 0.92774323D+05 0.92774323D+05 0.92774323D+05 0.11244048D+01  1  2  5  1  7  1        2 0.201366371969D-06 0.100000000000D+01
0.815399054150D-07 0.000000000000D+00 -.210855224372D-06 0.698755119270D-07 0.000000000000D+00  7 21 -2 24 -11 11 -24 -2 2 0.55834213D+00 0.12869758D-01 0.92774323D+05 0.92774323D+05 0.92774323D+05 0.11244048D+01  1  2  5  3  7  1        2 0.119553058390D-07 0.100000000000D+01
  </mgrwgt>
  </event>
  <event>
  9     66 0.26993063E-05 0.35009078E+03 0.75467711E-02 0.97120366E-01
        2 -1    0    0  502    0 0.00000000E+00 0.00000000E+00 0.63770019E+03 0.63770027E+03 0.32000000E+00 0.0000E+00 0.9000E+01
       -2 -1    0    0    0  501 0.00000000E+00 0.00000000E+00 -.52822969E+03 0.52822979E+03 0.32000000E+00 0.0000E+00 0.9000E+01
       25  2    1    2    0    0 0.28738469E+03 -.15804368E+03 -.30866101E+03 0.54277086E+03 0.30292049E+03 0.0000E+00 0.0000E+00
       23  2    1    2    0    0 -.18269961E+03 0.16069019E+03 0.44389391E+03 0.51531563E+03 0.96477517E+02 0.0000E+00 0.0000E+00
       24  1    3    3    0    0 0.15426435E+01 -.12190529E+03 -.82257363E+02 0.16762091E+03 0.80419002E+02 0.0000E+00 0.9000E+01
      -11  1    4    4    0    0 -.95731698E+02 0.30073450E+02 0.12846788E+03 0.16301217E+03 0.51099893E-03 0.0000E+00 0.9000E+01
       11  1    4    4    0    0 -.86967916E+02 0.13061674E+03 0.31542603E+03 0.35230346E+03 0.51099893E-03 0.0000E+00 0.9000E+01
      -24  1    3    3    0    0 0.28584205E+03 -.36138396E+02 -.22640365E+03 0.37514996E+03 0.80419002E+02 0.0000E+00 0.9000E+01
       21  1    1    2  502  501 -.10468508E+03 -.26465013E+01 -.25762402E+02 0.10784356E+03 0.75000000E+00 0.0000E+00 0.9000E+01
#aMCatNLO 2  0  0  1  1 0.10471853D+03 0.00000000D+00  -5  7  0 0.00000000D+00 0.00000000D+00 0.00000000D+00 0.00000000D+00 0.00000000D+00
  <mgrwgt>
 0.3120053847D-03    1    2    0
 0.522085510886530D+03 0.000000000000000D+00 0.000000000000000D+00 0.522085510886530D+03
 0.522085510886530D+03 0.000000000000000D+00 0.000000000000000D+00 -.522085510886530D+03
 0.180662407789286D+03 -.164718799694322D+02 -.122360706025607D+03 -.104538148180649D+03
 0.158067955668838D+03 -.111026234527744D+03 0.296867945569256D+02 0.108523490935608D+03
 0.324535080930688D+03 -.118924978973667D+03 0.129808842337700D+03 0.272634430294024D+03
 0.380905577384249D+03 0.246423093470843D+03 -.371349308690179D+02 -.276619773048983D+03
 0.000000000000000D+00 -.000000000000000D+00 -.000000000000000D+00 -.000000000000000D+00
 0.560794454598037D+03 0.000000000000000D+00 0.000000000000000D+00 0.560794454598037D+03
 0.600667143380550D+03 0.000000000000000D+00 0.000000000000000D+00 -.600667143380550D+03
 0.179607125142255D+03 0.154264353217467D+01 -.121905288127252D+03 -.104538148180649D+03
 0.147805001380992D+03 -.957316978833499D+02 0.300734495652738D+02 0.108523490935608D+03
 0.314569042749983D+03 -.869679157095713D+02 0.130616735956869D+03 0.272634430294024D+03
 0.407427756179579D+03 0.285842050852632D+03 -.361383961161249D+02 -.276619773048983D+03
 0.112052672525778D+03 -.104685080791886D+03 -.264650127876603D+01 -.398726887825136D+02
0.325741554222D-04 0.000000000000D+00 0.000000000000D+00 0.124577014834D-07 0.747367759508D-11  7 2 -2 24 -11 11 -24 21 2 0.98107520D-01 0.81265942D-01 0.16287821D+06 0.16287821D+06 0.16287821D+06 0.11047400D+01  1  2  1  1  7  1        2 0.312005384725D-03 0.100000000000D+01
  </mgrwgt>
  </event>
  <event>
  9     66 0.26993063E-05 0.21275273E+03 0.75467711E-02 0.10267447E+00
        2 -1    0    0  501    0 0.00000000E+00 0.00000000E+00 0.20427996E+04 0.20427996E+04 0.32000000E+00 0.0000E+00 0.9000E+01
       -2 -1    0    0    0  502 0.00000000E+00 0.00000000E+00 -.71447339E+02 0.71448056E+02 0.32000000E+00 0.0000E+00 0.9000E+01
       25  2    1    2    0    0 -.11142017E+02 -.95684842E+02 0.36773766E+03 0.48467998E+03 0.30067251E+03 0.0000E+00 0.0000E+00
       23  2    1    2    0    0 -.44519985E+02 0.16036228E+03 0.13164647E+04 0.13300063E+04 0.90217872E+02 0.0000E+00 0.0000E+00
       24  1    3    3    0    0 -.21310853E+02 -.14772280E+03 0.92624095E+02 0.19319062E+03 0.80419002E+02 0.0000E+00 0.9000E+01
      -11  1    4    4    0    0 -.24719448E+02 0.13397780E+03 0.12289876E+04 0.12365159E+04 0.51099893E-03 0.0000E+00 0.9000E+01
       11  1    4    4    0    0 -.19800537E+02 0.26384476E+02 0.87477180E+02 0.93490421E+02 0.51099893E-03 0.0000E+00 0.9000E+01
      -24  1    3    3    0    0 0.10168836E+02 0.52037954E+02 0.27511357E+03 0.29148936E+03 0.80419002E+02 0.0000E+00 0.9000E+01
       21  1    1    2  501  502 0.55662001E+02 -.64677438E+02 0.28714987E+03 0.29956141E+03 0.75000000E+00 0.0000E+00 0.9000E+01
#aMCatNLO 2  0  0  2  2 0.85331292D+02 0.00000000D+00  -5  7  0 0.00000000D+00 0.00000000D+00 0.00000000D+00 0.00000000D+00 0.00000000D+00
  <mgrwgt>
 0.2588156429D-03    1    2    0
 0.335136962745808D+03 0.000000000000000D+00 0.000000000000000D+00 0.335136962745808D+03
 0.335136962745808D+03 0.000000000000000D+00 0.000000000000000D+00 -.335136962745808D+03
 0.302787809452605D+03 0.312026822447529D+01 -.176110965628168D+03 -.232784091618087D+03
 0.244651215249029D+03 -.395080830717860D+01 0.109845319462520D+03 0.218569471859003D+03
 0.291192743117829D+02 -.172298266789064D+02 0.233973941329380D+02 0.190450960818362D+01
 0.937156264782005D+02 0.180603667616097D+02 0.428682520327093D+02 0.123101101509013D+02
 0.000000000000000D+00 0.000000000000000D+00 -.000000000000000D+00 0.000000000000000D+00
 0.394491267938500D+03 0.000000000000000D+00 0.000000000000000D+00 0.394491267938500D+03
 0.369975643735963D+03 0.000000000000000D+00 0.000000000000000D+00 -.369975643735963D+03
 0.287978864287507D+03 -.213108527740538D+02 -.147722796363785D+03 -.232784091618087D+03
 0.257553328603137D+03 -.247194476401767D+02 0.133977803960941D+03 0.218569471859003D+03
 0.330428359491366D+02 -.198005370876262D+02 0.263844761508625D+02 0.190450960818362D+01
 0.971087467641749D+02 0.101688360450280D+02 0.520379544688310D+02 0.123101101509013D+02
 0.887831360705081D+02 0.556620014568286D+02 -.646774382168495D+02 0.245156242025361D+02
0.447630585696D-05 0.000000000000D+00 0.000000000000D+00 0.723689104046D-06 0.691836144368D-09  7 2 -2 24 -11 11 -24 21 2 0.31427561D+00 0.10991909D-01 0.67709878D+05 0.67709878D+05 0.67709878D+05 0.11358897D+01  1  2  1  2  7  2       -2 0.258815642905D-03 0.100000000000D+01
  </mgrwgt>
  </event>
  <event>
  8     66 0.26993063E-05 0.99175825E+02 0.75467711E-02 0.10408907E+00
        2 -1    0    0  501    0 0.00000000E+00 0.00000000E+00 0.16776046E+04 0.16776047E+04 0.32000000E+00 0.0000E+00 0.9000E+01
       -2 -1    0    0    0  501 0.00000000E+00 0.00000000E+00 -.24029145E+02 0.24031275E+02 0.32000000E+00 0.0000E+00 0.9000E+01
       25  2    1    2    0    0 -.36205564E+02 -.19585395E+02 0.11917922E+04 0.12296640E+04 0.30001755E+03 0.0000E+00 0.0000E+00
       23  2    1    2    0    0 0.36205564E+02 0.19585395E+02 0.46178333E+03 0.47197196E+03 0.88426538E+02 0.0000E+00 0.0000E+00
       24  1    3    3    0    0 -.90149065E+02 0.79328052E+02 0.38805142E+03 0.41409046E+03 0.80419002E+02 0.0000E+00 0.9000E+01
      -11  1    4    4    0    0 -.24003573E+02 0.11438144E+02 0.25682318E+03 0.25819594E+03 0.51099893E-03 0.0000E+00 0.9000E+01
       11  1    4    4    0    0 0.60209136E+02 0.81472508E+01 0.20496016E+03 0.21377601E+03 0.51099893E-03 0.0000E+00 0.9000E+01
      -24  1    3    3    0    0 0.53943501E+02 -.98913446E+02 0.80374074E+03 0.81557352E+03 0.80419002E+02 0.0000E+00 0.9000E+01
#aMCatNLO 1  0  0  1  2 0.87124144D+02 0.00000000D+00  -5  7  0 0.00000000D+00 0.00000000D+00 0.00000000D+00 0.00000000D+00 0.00000000D+00
  <mgrwgt>
 0.2090459311D-02    9    2    0
 0.200781581133272D+03 0.000000000000000D+00 0.000000000000000D+00 0.200781581133272D+03
 0.200781581133272D+03 0.000000000000000D+00 0.000000000000000D+00 -.200781581133272D+03
 0.156784561554607D+03 -.901490718550743D+02 0.793280478757979D+02 -.607814811549007D+02
 0.365546212417802D+02 -.240035626551442D+02 0.114381460981454D+02 0.250846193478804D+02
 0.618877896251605D+02 0.602091405811423D+02 0.814725609168768D+01 -.117720054937477D+02
 0.146336189844996D+03 0.539434939290762D+02 -.989134500656310D+02 0.474688673007680D+02
 0.000000000000000D+00 0.000000000000000D+00 0.000000000000000D+00 0.000000000000000D+00
 0.252031553185186D+03 0.000000000000000D+00 0.000000000000000D+00 0.252031553185186D+03
 0.246193769468785D+03 0.000000000000000D+00 0.000000000000000D+00 -.246193769468785D+03
 0.168171620978737D+03 -.119900895557990D+03 0.611871305198542D+02 -.607814811549007D+02
 0.405596396466459D+02 -.310638680693910D+02 0.713318589447827D+01 0.250846193478804D+02
 0.512540989417006D+02 0.498502746693949D+02 0.183102713433829D+01 -.117720054937477D+02
 0.150920456624050D+03 0.267277404963512D+02 -.115508020493743D+03 0.474688673007680D+02
 0.873195064628383D+02 0.743867484616350D+02 0.453566769450721D+02 0.583778371640161D+01
0.389957792457D-05 0.000000000000D+00 0.000000000000D+00 0.449549384335D-07 0.000000000000D+00  7 2 -2 24 -11 11 -24 21 0 0.25809319D+00 0.36969578D-02 0.34279409D+05 0.34279409D+05 0.34279409D+05 0.11620006D+01  1  2  2  1  7  1        2 0.139842903850D-02 0.100000000000D+01
-.214912122322D-06 0.000000000000D+00 -.149754060128D-07 0.449549384335D-07 0.000000000000D+00  7 2 -2 24 -11 11 -24 21 2 0.25809319D+00 0.36969578D-02 0.34279409D+05 0.34279409D+05 0.34279409D+05 0.11620006D+01  1  2  3  1  7  1        2 -.104063021034D-03 0.100000000000D+01
0.252962509268D-06 0.000000000000D+00 0.000000000000D+00 0.449549384335D-07 0.000000000000D+00  7 2 -2 24 -11 11 -24 21 2 0.25809319D+00 0.36969578D-02 0.34279409D+05 0.34279409D+05 0.34279409D+05 0.11620006D+01  1  2 15  1  7  1        2 0.122487473663D-03 0.100000000000D+01
0.126104499245D-05 0.000000000000D+00 0.000000000000D+00 0.449549384335D-07 0.000000000000D+00  7 2 -2 24 -11 11 -24 21 2 0.34662800D+00 0.36969578D-02 0.54977282D+05 0.54977282D+05 0.54977282D+05 0.11436878D+01  1  2 12  1  7  1        2 0.292663849260D-03 0.100000000000D+01
-.160203176372D-05 0.000000000000D+00 0.000000000000D+00 0.449549384335D-07 0.000000000000D+00  7 2 -2 24 -11 11 -24 21 2 0.25809319D+00 0.36969578D-02 0.34279409D+05 0.34279409D+05 0.34279409D+05 0.11620006D+01  1  2  4  1  7  1        2 -.775722948171D-03 0.100000000000D+01
-.367953052094D-05 0.000000000000D+00 -.155581848817D-05 0.449549384335D-07 0.000000000000D+00  7 2 -2 24 -11 11 -24 21 2 0.35868014D+00 0.36969578D-02 0.34279409D+05 0.34279409D+05 0.34279409D+05 0.11620006D+01  1  2  5  1  7  1        2 -.802775480440D-03 0.100000000000D+01
0.405081587774D-05 0.000000000000D+00 0.147520251181D-05 0.449549384335D-07 0.000000000000D+00  7 2 -2 24 -11 11 -24 21 2 0.25809319D+00 0.36969578D-02 0.34279409D+05 0.34279409D+05 0.34279409D+05 0.11620006D+01  1  2  6  1  7  1        2 0.196145351568D-02 0.100000000000D+01
0.481491873654D-07 0.000000000000D+00 0.000000000000D+00 0.449549384335D-07 0.000000000000D+00  7 21 -2 24 -11 11 -24 -2 2 0.34662800D+00 0.36969578D-02 0.54977282D+05 0.54977282D+05 0.54977282D+05 0.11436878D+01  1  2 12  3  7  1        2 0.187054168676D-05 0.100000000000D+01
-.111880314002D-06 0.000000000000D+00 -.642935797939D-07 0.449549384335D-07 0.000000000000D+00  7 21 -2 24 -11 11 -24 -2 2 0.35868014D+00 0.36969578D-02 0.34279409D+05 0.34279409D+05 0.34279409D+05 0.11620006D+01  1  2  5  3  7  1        2 -.388365836619D-05 0.100000000000D+01
  </mgrwgt>
  </event>
  <event>
  8     66 0.26993063E-05 0.19207224E+03 0.75467711E-02 0.99109270E-01
        2 -1    0    0  501    0 0.00000000E+00 0.00000000E+00 0.10872017E+04 0.10872018E+04 0.32000000E+00 0.0000E+00 0.9000E+01
       -2 -1    0    0    0  501 0.00000000E+00 0.00000000E+00 -.38708865E+03 0.38708878E+03 0.32000000E+00 0.0000E+00 0.9000E+01
       25  2    1    2    0    0 0.15795128E+03 -.22087694E+03 -.25424249E+03 0.47779349E+03 0.29985353E+03 0.0000E+00 0.0000E+00
       23  2    1    2    0    0 -.15795128E+03 0.22087694E+03 0.95435558E+03 0.99649707E+03 0.92068513E+02 0.0000E+00 0.0000E+00
       24  1    3    3    0    0 -.11001640E+02 -.19093612E+03 -.17860352E+03 0.27375915E+03 0.80419002E+02 0.0000E+00 0.9000E+01
      -13  1    4    4    0    0 -.10147359E+03 0.15855203E+03 0.49665194E+03 0.53112973E+03 0.10565837E+00 0.0000E+00 0.9000E+01
       13  1    4    4    0    0 -.56477686E+02 0.62324912E+02 0.45770364E+03 0.46536733E+03 0.10565837E+00 0.0000E+00 0.9000E+01
      -24  1    3    3    0    0 0.16895292E+03 -.29940824E+02 -.75638974E+02 0.20403434E+03 0.80419002E+02 0.0000E+00 0.9000E+01
#aMCatNLO 1  0  0  1  2 0.18698011D+02 0.00000000D+00  -5  7  0 0.00000000D+00 0.00000000D+00 0.00000000D+00 0.00000000D+00 0.00000000D+00
  <mgrwgt>
 0.1643479060D-02    9    2    0
 0.648724576917029D+03 0.000000000000000D+00 0.000000000000000D+00 0.648724576917029D+03
 0.648724576917029D+03 0.000000000000000D+00 0.000000000000000D+00 -.648724576917029D+03
 0.407448093665512D+03 -.110016404864095D+02 -.190936117233313D+03 -.350669496990775D+03
 0.335525381368442D+03 -.101473650320036D+03 0.158552156519163D+03 0.277743755098632D+03
 0.281816258959358D+03 -.564776266023853D+02 0.623247849174931D+02 0.268972680196702D+03
 0.272659419840747D+03 0.168952917408830D+03 -.299408242033428D+02 -.196046938304559D+03
 0.000000000000000D+00 -.000000000000000D+00 0.000000000000000D+00 0.000000000000000D+00
 0.664856381674588D+03 0.000000000000000D+00 0.000000000000000D+00 0.664856381674588D+03
 0.654232769889465D+03 0.000000000000000D+00 0.000000000000000D+00 -.654232769889465D+03
 0.409071150082105D+03 -.638419666483050D+01 -.194581951342633D+03 -.350669496990775D+03
 0.332996514686766D+03 -.976931364838123D+02 0.155567144285675D+03 0.277743755098632D+03
 0.280650122577582D+03 -.532968602724292D+02 0.598133203869807D+02 0.268972680196702D+03
 0.274866091412745D+03 0.172049192614165D+03 -.323855763631188D+02 -.196046938304559D+03
 0.215052728048552D+02 -.146749991930929D+02 0.115870630330961D+02 0.106236117851240D+02
0.821707898298D-04 0.000000000000D+00 0.000000000000D+00 0.706128680857D-05 0.000000000000D+00  7 2 -2 24 -13 13 -24 21 0 0.16726182D+00 0.59552113D-01 0.11199730D+06 0.11199730D+06 0.11199730D+06 0.11177062D+01  1  2  2  1  7  1        2 0.635611091623D-03 0.100000000000D+01
-.213338694081D-05 0.000000000000D+00 -.315557469012D-06 0.706128680857D-05 0.000000000000D+00  7 2 -2 24 -13 13 -24 21 2 0.16726182D+00 0.59552113D-01 0.11199730D+06 0.11199730D+06 0.11199730D+06 0.11177062D+01  1  2  3  1  7  1        2 -.206157422853D-04 0.100000000000D+01
0.492638342947D-05 0.000000000000D+00 0.000000000000D+00 0.706128680857D-05 0.000000000000D+00  7 2 -2 24 -13 13 -24 21 2 0.16726182D+00 0.59552113D-01 0.11199730D+06 0.11199730D+06 0.11199730D+06 0.11177062D+01  1  2 15  1  7  1        2 0.476055464847D-04 0.100000000000D+01
0.141061837407D-03 0.000000000000D+00 0.000000000000D+00 0.706128680857D-05 0.000000000000D+00  7 2 -2 24 -13 13 -24 21 2 0.17211917D+00 0.59552113D-01 0.11758375D+06 0.11758375D+06 0.11758375D+06 0.11159945D+01  1  2 12  1  7  1        2 0.129990582190D-02 0.100000000000D+01
-.138165373547D-03 0.000000000000D+00 0.000000000000D+00 0.706128680857D-05 0.000000000000D+00  7 2 -2 24 -13 13 -24 21 2 0.16726182D+00 0.59552113D-01 0.11199730D+06 0.11199730D+06 0.11199730D+06 0.11177062D+01  1  2  4  1  7  1        2 -.133514538751D-02 0.100000000000D+01
-.235217447062D-02 0.000000000000D+00 -.336858928413D-03 0.706128680857D-05 0.000000000000D+00  7 2 -2 24 -13 13 -24 21 2 0.17226781D+00 0.59552113D-01 0.11199730D+06 0.11199730D+06 0.11199730D+06 0.11177062D+01  1  2  5  1  7  1        2 -.217536097941D-01 0.100000000000D+01
0.236122803490D-02 0.000000000000D+00 0.336712505858D-03 0.706128680857D-05 0.000000000000D+00  7 2 -2 24 -13 13 -24 21 2 0.16726182D+00 0.59552113D-01 0.11199730D+06 0.11199730D+06 0.11199730D+06 0.11177062D+01  1  2  6  1  7  1        2 0.228174588084D-01 0.100000000000D+01
0.386201574694D-05 0.000000000000D+00 0.000000000000D+00 0.706128680857D-05 0.000000000000D+00  7 21 -2 24 -13 13 -24 -2 2 0.17211917D+00 0.59552113D-01 0.11758375D+06 0.11758375D+06 0.11758375D+06 0.11159945D+01  1  2 12  3  7  1        2 0.215929963118D-04 0.100000000000D+01
-.123435725185D-04 0.000000000000D+00 -.178290319396D-05 0.706128680857D-05 0.000000000000D+00  7 21 -2 24 -13 13 -24 -2 2 0.17226781D+00 0.59552113D-01 0.11199730D+06 0.11199730D+06 0.11199730D+06 0.11177062D+01  1  2  5  3  7  1        2 -.693242809532D-04 0.100000000000D+01
  </mgrwgt>
  </event>
  <event>
  8     66 0.26993063E-05 0.41202832E+03 0.75467711E-02 0.94977959E-01
        2 -1    0    0  501    0 0.00000000E+00 0.00000000E+00 0.15158673E+04 0.15158674E+04 0.32000000E+00 0.0000E+00 0.9000E+01
       -2 -1    0    0    0  501 0.00000000E+00 0.00000000E+00 -.17450913E+03 0.17450942E+03 0.32000000E+00 0.0000E+00 0.9000E+01
       25  2    1    2    0    0 0.68791245E+02 -.44778208E+03 0.90622345E+03 0.10557836E+04 0.29697996E+03 0.0000E+00 0.0000E+00
       23  2    1    2    0    0 -.68791245E+02 0.44778208E+03 0.43513475E+03 0.63459316E+03 0.90139916E+02 0.0000E+00 0.0000E+00
       24  1    3    3    0    0 0.32348540E+02 -.40711548E+03 0.57007679E+03 0.70586415E+03 0.80419002E+02 0.0000E+00 0.9000E+01
      -11  1    4    4    0    0 -.21317111E+02 0.28633922E+03 0.32403955E+03 0.43295058E+03 0.51099893E-03 0.0000E+00 0.9000E+01
       11  1    4    4    0    0 -.47474134E+02 0.16144286E+03 0.11109519E+03 0.20164258E+03 0.51099893E-03 0.0000E+00 0.9000E+01
      -24  1    3    3    0    0 0.36442705E+02 -.40666602E+02 0.33614666E+03 0.34991947E+03 0.80419002E+02 0.0000E+00 0.9000E+01
#aMCatNLO 1  0  0  1  2 0.66194317D+00 0.00000000D+00  -5  7  0 0.00000000D+00 0.00000000D+00 0.00000000D+00 0.00000000D+00 0.00000000D+00
  <mgrwgt>
 0.1062989289D-02   10    2    0
 0.514327682610467D+03 0.000000000000000D+00 0.000000000000000D+00 0.514327682610467D+03
 0.514327682610467D+03 0.000000000000000D+00 0.000000000000000D+00 -.514327682610467D+03
 0.416562453046067D+03 0.323485401044902D+02 -.407115477855883D+03 0.163591251804901D+02
 0.288917456586390D+03 -.213171109283485D+02 0.286339222102126D+03 -.320737803815894D+02
 0.186489566997634D+03 -.474741338020804D+02 0.161442857750257D+03 -.803789083039672D+02
 0.136685888590842D+03 0.364427046259387D+02 -.406666019965005D+02 0.960935635050665D+02
 0.000000000000000D+00 -.000000000000000D+00 -.000000000000000D+00 0.000000000000000D+00
 0.514956230880329D+03 0.000000000000000D+00 0.000000000000000D+00 0.514956230880329D+03
 0.514502096717778D+03 0.000000000000000D+00 0.000000000000000D+00 -.514502096717778D+03
 0.416437127702960D+03 0.325732027196079D+02 -.406969324228544D+03 0.163591251804901D+02
 0.289006496911794D+03 -.211612430146872D+02 0.286440621531468D+03 -.320737803815894D+02
 0.186520649557306D+03 -.473735317697942D+02 0.161508304117151D+03 -.803789083039672D+02
 0.136691304030171D+03 0.365164353173186D+02 -.406186367042522D+02 0.960935635050665D+02
 0.802749395875405D+00 -.554863252445053D+00 -.360964715822665D+00 0.454134162550548D+00
0.138779371165D-04 0.000000000000D+00 0.000000000000D+00 0.847582939848D-07 0.000000000000D+00  7 2 -2 24 -11 11 -24 21 0 0.23321038D+00 0.26847584D-01 0.23467112D+06 0.23467112D+06 0.23467112D+06 0.10925325D+01  1  2  2  1  7  1        2 0.268350670731D-03 0.100000000000D+01
-.767634113090D-06 0.000000000000D+00 -.532949326721D-07 0.847582939848D-07 0.000000000000D+00  7 2 -2 24 -11 11 -24 21 2 0.23321038D+00 0.26847584D-01 0.23467112D+06 0.23467112D+06 0.23467112D+06 0.10925325D+01  1  2  3  1  7  1        2 -.177174312018D-04 0.100000000000D+01
0.870030025454D-06 0.000000000000D+00 0.000000000000D+00 0.847582939848D-07 0.000000000000D+00  7 2 -2 24 -11 11 -24 21 2 0.23321038D+00 0.26847584D-01 0.23467112D+06 0.23467112D+06 0.23467112D+06 0.10925325D+01  1  2 15  1  7  1        2 0.200807870007D-04 0.100000000000D+01
-.281923929180D-02 0.000000000000D+00 0.000000000000D+00 0.847582939848D-07 0.000000000000D+00  7 2 -2 24 -11 11 -24 21 2 0.23321038D+00 0.26847584D-01 0.23467112D+06 0.23467112D+06 0.23467112D+06 0.10925325D+01  1  2  4  1  7  1        2 -.650696436520D-01 0.100000000000D+01
-.161057307223D-01 0.000000000000D+00 -.109922605925D-02 0.847582939848D-07 0.000000000000D+00  7 2 -2 24 -11 11 -24 21 2 0.23353367D+00 0.26847584D-01 0.23467112D+06 0.23467112D+06 0.23467112D+06 0.10925325D+01  1  2  5  1  7  1        2 -.370746399850D+00 0.100000000000D+01
0.161072390468D-01 0.000000000000D+00 0.109922500456D-02 0.847582939848D-07 0.000000000000D+00  7 2 -2 24 -11 11 -24 21 2 0.23321038D+00 0.26847584D-01 0.23467112D+06 0.23467112D+06 0.23467112D+06 0.10925325D+01  1  2  6  1  7  1        2 0.371764223080D+00 0.100000000000D+01
0.281923982391D-02 0.000000000000D+00 0.000000000000D+00 0.847582939848D-07 0.123132389342D-05  7 2 -2 24 -11 11 -24 21 2 0.23349538D+00 0.26856688D-01 0.23499492D+06 0.23499492D+06 0.23499492D+06 0.10924872D+01  1  2 11  1  7  1        2 0.648714862993D-01 0.100000000000D+01
0.667711221058D-13 0.000000000000D+00 0.000000000000D+00 0.847582939848D-07 0.000000000000D+00  7 21 -2 24 -11 11 -24 -2 2 0.23353489D+00 0.26847584D-01 0.23499492D+06 0.23499492D+06 0.23499492D+06 0.10924872D+01  1  2 12  3  7  1        2 0.532363680314D-12 0.100000000000D+01
-.417380263717D-05 0.000000000000D+00 -.284918499383D-06 0.847582939848D-07 0.000000000000D+00  7 21 -2 24 -11 11 -24 -2 2 0.23353367D+00 0.26847584D-01 0.23467112D+06 0.23467112D+06 0.23467112D+06 0.10925325D+01  1  2  5  3  7  1        2 -.332846161698D-04 0.100000000000D+01
0.739215545160D-06 0.000000000000D+00 0.000000000000D+00 0.847582939848D-07 0.281659822655D-09  7 21 -2 24 -11 11 -24 -2 2 0.23349538D+00 0.26856688D-01 0.23499492D+06 0.23499492D+06 0.23499492D+06 0.10924872D+01  1  2 11  3  7  1        2 0.589400017762D-05 0.100000000000D+01
  </mgrwgt>
  </event>
  <event>
  8     66 0.26993063E-05 0.97202146E+02 0.75467711E-02 0.10091209E+00
        2 -1    0    0  501    0 0.00000000E+00 0.00000000E+00 0.39719739E+03 0.39719751E+03 0.32000000E+00 0.0000E+00 0.9000E+01
       -2 -1    0    0    0  501 0.00000000E+00 0.00000000E+00 -.12369212E+03 0.12369253E+03 0.32000000E+00 0.0000E+00 0.9000E+01
       25  2    1    2    0    0 0.44808939E+02 -.48357638E+02 0.28227548E+03 0.41687297E+03 0.29959526E+03 0.0000E+00 0.0000E+00
       23  2    1    2    0    0 -.44808939E+02 0.48357638E+02 -.87702140E+01 0.10401708E+03 0.79977083E+02 0.0000E+00 0.0000E+00
       24  1    3    3    0    0 -.14678421E+02 -.13162171E+03 0.22844011E+03 0.27602867E+03 0.80419002E+02 0.0000E+00 0.9000E+01
      -11  1    4    4    0    0 -.46811916E+01 0.59030243E+02 -.17167052E+02 0.61653798E+02 0.51099893E-03 0.0000E+00 0.9000E+01
       11  1    4    4    0    0 -.40127747E+02 -.10672605E+02 0.83968376E+01 0.42363280E+02 0.51099893E-03 0.0000E+00 0.9000E+01
      -24  1    3    3    0    0 0.59487360E+02 0.83264071E+02 0.53835374E+02 0.14084429E+03 0.80419002E+02 0.0000E+00 0.9000E+01
#aMCatNLO 1  0  0  1  2 0.17647595D+03 0.00000000D+00  -5  7  0 0.00000000D+00 0.00000000D+00 0.00000000D+00 0.00000000D+00 0.00000000D+00
  <mgrwgt>
 0.4650128530D-02    7    2    0
 0.221653619810815D+03 0.000000000000000D+00 0.000000000000000D+00 0.221653619810815D+03
 0.221653619810815D+03 0.000000000000000D+00 0.000000000000000D+00 -.221653619810815D+03
 0.183396544993257D+03 -.146784211086999D+02 -.131621708854080D+03 0.981190423576414D+02
 0.830352534198606D+02 -.468119164104256D+01 0.590302434837010D+02 -.582097080354753D+02
 0.445966811235130D+02 -.401277474115526D+02 -.106726052440441D+02 -.162703212080073D+02
 0.132278760085001D+03 0.594873601612951D+02 0.832640706144229D+02 -.236390131141588D+02
 0.000000000000000D+00 0.000000000000000D+00 -.000000000000000D+00 0.000000000000000D+00
 0.389948725549816D+03 0.000000000000000D+00 0.000000000000000D+00 0.389948725549816D+03
 0.290005266420998D+03 0.000000000000000D+00 0.000000000000000D+00 -.290005266420998D+03
 0.146143320669661D+03 -.226010022594248D+02 -.689383960190097D+02 0.981190423576414D+02
 0.112920425676141D+03 -.939222945875981D+01 0.963038859605342D+02 -.582097080354753D+02
 0.457884817838353D+02 -.423007281722095D+02 0.651997760408203D+01 -.162703212080073D+02
 0.172290381912730D+03 0.521651087589356D+02 0.141197585788217D+03 -.236390131141588D+02
 0.202811381928447D+03 0.221288511314584D+02 -.175083053333823D+03 0.999434591288184D+02
0.264303873331D-04 0.000000000000D+00 0.000000000000D+00 0.308612528766D-08 0.000000000000D+00  7 2 -2 24 -11 11 -24 21 0 0.61107332D-01 0.19029598D-01 0.37216099D+05 0.37216099D+05 0.37216099D+05 0.11587490D+01  1  2  2  1  7  1        2 0.544254132732D-02 0.100000000000D+01
-.143392668208D-05 0.000000000000D+00 -.101499646640D-06 0.308612528766D-08 0.000000000000D+00  7 2 -2 24 -11 11 -24 21 2 0.61107332D-01 0.19029598D-01 0.37216099D+05 0.37216099D+05 0.37216099D+05 0.11587490D+01  1  2  3  1  7  1        2 -.396464149547D-03 0.100000000000D+01
0.168258477380D-05 0.000000000000D+00 0.000000000000D+00 0.308612528766D-08 0.000000000000D+00  7 2 -2 24 -11 11 -24 21 2 0.61107332D-01 0.19029598D-01 0.37216099D+05 0.37216099D+05 0.37216099D+05 0.11587490D+01  1  2 15  1  7  1        2 0.465215237098D-03 0.100000000000D+01
0.138971435835D-06 0.000000000000D+00 0.000000000000D+00 0.308612528766D-08 0.000000000000D+00  7 2 -2 24 -11 11 -24 21 2 0.11109492D+00 0.19029598D-01 0.88507897D+05 0.88507897D+05 0.88507897D+05 0.11260989D+01  1  2 12  1  7  1        2 0.186158220582D-04 0.100000000000D+01
-.755644508339D-05 0.000000000000D+00 -.867263296108D-05 0.308612528766D-08 0.000000000000D+00  7 2 -2 24 -11 11 -24 21 2 0.13150108D+00 0.19029598D-01 0.37216099D+05 0.37216099D+05 0.37216099D+05 0.11587490D+01  1  2  5  1  7  1        2 -.871764092311D-03 0.100000000000D+01
0.909137200272D-08 0.000000000000D+00 0.000000000000D+00 0.308612528766D-08 0.000000000000D+00  7 21 -2 24 -11 11 -24 -2 2 0.11109492D+00 0.19029598D-01 0.88507897D+05 0.88507897D+05 0.88507897D+05 0.11260989D+01  1  2 12  3  7  1        2 0.146243027520D-05 0.100000000000D+01
-.840967970557D-07 0.000000000000D+00 -.719459246601D-06 0.308612528766D-08 0.000000000000D+00  7 21 -2 24 -11 11 -24 -2 2 0.13150108D+00 0.19029598D-01 0.37216099D+05 0.37216099D+05 0.37216099D+05 0.11587490D+01  1  2  5  3  7  1        2 -.947804505022D-05 0.100000000000D+01
  </mgrwgt>
  </event>
  <event>
  8     66 0.26993063E-05 0.45491998E+03 0.75467711E-02 0.92528735E-01
        2 -1    0    0  501    0 0.00000000E+00 0.00000000E+00 0.15704004E+04 0.15704004E+04 0.32000000E+00 0.0000E+00 0.9000E+01
       -2 -1    0    0    0  501 0.00000000E+00 0.00000000E+00 -.16966648E+03 0.16966678E+03 0.32000000E+00 0.0000E+00 0.9000E+01
       25  2    1    2    0    0 0.31057735E+03 -.27754270E+03 0.39187128E+03 0.64479119E+03 0.29783273E+03 0.0000E+00 0.0000E+00
       23  2    1    2    0    0 -.31057735E+03 0.27754270E+03 0.10088626E+04 0.10952760E+04 0.91309802E+02 0.0000E+00 0.0000E+00
       24  1    3    3    0    0 0.25907903E+03 -.10783578E+03 0.13283076E+03 0.32072063E+03 0.80419002E+02 0.0000E+00 0.9000E+01
      -11  1    4    4    0    0 -.26331990E+03 0.19350085E+03 0.83141286E+03 0.89332373E+03 0.51099893E-03 0.0000E+00 0.9000E+01
       11  1    4    4    0    0 -.47257452E+02 0.84041848E+02 0.17744976E+03 0.20195226E+03 0.51099893E-03 0.0000E+00 0.9000E+01
      -24  1    3    3    0    0 0.51498320E+02 -.16970692E+03 0.25904052E+03 0.32407056E+03 0.80419002E+02 0.0000E+00 0.9000E+01
#aMCatNLO 1  0  0  1  1 0.26369369D+03 0.00000000D+00  -5  7  0 0.00000000D+00 0.00000000D+00 0.00000000D+00 0.00000000D+00 0.00000000D+00
  <mgrwgt>
 0.7392189449D-03    4    2    0
 0.516182705719315D+03 0.000000000000000D+00 0.000000000000000D+00 0.516182705719315D+03
 0.516182705719315D+03 0.000000000000000D+00 0.000000000000000D+00 -.516182705719315D+03
 0.360351963069788D+03 0.259079028312386D+03 -.107835780336297D+03 -.211271916973959D+03
 0.377632889793751D+03 -.263319896007302D+03 0.193500854184237D+03 0.189279294299862D+03
 0.996261681316821D+02 -.472574524249602D+02 0.840418482480322D+02 0.250813538302767D+02
 0.194754390443408D+03 0.514983201198762D+02 -.169706922095973D+03 -.308873115617978D+01
 0.000000000000000D+00 -.000000000000000D+00 0.000000000000000D+00 -.000000000000000D+00
 0.597594597354083D+03 0.000000000000000D+00 0.000000000000000D+00 0.597594597354083D+03
 0.800857830839205D+03 0.000000000000000D+00 0.000000000000000D+00 -.800857830839205D+03
 0.442323916889831D+03 0.357851044754668D+03 -.128413544318862D+03 -.211271916973959D+03
 0.313831410245236D+03 -.178232845408326D+03 0.175774160852817D+03 0.189279294299862D+03
 0.866294370811085D+02 -.243380622204478D+02 0.792669148282170D+02 0.250813538302767D+02
 0.222725772462526D+03 0.102870684164185D+03 -.180409633457019D+03 -.308873115617978D+01
 0.332941891514586D+03 -.258150821290079D+03 0.537821020948472D+02 -.203263233485122D+03
0.456697480666D-04 0.000000000000D+00 0.000000000000D+00 0.247024645489D-06 0.000000000000D+00  7 2 -2 24 -11 11 -24 21 0 0.24160008D+00 0.26102560D-01 0.20695219D+06 0.20695219D+06 0.20695219D+06 0.10966874D+01  1  2  2  1  7  1        2 0.869308417948D-03 0.100000000000D+01
-.248796866198D-05 0.000000000000D+00 -.175383857696D-06 0.247024645489D-06 0.000000000000D+00  7 2 -2 24 -11 11 -24 21 2 0.24160008D+00 0.26102560D-01 0.20695219D+06 0.20695219D+06 0.20695219D+06 0.10966874D+01  1  2  3  1  7  1        2 -.569581558402D-04 0.100000000000D+01
0.288894552896D-05 0.000000000000D+00 0.000000000000D+00 0.247024645489D-06 0.000000000000D+00  7 2 -2 24 -11 11 -24 21 2 0.24160008D+00 0.26102560D-01 0.20695219D+06 0.20695219D+06 0.20695219D+06 0.10966874D+01  1  2 15  1  7  1        2 0.661378948083D-04 0.100000000000D+01
-.608336822042D-05 0.000000000000D+00 0.000000000000D+00 0.247024645489D-06 0.000000000000D+00  7 2 -2 24 -11 11 -24 21 2 0.24160008D+00 0.26102560D-01 0.20695219D+06 0.20695219D+06 0.20695219D+06 0.10966874D+01  1  2  4  1  7  1        2 -.139269212039D-03 0.100000000000D+01
  </mgrwgt>
  </event>
  <event>
  7     66 0.26993063E-05 0.39052427E+03 0.75467711E-02 0.86678378E-01
        4 -1    0    0  501    0 0.00000000E+00 0.00000000E+00 0.86400346E+03 0.86400485E+03 0.15500000E+01 0.0000E+00 0.9000E+01
       -4 -1    0    0    0  501 0.00000000E+00 0.00000000E+00 -.30461245E+03 0.30461640E+03 0.15500000E+01 0.0000E+00 0.9000E+01
       25  2    1    2    0    0 0.75287168E+02 0.33652109E+03 0.49507720E+00 0.45680556E+03 0.29959385E+03 0.0000E+00 0.0000E+00
       24  1    3    3    0    0 -.56936710E+02 0.57988106E+02 -.64982952E+02 0.13150821E+03 0.80419002E+02 0.0000E+00 0.9000E+01
      -13  1    1    2    0    0 -.30379302E+02 -.53581677E+02 0.35470348E+03 0.36001176E+03 0.10565837E+00 0.0000E+00 0.9000E+01
       13  1    1    2    0    0 -.44907865E+02 -.28293942E+03 0.20419245E+03 0.35180392E+03 0.10565837E+00 0.0000E+00 0.9000E+01
      -24  1    3    3    0    0 0.13222388E+03 0.27853299E+03 0.65478029E+02 0.32529735E+03 0.80419002E+02 0.0000E+00 0.9000E+01
#aMCatNLO 1  0  0  1  2 0.93213333D+03 0.00000000D+00  -5  7  0 0.00000000D+00 0.00000000D+00 0.00000000D+00 0.00000000D+00 0.00000000D+00
  <mgrwgt>
 0.8481271862D-04    5    2    0
 0.513019813404732D+03 0.000000000000000D+00 0.000000000000000D+00 0.513019813404732D+03
 0.513019813404732D+03 0.000000000000000D+00 0.000000000000000D+00 -.513019813404732D+03
 0.185211749816508D+03 -.569365973751632D+02 0.579886099146717D+02 -.145711088511564D+03
 0.216656874017080D+03 -.303794726281338D+02 -.535840490288629D+02 0.207716244890383D+03
 0.289366536342299D+03 -.449080118199057D+02 -.282938461076537D+03 0.407687389155378D+02
 0.334804466633577D+03 0.132224081823203D+03 0.278533900190728D+03 -.102773895294357D+03
 0.000000000000000D+00 -.000000000000000D+00 0.000000000000000D+00 0.000000000000000D+00
 0.136516188237761D+04 0.000000000000000D+00 0.000000000000000D+00 0.136516188237761D+04
 0.101633272273289D+04 0.000000000000000D+00 0.000000000000000D+00 -.101633272273289D+04
 0.189225146380720D+03 -.313274444996809D+02 -.844145128181683D+02 -.145711088511564D+03
 0.335740168904342D+03 0.740104650288620D+01 -.263667683145312D+03 0.207716244890383D+03
 0.636711710884309D+03 0.184299755652717D+02 -.635137818670187D+03 0.407687389155378D+02
 0.224551620573440D+03 0.170480556264148D+03 0.658036528596921D+02 -.102773895294357D+03
 0.995265958367682D+03 -.164984133832625D+03 0.917416361773975D+03 0.348829159644719D+03
0.256237057304D-03 0.000000000000D+00 0.000000000000D+00 0.487128897728D-09 0.000000000000D+00  7 4 -4 24 -13 13 -24 21 0 0.13292402D+00 0.46863864D-01 0.15250921D+06 0.15250921D+06 0.15250921D+06 0.11069838D+01  1  2  2  1  7  1        4 0.829170064250D-04 0.100000000000D+01
-.129470916274D-04 0.000000000000D+00 -.984017768814D-06 0.487128897728D-09 0.000000000000D+00  7 4 -4 24 -13 13 -24 21 2 0.13292402D+00 0.46863864D-01 0.15250921D+06 0.15250921D+06 0.15250921D+06 0.11069838D+01  1  2  3  1  7  1        4 -.513400652795D-05 0.100000000000D+01
0.162284570634D-04 0.000000000000D+00 0.000000000000D+00 0.487128897728D-09 0.000000000000D+00  7 4 -4 24 -13 13 -24 21 2 0.13292402D+00 0.46863864D-01 0.15250921D+06 0.15250921D+06 0.15250921D+06 0.11069838D+01  1  2 15  1  7  1        4 0.643519076713D-05 0.100000000000D+01
0.917606820334D-04 0.000000000000D+00 -.852417389439D-04 0.487128897728D-09 0.000000000000D+00  7 4 -4 24 -13 13 -24 21 2 0.47794770D+00 0.46863864D-01 0.15250921D+06 0.15250921D+06 0.15250921D+06 0.11069838D+01  1  2  5  1  7  1        4 0.408240754135D-07 0.100000000000D+01
0.161987934091D-04 0.000000000000D+00 -.128184719802D-04 0.487128897728D-09 0.000000000000D+00  7 21 -4 24 -13 13 -24 -4 2 0.47794770D+00 0.46863864D-01 0.15250921D+06 0.15250921D+06 0.15250921D+06 0.11069838D+01  1  2  5  3  7  1        4 0.553703882739D-06 0.100000000000D+01
  </mgrwgt>
  </event>
  <event>
  8     66 0.26993063E-05 0.18735838E+03 0.75467711E-02 0.10565495E+00
        2 -1    0    0  501    0 0.00000000E+00 0.00000000E+00 0.31305354E+04 0.31305354E+04 0.32000000E+00 0.0000E+00 0.9000E+01
       -2 -1    0    0    0  501 0.00000000E+00 0.00000000E+00 -.31846866E+02 0.31848474E+02 0.32000000E+00 0.0000E+00 0.9000E+01
       25  2    1    2    0    0 -.62998931E+02 0.10846336E+03 0.28520726E+04 0.28707618E+04 0.30203013E+03 0.0000E+00 0.0000E+00
       23  2    1    2    0    0 0.62998931E+02 -.10846336E+03 0.24661595E+03 0.29162208E+03 0.92145771E+02 0.0000E+00 0.0000E+00
       24  1    3    3    0    0 -.37121182E+02 0.89350157E+01 0.24930868E+03 0.26472599E+03 0.80419002E+02 0.0000E+00 0.9000E+01
      -13  1    4    4    0    0 0.65773361E+02 -.12346384E+03 0.21478231E+03 0.25632189E+03 0.10565837E+00 0.0000E+00 0.9000E+01
       13  1    4    4    0    0 -.27744303E+01 0.15000482E+02 0.31833639E+02 0.35300194E+02 0.10565837E+00 0.0000E+00 0.9000E+01
      -24  1    3    3    0    0 -.25877749E+02 0.99528346E+02 0.26027639E+04 0.26060358E+04 0.80419002E+02 0.0000E+00 0.9000E+01
#aMCatNLO 1  0  0  1  2 0.41184615D+02 0.00000000D+00  -5  7  0 0.00000000D+00 0.00000000D+00 0.00000000D+00 0.00000000D+00 0.00000000D+00
  <mgrwgt>
 0.1234470872D-02    4    2    0
 0.315753558318494D+03 0.000000000000000D+00 0.000000000000000D+00 0.315753558318494D+03
 0.315753558318494D+03 0.000000000000000D+00 0.000000000000000D+00 -.315753558318494D+03
 0.102350802275906D+03 -.371211814444322D+02 0.893501836564316D+01 -.505040009021681D+02
 0.229680527017072D+03 0.657734533008734D+02 -.123464028711473D+03 -.182163747617494D+03
 0.205699306276973D+02 -.277452018672029D+01 0.150006637156370D+02 -.137987018176397D+02
 0.278905856716312D+03 -.258777516697210D+02 0.995283466301931D+02 0.246466450337302D+03
 0.000000000000000D+00 -.000000000000000D+00 -.000000000000000D+00 -.000000000000000D+00
 0.322836238484688D+03 0.000000000000000D+00 0.000000000000000D+00 0.322836238484688D+03
 0.382557942458611D+03 0.000000000000000D+00 0.000000000000000D+00 -.382557942458611D+03
 0.100363801277005D+03 -.307191912727631D+02 0.105524325546653D+02 -.505040009021681D+02
 0.232355003410496D+03 0.803651347728359D+02 -.119777551222194D+03 -.182163747617494D+03
 0.206778240559530D+02 -.147186258110174D+01 0.153297702650486D+02 -.137987018176397D+02
 0.279452018910790D+03 -.824408557271601D+01 0.103983358428866D+03 0.246466450337302D+03
 0.725455332890546D+02 -.399299953462551D+02 -.100880100263859D+02 -.597217039739233D+02
0.404185509453D-04 0.000000000000D+00 0.000000000000D+00 0.131873001381D-06 0.000000000000D+00  7 2 -2 24 -13 13 -24 21 0 0.48162095D+00 0.48996428D-02 0.35103164D+05 0.35103164D+05 0.35103164D+05 0.11610583D+01  1  2  2  1  7  1        2 0.147607292313D-02 0.100000000000D+01
-.150172188281D-05 0.000000000000D+00 -.155217878079D-06 0.131873001381D-06 0.000000000000D+00  7 2 -2 24 -13 13 -24 21 2 0.48162095D+00 0.48996428D-02 0.35103164D+05 0.35103164D+05 0.35103164D+05 0.11610583D+01  1  2  3  1  7  1        2 -.739306724398D-04 0.100000000000D+01
0.246457649129D-05 0.000000000000D+00 0.000000000000D+00 0.131873001381D-06 0.000000000000D+00  7 2 -2 24 -13 13 -24 21 2 0.48162095D+00 0.48996428D-02 0.35103164D+05 0.35103164D+05 0.35103164D+05 0.11610583D+01  1  2 15  1  7  1        2 0.121332584526D-03 0.100000000000D+01
-.587041293563D-05 0.000000000000D+00 0.000000000000D+00 0.131873001381D-06 0.000000000000D+00  7 2 -2 24 -13 13 -24 21 2 0.48162095D+00 0.48996428D-02 0.35103164D+05 0.35103164D+05 0.35103164D+05 0.11610583D+01  1  2  4  1  7  1        2 -.289003963249D-03 0.100000000000D+01
  </mgrwgt>
  </event>
  <event>
  8     66 0.26993063E-05 0.20977055E+03 0.75467711E-02 0.99943828E-01
        2 -1    0    0  501    0 0.00000000E+00 0.00000000E+00 0.13419473E+04 0.13419474E+04 0.32000000E+00 0.0000E+00 0.9000E+01
       -2 -1    0    0    0  501 0.00000000E+00 0.00000000E+00 -.65085310E+02 0.65086097E+02 0.32000000E+00 0.0000E+00 0.9000E+01
       25  2    1    2    0    0 -.42964643E+02 -.83825606E+02 0.34681071E+03 0.46792553E+03 0.29967306E+03 0.0000E+00 0.0000E+00
       23  2    1    2    0    0 0.42964643E+02 0.83825606E+02 0.93005131E+03 0.93910793E+03 0.89752868E+02 0.0000E+00 0.0000E+00
       24  1    3    3    0    0 -.32887653E+02 0.73713083E+02 0.22718324E+03 0.25415479E+03 0.80419002E+02 0.0000E+00 0.9000E+01
      -13  1    4    4    0    0 0.22430605E+02 0.99882029E+02 0.79502161E+03 0.80158526E+03 0.10565837E+00 0.0000E+00 0.9000E+01
       13  1    4    4    0    0 0.20534038E+02 -.16056423E+02 0.13502969E+03 0.13752267E+03 0.10565837E+00 0.0000E+00 0.9000E+01
      -24  1    3    3    0    0 -.10076990E+02 -.15753869E+03 0.11962748E+03 0.21377075E+03 0.80419002E+02 0.0000E+00 0.9000E+01
#aMCatNLO 1  0  0  2  2 0.18739792D+03 0.00000000D+00  -5  7  0 0.00000000D+00 0.00000000D+00 0.00000000D+00 0.00000000D+00 0.00000000D+00
  <mgrwgt>
 0.9924254027D-03    4    2    0
 0.295536188471169D+03 0.000000000000000D+00 0.000000000000000D+00 0.295536188471169D+03
 0.295536188471169D+03 0.000000000000000D+00 0.000000000000000D+00 -.295536188471169D+03
 0.114237520720939D+03 -.328876532659060D+02 0.737130827004698D+02 -.823279342335368D+01
 0.190711855309920D+03 0.224306084498335D+02 0.998821893371991D+02 0.160908134702786D+03
 0.356717472536829D+02 0.205340349472032D+02 -.160565828027571D+02 0.243518604959843D+02
 0.250451253657796D+03 -.100769901311308D+02 -.157538689234912D+03 -.177027201775417D+03
 0.000000000000000D+00 0.000000000000000D+00 -.000000000000000D+00 0.000000000000000D+00
 0.465445475681979D+03 0.000000000000000D+00 0.000000000000000D+00 0.465445475681979D+03
 0.366526054120344D+03 0.000000000000000D+00 0.000000000000000D+00 -.366526054120344D+03
 0.138679624551380D+03 -.688141528218727D+02 0.892281110143963D+02 -.823279342335368D+01
 0.206093676683991D+03 -.339350197231201D+02 0.124223951764493D+03 0.160908134702786D+03
 0.294266437435582D+02 0.112869065536799D+02 -.120631667833497D+02 0.243518604959843D+02
 0.245868225784642D+03 -.805784246566849D+02 -.127092312149596D+03 -.177027201775417D+03
 0.211903359038751D+03 0.172040690647998D+03 -.742965838459439D+02 0.989194215616343D+02
0.961229248926D-05 0.000000000000D+00 0.000000000000D+00 0.524691140538D-06 0.000000000000D+00  7 2 -2 24 -13 13 -24 21 0 0.20645350D+00 0.10013188D-01 0.44003686D+05 0.44003686D+05 0.44003686D+05 0.11522077D+01  1  2  2  2  7  2       -2 0.117924140132D-02 0.100000000000D+01
-.457727725046D-06 0.000000000000D+00 -.369137341335D-07 0.524691140538D-06 0.000000000000D+00  7 2 -2 24 -13 13 -24 21 2 0.20645350D+00 0.10013188D-01 0.44003686D+05 0.44003686D+05 0.44003686D+05 0.11522077D+01  1  2  3  2  7  2       -2 -.745494575198D-04 0.100000000000D+01
0.590281873569D-06 0.000000000000D+00 0.000000000000D+00 0.524691140538D-06 0.000000000000D+00  7 2 -2 24 -13 13 -24 21 2 0.20645350D+00 0.10013188D-01 0.44003686D+05 0.44003686D+05 0.44003686D+05 0.11522077D+01  1  2 15  2  7  2       -2 0.961383614109D-04 0.100000000000D+01
-.127958948457D-05 0.000000000000D+00 0.000000000000D+00 0.524691140538D-06 0.000000000000D+00  7 2 -2 24 -13 13 -24 21 2 0.20645350D+00 0.10013188D-01 0.44003686D+05 0.44003686D+05 0.44003686D+05 0.11522077D+01  1  2  4  2  7  2       -2 -.208404902529D-03 0.100000000000D+01
  </mgrwgt>
  </event>
  <event>
  7     66 0.26993063E-05 0.17425732E+03 0.75467711E-02 0.99864491E-01
        2 -1    0    0  501    0 0.00000000E+00 0.00000000E+00 0.12294686E+04 0.12294687E+04 0.32000000E+00 0.0000E+00 0.9000E+01
       -2 -1    0    0    0  501 0.00000000E+00 0.00000000E+00 -.70905596E+02 0.70906318E+02 0.32000000E+00 0.0000E+00 0.9000E+01
       23  2    1    2    0    0 -.15058218E+03 0.80251401E+02 0.55279357E+03 0.58566286E+03 0.91131641E+02 0.0000E+00 0.0000E+00
       24  1    1    2    0    0 0.23240199E+03 -.94960354E+02 0.42190264E+03 0.49749091E+03 0.80419002E+02 0.0000E+00 0.9000E+01
      -11  1    3    3    0    0 -.26835580E+02 0.32556579E+02 0.48786618E+02 0.64499715E+02 0.51099893E-03 0.0000E+00 0.9000E+01
       11  1    3    3    0    0 -.12374660E+03 0.47694822E+02 0.50400695E+03 0.52116315E+03 0.51099893E-03 0.0000E+00 0.9000E+01
      -24  1    1    2    0    0 -.81819805E+02 0.14708953E+02 0.18386683E+03 0.21722123E+03 0.80419002E+02 0.0000E+00 0.9000E+01
#aMCatNLO 1  0  0  1  2 0.82470561D+02 0.00000000D+00  -5  7  0 0.00000000D+00 0.00000000D+00 0.00000000D+00 0.00000000D+00 0.00000000D+00
  <mgrwgt>
 0.1200425971D-02    9    2    0
 0.295257012816176D+03 0.000000000000000D+00 0.000000000000000D+00 0.295257012816176D+03
 0.295257012816176D+03 0.000000000000000D+00 0.000000000000000D+00 -.295257012816176D+03
 0.267773374036441D+03 0.232401980051654D+03 -.949603551366333D+02 -.469810015738743D+02
 0.463180306221800D+02 -.268355838983819D+02 0.325565815761309D+02 -.191123100023739D+02
 0.158817071271877D+03 -.123746615478124D+03 0.476948300062047D+02 0.873775742153854D+02
 0.117605549701854D+03 -.818197806751486D+02 0.147089435542978D+02 -.212842626391372D+02
 0.000000000000000D+00 0.000000000000000D+00 -.000000000000000D+00 0.000000000000000D+00
 0.365601571550446D+03 0.000000000000000D+00 0.000000000000000D+00 0.365601571550446D+03
 0.323320720709834D+03 0.000000000000000D+00 0.000000000000000D+00 -.323320720709834D+03
 0.235568915208808D+03 0.201865412922855D+03 -.779014660637704D+02 -.469810015738743D+02
 0.522569320821869D+02 -.328158900045000D+02 0.358974082661689D+02 -.191123100023739D+02
 0.178694666208051D+03 -.144222641531424D+03 0.591335177808653D+02 0.873775742153854D+02
 0.129724576929454D+03 -.968247051097244D+02 0.230912656534546D+02 -.212842626391372D+02
 0.926772018317809D+02 0.719978237227934D+02 -.402207256367183D+02 0.422808508406116D+02
0.644098490130D-05 0.000000000000D+00 0.000000000000D+00 0.473194203444D-09 0.000000000000D+00  7 2 -2 24 -11 11 -24 21 0 0.18914908D+00 0.10908612D-01 0.76755058D+05 0.76755058D+05 0.76755058D+05 0.11312741D+01  1  2  2  1  7  1        2 0.796645454007D-03 0.100000000000D+01
-.356069382771D-06 0.000000000000D+00 -.247350779713D-07 0.473194203444D-09 0.000000000000D+00  7 2 -2 24 -11 11 -24 21 2 0.18914908D+00 0.10908612D-01 0.76755058D+05 0.76755058D+05 0.76755058D+05 0.11312741D+01  1  2  3  1  7  1        2 -.563615725658D-04 0.100000000000D+01
0.419523653794D-06 0.000000000000D+00 0.000000000000D+00 0.473194203444D-09 0.000000000000D+00  7 2 -2 24 -11 11 -24 21 2 0.18914908D+00 0.10908612D-01 0.76755058D+05 0.76755058D+05 0.76755058D+05 0.11312741D+01  1  2 15  1  7  1        2 0.664056332851D-04 0.100000000000D+01
0.583364770764D-05 0.000000000000D+00 0.000000000000D+00 0.473194203444D-09 0.000000000000D+00  7 2 -2 24 -11 11 -24 21 2 0.24155953D+00 0.10908612D-01 0.10425954D+06 0.10425954D+06 0.10425954D+06 0.11202385D+01  1  2 12  1  7  1        2 0.588294227238D-03 0.100000000000D+01
-.610446396686D-05 0.000000000000D+00 0.000000000000D+00 0.473194203444D-09 0.000000000000D+00  7 2 -2 24 -11 11 -24 21 2 0.18914908D+00 0.10908612D-01 0.76755058D+05 0.76755058D+05 0.76755058D+05 0.11312741D+01  1  2  4  1  7  1        2 -.966264457127D-03 0.100000000000D+01
-.117882005863D-04 0.000000000000D+00 -.335936764884D-05 0.473194203444D-09 0.000000000000D+00  7 2 -2 24 -11 11 -24 21 2 0.24562891D+00 0.10908612D-01 0.76755058D+05 0.76755058D+05 0.76755058D+05 0.11312741D+01  1  2  5  1  7  1        2 -.117857911423D-02 0.100000000000D+01
0.123533664893D-04 0.000000000000D+00 0.324786853225D-05 0.473194203444D-09 0.000000000000D+00  7 2 -2 24 -11 11 -24 21 2 0.18914908D+00 0.10908612D-01 0.76755058D+05 0.76755058D+05 0.76755058D+05 0.11312741D+01  1  2  6  1  7  1        2 0.195539182953D-02 0.100000000000D+01
0.194257828862D-06 0.000000000000D+00 0.000000000000D+00 0.473194203444D-09 0.000000000000D+00  7 21 -2 24 -11 11 -24 -2 2 0.24155953D+00 0.10908612D-01 0.10425954D+06 0.10425954D+06 0.10425954D+06 0.11202385D+01  1  2 12  3  7  1        2 0.664346016597D-05 0.100000000000D+01
-.351619379120D-06 0.000000000000D+00 -.117443962720D-06 0.473194203444D-09 0.000000000000D+00  7 21 -2 24 -11 11 -24 -2 2 0.24562891D+00 0.10908612D-01 0.76755058D+05 0.76755058D+05 0.76755058D+05 0.11312741D+01  1  2  5  3  7  1        2 -.117494889203D-04 0.100000000000D+01
  </mgrwgt>
  </event>
  <event>
  8     66 0.26993063E-05 0.24832526E+03 0.75467711E-02 0.99175469E-01
        4 -1    0    0  501    0 0.00000000E+00 0.00000000E+00 0.17551543E+03 0.17552227E+03 0.15500000E+01 0.0000E+00 0.9000E+01
       -4 -1    0    0    0  501 0.00000000E+00 0.00000000E+00 -.73751462E+03 0.73751625E+03 0.15500000E+01 0.0000E+00 0.9000E+01
       25  2    1    2    0    0 -.21156746E+03 -.12065157E+03 -.12719756E+03 0.40468987E+03 0.29711459E+03 0.0000E+00 0.0000E+00
       23  2    1    2    0    0 0.21156746E+03 0.12065157E+03 -.43480164E+03 0.50834865E+03 0.10024118E+03 0.0000E+00 0.0000E+00
       24  1    3    3    0    0 -.77434398E+01 0.12416440E+02 -.12375234E+03 0.14831044E+03 0.80419002E+02 0.0000E+00 0.9000E+01
      -11  1    4    4    0    0 0.17593453E+03 0.53799397E+02 -.34389864E+03 0.39001745E+03 0.51099893E-03 0.0000E+00 0.9000E+01
       11  1    4    4    0    0 0.35632929E+02 0.66852173E+02 -.90902998E+02 0.11833120E+03 0.51099893E-03 0.0000E+00 0.9000E+01
      -24  1    3    3    0    0 -.20382402E+03 -.13306801E+03 -.34452192E+01 0.25637943E+03 0.80419002E+02 0.0000E+00 0.9000E+01
#aMCatNLO 1  0  0  1  2 0.78033001D+02 0.00000000D+00  -5  7  0 0.00000000D+00 0.00000000D+00 0.00000000D+00 0.00000000D+00 0.00000000D+00
  <mgrwgt>
 0.7181194095D-04    9    2    0
 0.359790301924643D+03 0.000000000000000D+00 0.000000000000000D+00 0.359790301924643D+03
 0.359790301924643D+03 0.000000000000000D+00 0.000000000000000D+00 -.359790301924643D+03
 0.915316896215988D+02 -.774343977165059D+01 0.124164404152743D+02 -.411910839688751D+02
 0.226284858089462D+03 0.175934532391025D+03 0.537993967489571D+02 -.131747873692018D+03
 0.791482358020675D+02 0.356329293927082D+02 0.668521730189810D+02 -.229243219335749D+02
 0.322615820336158D+03 -.203824022012082D+03 -.133068010183212D+03 0.195863279594468D+03
 0.000000000000000D+00 0.000000000000000D+00 0.000000000000000D+00 0.000000000000000D+00
 0.544147315940926D+03 0.000000000000000D+00 0.000000000000000D+00 0.544147315940926D+03
 0.370252487816835D+03 0.000000000000000D+00 0.000000000000000D+00 -.370252487816835D+03
 0.914389296909390D+02 -.133723174223386D+02 0.428224670929315D+01 -.411910839688751D+02
 0.211957457843324D+03 0.162452518792294D+03 0.343167721540978D+02 -.131747873692018D+03
 0.714519970278204D+02 0.309998889190539D+02 0.601570463882311D+02 -.229243219335749D+02
 0.348950893314125D+03 -.224483988511704D+03 -.162923370327071D+03 0.195863279594468D+03
 0.190600525881552D+03 0.444038982226951D+02 0.641673050754486D+02 0.173894828124091D+03
0.389265164828D-04 0.000000000000D+00 0.000000000000D+00 0.143119915861D-08 0.000000000000D+00  7 4 -4 24 -11 11 -24 21 0 0.27003025D-01 0.11346444D+00 0.89349543D+05 0.89349543D+05 0.89349543D+05 0.11257577D+01  1  2  2  1  7  1        4 0.625998272493D-04 0.100000000000D+01
-.207223737752D-05 0.000000000000D+00 -.149488072881D-06 0.143119915861D-08 0.000000000000D+00  7 4 -4 24 -11 11 -24 21 2 0.27003025D-01 0.11346444D+00 0.89349543D+05 0.89349543D+05 0.89349543D+05 0.11257577D+01  1  2  3  1  7  1        4 -.422334889149D-05 0.100000000000D+01
0.246963146761D-05 0.000000000000D+00 0.000000000000D+00 0.143119915861D-08 0.000000000000D+00  7 4 -4 24 -11 11 -24 21 2 0.27003025D-01 0.11346444D+00 0.89349543D+05 0.89349543D+05 0.89349543D+05 0.11257577D+01  1  2 15  1  7  1        4 0.503326280775D-05 0.100000000000D+01
0.129622465319D-03 0.000000000000D+00 0.000000000000D+00 0.143119915861D-08 0.000000000000D+00  7 4 -4 24 -11 11 -24 21 2 0.41070029D-01 0.11346444D+00 0.11634200D+06 0.11634200D+06 0.11634200D+06 0.11163672D+01  1  2 12  1  7  1        4 0.111287533161D-03 0.100000000000D+01
-.128185422337D-03 0.000000000000D+00 0.000000000000D+00 0.143119915861D-08 0.000000000000D+00  7 4 -4 24 -11 11 -24 21 2 0.27003025D-01 0.11346444D+00 0.89349543D+05 0.89349543D+05 0.89349543D+05 0.11257577D+01  1  2  4  1  7  1        4 -.261249877646D-03 0.100000000000D+01
-.142416763563D-03 0.000000000000D+00 -.168885165628D-04 0.143119915861D-08 0.000000000000D+00  7 4 -4 24 -11 11 -24 21 2 0.41617648D-01 0.11346444D+00 0.89349543D+05 0.89349543D+05 0.89349543D+05 0.11257577D+01  1  2  5  1  7  1        4 -.120422440237D-03 0.100000000000D+01
0.138067545367D-03 0.000000000000D+00 0.154228969732D-04 0.143119915861D-08 0.000000000000D+00  7 4 -4 24 -11 11 -24 21 2 0.27003025D-01 0.11346444D+00 0.89349543D+05 0.89349543D+05 0.89349543D+05 0.11257577D+01  1  2  6  1  7  1        4 0.281390260113D-03 0.100000000000D+01
0.638862801524D-05 0.000000000000D+00 0.000000000000D+00 0.143119915861D-08 0.000000000000D+00  7 21 -4 24 -11 11 -24 -4 2 0.41070029D-01 0.11346444D+00 0.11634200D+06 0.11634200D+06 0.11634200D+06 0.11163672D+01  1  2 12  3  7  1        4 0.114102730513D-03 0.100000000000D+01
-.654451137391D-05 0.000000000000D+00 -.851891277260D-06 0.143119915861D-08 0.000000000000D+00  7 21 -4 24 -11 11 -24 -4 2 0.41617648D-01 0.11346444D+00 0.89349543D+05 0.89349543D+05 0.89349543D+05 0.11257577D+01  1  2  5  3  7  1        4 -.116706006126D-03 0.100000000000D+01
  </mgrwgt>
  </event>
  <event>
  8     66 0.26993063E-05 0.45286869E+03 0.75467711E-02 0.84428471E-01
        2 -1    0    0  501    0 0.00000000E+00 0.00000000E+00 0.60783667E+03 0.60783675E+03 0.32000000E+00 0.0000E+00 0.9000E+01
       -2 -1    0    0    0  501 0.00000000E+00 0.00000000E+00 -.40360353E+03 0.40360366E+03 0.32000000E+00 0.0000E+00 0.9000E+01
       25  2    1    2    0    0 -.22691706E+03 0.33375206E+03 -.80432416E+02 0.50952695E+03 0.30044392E+03 0.0000E+00 0.0000E+00
       23  2    1    2    0    0 0.22691706E+03 -.33375206E+03 0.28466555E+03 0.50191347E+03 0.89447555E+02 0.0000E+00 0.0000E+00
       24  1    3    3    0    0 -.25676667E+03 0.31500215E+03 -.53682617E+02 0.41773737E+03 0.80419002E+02 0.0000E+00 0.9000E+01
      -13  1    4    4    0    0 0.16025524E+03 -.24181091E+03 0.25060751E+03 0.38335153E+03 0.10565837E+00 0.0000E+00 0.9000E+01
       13  1    4    4    0    0 0.66661819E+02 -.91941142E+02 0.34058045E+02 0.11856194E+03 0.10565837E+00 0.0000E+00 0.9000E+01
      -24  1    3    3    0    0 0.29849609E+02 0.18749911E+02 -.26749799E+02 0.91789575E+02 0.80419002E+02 0.0000E+00 0.9000E+01
#aMCatNLO 1  0  0  1  2 0.12240099D+04 0.00000000D+00  -5  7  0 0.00000000D+00 0.00000000D+00 0.00000000D+00 0.00000000D+00 0.00000000D+00
  <mgrwgt>
 0.8542595316D-03    5    2    0
 0.495303072627869D+03 0.000000000000000D+00 0.000000000000000D+00 0.495303072627869D+03
 0.495303072627869D+03 0.000000000000000D+00 0.000000000000000D+00 -.495303072627869D+03
 0.437590894210373D+03 -.256766665898178D+03 0.315002145155591D+03 -.140936519654676D+03
 0.339746713040824D+03 0.160255367820883D+03 -.241811122842890D+03 0.176842944377485D+03
 0.114033457058802D+03 0.666616888176144D+02 -.919409331954838D+02 0.103302166438491D+02
 0.992350809457386D+02 0.298496092596804D+02 0.187499108827825D+02 -.462366413666574D+02
 0.000000000000000D+00 0.000000000000000D+00 0.000000000000000D+00 0.000000000000000D+00
 0.290000024451374D+04 0.000000000000000D+00 0.000000000000000D+00 0.290000024451374D+04
 0.964608353683961D+03 0.000000000000000D+00 0.000000000000000D+00 -.964608353683961D+03
 0.440695637899997D+03 -.402238948296991D+03 -.780138142271754D+02 -.140936519654676D+03
 0.751523720296698D+03 -.204938465277686D+02 -.730133191580131D+03 0.176842944377485D+03
 0.259212169837786D+03 0.484029994858934D+01 -.258961014657636D+03 0.103302166438491D+02
 0.123211553139161D+03 -.699465327786415D+01 -.807905854245864D+02 -.462366413666574D+02
 0.228996551702405D+04 0.424887148154034D+03 0.114789860588953D+04 0.193539189082977D+04
0.571027654352D-04 0.000000000000D+00 0.000000000000D+00 0.120359017709D-05 0.000000000000D+00  7 2 -2 24 -13 13 -24 21 0 0.93513350D-01 0.62092867D-01 0.20509005D+06 0.20509005D+06 0.20509005D+06 0.10969881D+01  1  2  2  1  7  1        2 0.843876636195D-03 0.100000000000D+01
-.314143243909D-05 0.000000000000D+00 -.219289654774D-06 0.120359017709D-05 0.000000000000D+00  7 2 -2 24 -13 13 -24 21 2 0.93513350D-01 0.62092867D-01 0.20509005D+06 0.20509005D+06 0.20509005D+06 0.10969881D+01  1  2  3  1  7  1        2 -.558667459756D-04 0.100000000000D+01
0.360507899329D-05 0.000000000000D+00 0.000000000000D+00 0.120359017709D-05 0.000000000000D+00  7 2 -2 24 -13 13 -24 21 2 0.93513350D-01 0.62092867D-01 0.20509005D+06 0.20509005D+06 0.20509005D+06 0.10969881D+01  1  2 15  1  7  1        2 0.641121641942D-04 0.100000000000D+01
0.214042656471D-04 0.000000000000D+00 -.302390727706D-04 0.120359017709D-05 0.000000000000D+00  7 2 -2 24 -13 13 -24 21 2 0.63846541D+00 0.62092867D-01 0.20509005D+06 0.20509005D+06 0.20509005D+06 0.10969881D+01  1  2  5  1  7  1        2 0.213364031447D-05 0.100000000000D+01
0.233086173266D-05 0.000000000000D+00 -.710637539325D-05 0.120359017709D-05 0.000000000000D+00  7 21 -2 24 -13 13 -24 -2 2 0.63846541D+00 0.62092867D-01 0.20509005D+06 0.20509005D+06 0.20509005D+06 0.10969881D+01  1  2  5  3  7  1        2 0.383686131020D-08 0.100000000000D+01
  </mgrwgt>
  </event>
  <event>
  9     66 -.26993063E-05 0.13360972E+04 0.75467711E-02 0.84490585E-01
        2 -1    0    0  502    0 0.00000000E+00 0.00000000E+00 0.26208452E+04 0.26208452E+04 0.32000000E+00 0.0000E+00 0.9000E+01
       -2 -1    0    0    0  501 0.00000000E+00 0.00000000E+00 -.11908443E+04 0.11908444E+04 0.32000000E+00 0.0000E+00 0.9000E+01
       25  2    1    2    0    0 -.74028371E+03 0.11225904E+04 -.49107215E+03 0.14629373E+04 0.30133773E+03 0.0000E+00 0.0000E+00
       23  2    1    2    0    0 0.69832441E+03 -.10885033E+04 0.18590497E+04 0.22664725E+04 0.91298974E+02 0.0000E+00 0.0000E+00
       24  1    3    3    0    0 -.18734701E+03 0.13885728E+03 -.83723226E+02 0.26049384E+03 0.80419002E+02 0.0000E+00 0.9000E+01
      -11  1    4    4    0    0 0.89438273E+02 -.17283390E+03 0.23417462E+03 0.30448072E+03 0.51099893E-03 0.0000E+00 0.9000E+01
       11  1    4    4    0    0 0.60888614E+03 -.91566936E+03 0.16248751E+04 0.19619918E+04 0.51099893E-03 0.0000E+00 0.9000E+01
      -24  1    3    3    0    0 -.55293671E+03 0.98373310E+03 -.40734892E+03 0.12024434E+04 0.80419002E+02 0.0000E+00 0.9000E+01
       21  1    1    2  502  501 0.41959302E+02 -.34087119E+02 0.62023245E+02 0.82279767E+02 0.75000000E+00 0.0000E+00 0.9000E+01
#aMCatNLO 2  0  0  1  2 0.54060287D+02 0.00000000D+00  -5  7  0 0.00000000D+00 0.00000000D+00 0.00000000D+00 0.00000000D+00 0.00000000D+00
  <mgrwgt>
 -.1740968130D-03    3    2    0
 0.173451810217839D+04 0.000000000000000D+00 0.000000000000000D+00 0.173451810217839D+04
 0.173451810217839D+04 0.000000000000000D+00 0.000000000000000D+00 -.173451810217839D+04
 0.309430487300195D+03 -.183582830225743D+03 0.135799314755020D+03 -.192706774854541D+03
 0.237769771211960D+03 0.922970285013587D+02 -.175156308369686D+03 0.131666207776752D+03
 0.148486189935521D+04 0.626744989362631D+03 -.930177626852130D+03 0.973023720661180D+03
 0.143697404648942D+04 -.535459187638247D+03 0.969534620466796D+03 -.911983153583391D+03
 0.000000000000000D+00 0.000000000000000D+00 -.000000000000000D+00 0.000000000000000D+00
 0.178383527319839D+04 0.000000000000000D+00 0.000000000000000D+00 0.178383527319839D+04
 0.174960713379328D+04 0.000000000000000D+00 0.000000000000000D+00 -.174960713379328D+04
 0.313022939791153D+03 -.187347006217485D+03 0.138857275890146D+03 -.192706774854541D+03
 0.234961168825542D+03 0.894382725244527D+02 -.172833897119158D+03 0.131666207776752D+03
 0.146832144679394D+04 0.608886140223133D+03 -.915669360844781D+03 0.973023720661180D+03
 0.145315185199234D+04 -.552936708118798D+03 0.983733100688004D+03 -.911983153583391D+03
 0.639849995887018D+02 0.419593015886978D+02 -.340871186142112D+02 0.342281394051090D+02
-.657712205412D-02 0.000000000000D+00 0.000000000000D+00 0.158930389399D-04 0.000000000000D+00  7 2 -2 24 -11 11 -24 21 2 0.40487947D+00 0.18162658D+00 0.18581959D+07 0.18581959D+07 0.18581959D+07 0.10304077D+01  1  2 13  1  7  1        2 -.381702077840D-03 0.100000000000D+01
-.205121294218D-01 0.000000000000D+00 0.000000000000D+00 0.158930389399D-04 0.000000000000D+00  7 2 -2 24 -11 11 -24 21 2 0.39205912D+00 0.18162658D+00 0.17851557D+07 0.17851557D+07 0.17851557D+07 0.10315106D+01  1  2  8  1  7  1        2 -.134402579154D-02 0.100000000000D+01
0.270374363328D-01 0.000000000000D+00 0.000000000000D+00 0.158930389399D-04 0.308132211617D-07  7 2 -2 24 -11 11 -24 21 2 0.40320645D+00 0.18320660D+00 0.18581959D+07 0.18581959D+07 0.18581959D+07 0.10304077D+01  1  2  1  1  7  1        2 0.155163105636D-02 0.100000000000D+01
  </mgrwgt>
  </event>
  <event>
  8     66 0.26993063E-05 0.68631989E+02 0.75467711E-02 0.10219589E+00
        2 -1    0    0  501    0 0.00000000E+00 0.00000000E+00 0.17149167E+04 0.17149167E+04 0.32000000E+00 0.0000E+00 0.9000E+01
       -2 -1    0    0    0  501 0.00000000E+00 0.00000000E+00 -.81694668E+02 0.81695295E+02 0.32000000E+00 0.0000E+00 0.9000E+01
       25  2    1    2    0    0 -.19716432E+03 0.34706739E+02 0.37881774E+03 0.52308472E+03 0.30006068E+03 0.0000E+00 0.0000E+00
       23  2    1    2    0    0 0.19716432E+03 -.34706739E+02 0.12544043E+04 0.12735273E+04 0.90903043E+02 0.0000E+00 0.0000E+00
       24  1    3    3    0    0 -.87597624E+02 0.56658169E+02 0.36097834E+03 0.38426042E+03 0.80419002E+02 0.0000E+00 0.9000E+01
      -11  1    4    4    0    0 0.14254192E+03 -.40332420E+02 0.65159706E+03 0.66822424E+03 0.51099893E-03 0.0000E+00 0.9000E+01
       11  1    4    4    0    0 0.54622398E+02 0.56256808E+01 0.60280722E+03 0.60530306E+03 0.51099893E-03 0.0000E+00 0.9000E+01
      -24  1    3    3    0    0 -.10956669E+03 -.21951429E+02 0.17839405E+02 0.13882430E+03 0.80419002E+02 0.0000E+00 0.9000E+01
#aMCatNLO 1  0  0  2  1 0.63963950D+02 0.00000000D+00  -5  7  0 0.00000000D+00 0.00000000D+00 0.00000000D+00 0.00000000D+00 0.00000000D+00
  <mgrwgt>
 0.9033487215D-03    6    2    0
 0.374299532093087D+03 0.000000000000000D+00 0.000000000000000D+00 0.374299532093087D+03
 0.374299532093087D+03 0.000000000000000D+00 0.000000000000000D+00 -.374299532093087D+03
 0.134663688961998D+03 -.875976243664753D+02 0.566581685851093D+02 0.279928796020428D+02
 0.182122890839710D+03 0.142541918091329D+03 -.403324199573170D+02 0.105942648895731D+03
 0.137559255327000D+03 0.546223981693195D+02 0.562568075936331D+01 0.126124121643502D+03
 0.294253229057466D+03 -.109566691894174D+03 -.219514293871555D+02 -.260059650141276D+03
 0.000000000000000D+00 -.000000000000000D+00 0.000000000000000D+00 0.000000000000000D+00
 0.408992045352415D+03 0.000000000000000D+00 0.000000000000000D+00 0.408992045352415D+03
 0.406353108950350D+03 0.000000000000000D+00 0.000000000000000D+00 -.406353108950350D+03
 0.126345854354949D+03 -.774350849558499D+02 0.521178018317869D+02 0.279928796020428D+02
 0.195312366604647D+03 0.157237551936717D+03 -.468980591774548D+02 0.105942648895731D+03
 0.142125662794872D+03 0.655120728028619D+02 0.760448295030763D+00 0.126124121643502D+03
 0.287542906559127D+03 -.869141632470755D+02 -.320720088793670D+02 -.260059650141276D+03
 0.640183639891679D+02 -.584003765366539D+02 0.260918179300042D+02 0.263893640206496D+01
0.130010873454D-04 0.000000000000D+00 0.000000000000D+00 0.283146382061D-05 0.000000000000D+00  7 2 -2 24 -11 11 -24 21 0 0.26383339D+00 0.12568461D-01 0.55801035D+05 0.55801035D+05 0.55801035D+05 0.11431256D+01  1  2  2  2  7  2       -2 0.709041437018D-03 0.100000000000D+01
-.536229220928D-06 0.000000000000D+00 -.499275986711D-07 0.283146382061D-05 0.000000000000D+00  7 2 -2 24 -11 11 -24 21 2 0.26383339D+00 0.12568461D-01 0.55801035D+05 0.55801035D+05 0.55801035D+05 0.11431256D+01  1  2  3  2  7  2       -2 -.382146893839D-04 0.100000000000D+01
0.787176508631D-06 0.000000000000D+00 0.000000000000D+00 0.283146382061D-05 0.000000000000D+00  7 2 -2 24 -11 11 -24 21 2 0.26383339D+00 0.12568461D-01 0.55801035D+05 0.55801035D+05 0.55801035D+05 0.11431256D+01  1  2 15  2  7  2       -2 0.560985947680D-04 0.100000000000D+01
0.115014314378D-04 0.000000000000D+00 0.000000000000D+00 0.283146382061D-05 0.000000000000D+00  7 2 -2 24 -11 11 -24 21 2 0.26383339D+00 0.14177762D-01 0.72750718D+05 0.72750718D+05 0.72750718D+05 0.11332394D+01  1  2 12  2  7  2       -2 0.662844034980D-03 0.100000000000D+01
-.926721332820D-05 0.000000000000D+00 0.000000000000D+00 0.283146382061D-05 0.000000000000D+00  7 2 -2 24 -11 11 -24 21 2 0.26383339D+00 0.12568461D-01 0.55801035D+05 0.55801035D+05 0.55801035D+05 0.11431256D+01  1  2  4  2  7  2       -2 -.660433383653D-03 0.100000000000D+01
0.218965198125D-06 0.000000000000D+00 0.000000000000D+00 0.283146382061D-05 0.000000000000D+00  7 2 21 24 -11 11 -24 2 2 0.26383339D+00 0.14177762D-01 0.72750718D+05 0.72750718D+05 0.72750718D+05 0.11332394D+01  1  2 12  4  7  2       -2 0.174012727731D-03 0.100000000000D+01
  </mgrwgt>
  </event>
  <event>
  8     66 0.26993063E-05 0.22591917E+03 0.75467711E-02 0.10114964E+00
        2 -1    0    0  501    0 0.00000000E+00 0.00000000E+00 0.33794526E+04 0.33794527E+04 0.32000000E+00 0.0000E+00 0.9000E+01
       -2 -1    0    0    0  501 0.00000000E+00 0.00000000E+00 -.31301768E+02 0.31303404E+02 0.32000000E+00 0.0000E+00 0.9000E+01
       25  2    1    2    0    0 0.15145076E+03 0.17084154E+03 0.15264500E+04 0.15722054E+04 0.29942647E+03 0.0000E+00 0.0000E+00
       23  2    1    2    0    0 -.15145076E+03 -.17084154E+03 0.18217009E+04 0.18385506E+04 0.97724700E+02 0.0000E+00 0.0000E+00
       24  1    3    3    0    0 0.17857099E+03 0.13608715E+03 0.67617052E+03 0.71699449E+03 0.80419002E+02 0.0000E+00 0.9000E+01
      -11  1    4    4    0    0 0.29915071E+01 -.88973658E+01 0.12869641E+02 0.15929215E+02 0.51099893E-03 0.0000E+00 0.9000E+01
       11  1    4    4    0    0 -.15444226E+03 -.16194417E+03 0.18088313E+04 0.18226214E+04 0.51099893E-03 0.0000E+00 0.9000E+01
      -24  1    3    3    0    0 -.27120234E+02 0.34754384E+02 0.85027945E+03 0.85521093E+03 0.80419002E+02 0.0000E+00 0.9000E+01
#aMCatNLO 1  0  0  1  2 0.20132747D+02 0.00000000D+00  -5  7  0 0.00000000D+00 0.00000000D+00 0.00000000D+00 0.00000000D+00 0.00000000D+00
  <mgrwgt>
 0.1747751521D-02    9    2    0
 0.325247073504973D+03 0.000000000000000D+00 0.000000000000000D+00 0.325247073504973D+03
 0.325247073504973D+03 0.000000000000000D+00 0.000000000000000D+00 -.325247073504973D+03
 0.279129931581391D+03 0.178570989182810D+03 0.136087151990419D+03 -.145048238995414D+03
 0.172809662383375D+02 0.299150709137496D+01 -.889736583798040D+01 -.145092922156097D+02
 0.246392846596619D+03 -.154442262639589D+03 -.161944170289647D+03 0.103107264894124D+03
 0.107690402593598D+03 -.271202336345955D+02 0.347543841372090D+02 0.564502663169005D+02
 0.000000000000000D+00 -.000000000000000D+00 -.000000000000000D+00 0.000000000000000D+00
 0.385640989857063D+03 0.000000000000000D+00 0.000000000000000D+00 0.385640989857063D+03
 0.327084999904960D+03 0.000000000000000D+00 0.000000000000000D+00 -.327084999904960D+03
 0.286195063998732D+03 0.185136618956796D+03 0.141865568015791D+03 -.145048238995414D+03
 0.171768130273115D+02 0.339169640417869D+01 -.854515890309500D+01 -.145092922156097D+02
 0.239611227427265D+03 -.148797858370121D+03 -.156976525569014D+03 0.103107264894124D+03
 0.107822521511682D+03 -.246172873961537D+02 0.369572291273671D+02 0.564502663169005D+02
 0.619203637970331D+02 -.151131695946997D+02 -.133011126710499D+02 0.585559899521031D+02
0.374760119109D-04 0.000000000000D+00 0.000000000000D+00 0.460133638649D-07 0.000000000000D+00  7 2 -2 24 -11 11 -24 21 0 0.51991592D+00 0.48157836D-02 0.79344119D+05 0.79344119D+05 0.79344119D+05 0.11300625D+01  1  2  2  1  7  1        2 0.937265586840D-03 0.100000000000D+01
-.202964755827D-05 0.000000000000D+00 -.143917753399D-06 0.460133638649D-07 0.000000000000D+00  7 2 -2 24 -11 11 -24 21 2 0.51991592D+00 0.48157836D-02 0.79344119D+05 0.79344119D+05 0.79344119D+05 0.11300625D+01  1  2  3  1  7  1        2 -.648238548907D-04 0.100000000000D+01
0.240146969671D-05 0.000000000000D+00 0.000000000000D+00 0.460133638649D-07 0.000000000000D+00  7 2 -2 24 -11 11 -24 21 2 0.51991592D+00 0.48157836D-02 0.79344119D+05 0.79344119D+05 0.79344119D+05 0.11300625D+01  1  2 15  1  7  1        2 0.766992882629D-04 0.100000000000D+01
0.263643135727D-03 0.000000000000D+00 0.000000000000D+00 0.460133638649D-07 0.000000000000D+00  7 2 -2 24 -11 11 -24 21 2 0.61775219D+00 0.48157836D-02 0.85322095D+05 0.85322095D+05 0.85322095D+05 0.11274235D+01  1  2 12  1  7  1        2 0.282840815208D-02 0.100000000000D+01
-.264570826771D-03 0.000000000000D+00 0.000000000000D+00 0.460133638649D-07 0.000000000000D+00  7 2 -2 24 -11 11 -24 21 2 0.51991592D+00 0.48157836D-02 0.79344119D+05 0.79344119D+05 0.79344119D+05 0.11300625D+01  1  2  4  1  7  1        2 -.844998966100D-02 0.100000000000D+01
-.302034307034D-03 0.000000000000D+00 -.165800404071D-04 0.460133638649D-07 0.000000000000D+00  7 2 -2 24 -11 11 -24 21 2 0.61707538D+00 0.48157836D-02 0.79344119D+05 0.79344119D+05 0.79344119D+05 0.11300625D+01  1  2  5  1  7  1        2 -.329545682732D-02 0.100000000000D+01
0.304205444249D-03 0.000000000000D+00 0.165574737428D-04 0.460133638649D-07 0.000000000000D+00  7 2 -2 24 -11 11 -24 21 2 0.51991592D+00 0.48157836D-02 0.79344119D+05 0.79344119D+05 0.79344119D+05 0.11300625D+01  1  2  6  1  7  1        2 0.971585903896D-02 0.100000000000D+01
0.672219330482D-05 0.000000000000D+00 0.000000000000D+00 0.460133638649D-07 0.000000000000D+00  7 21 -2 24 -11 11 -24 -2 2 0.61775219D+00 0.48157836D-02 0.85322095D+05 0.85322095D+05 0.85322095D+05 0.11274235D+01  1  2 12  3  7  1        2 0.143238103968D-05 0.100000000000D+01
-.751658639452D-05 0.000000000000D+00 -.420623607930D-06 0.460133638649D-07 0.000000000000D+00  7 21 -2 24 -11 11 -24 -2 2 0.61707538D+00 0.48157836D-02 0.79344119D+05 0.79344119D+05 0.79344119D+05 0.11300625D+01  1  2  5  3  7  1        2 -.164258281099D-05 0.100000000000D+01
  </mgrwgt>
  </event>
  <event>
  8     66 0.26993063E-05 0.11464655E+03 0.75467711E-02 0.10191072E+00
        4 -1    0    0  501    0 0.00000000E+00 0.00000000E+00 0.12500647E+03 0.12501608E+03 0.15500000E+01 0.0000E+00 0.9000E+01
       -4 -1    0    0    0  501 0.00000000E+00 0.00000000E+00 -.38831074E+03 0.38831383E+03 0.15500000E+01 0.0000E+00 0.9000E+01
       25  2    1    2    0    0 0.22738574E+01 0.80759642E+02 -.13921122E+03 0.33861764E+03 0.29791753E+03 0.0000E+00 0.0000E+00
       23  2    1    2    0    0 -.22738574E+01 -.80759642E+02 -.12409304E+03 0.17471227E+03 0.92725423E+02 0.0000E+00 0.0000E+00
       24  1    3    3    0    0 -.10073692E+03 -.50385199E+01 -.12824830E+03 0.18190151E+03 0.80419002E+02 0.0000E+00 0.9000E+01
      -13  1    4    4    0    0 -.20301277E+02 0.15186219E+02 -.24826910E+02 0.35484499E+02 0.10565837E+00 0.0000E+00 0.9000E+01
       13  1    4    4    0    0 0.18027419E+02 -.95945861E+02 -.99266134E+02 0.13922777E+03 0.10565837E+00 0.0000E+00 0.9000E+01
      -24  1    3    3    0    0 0.10301078E+03 0.85798162E+02 -.10962916E+02 0.15671614E+03 0.80419002E+02 0.0000E+00 0.9000E+01
#aMCatNLO 1  0  0  1  2 0.12457768D+03 0.00000000D+00  -5  7  0 0.00000000D+00 0.00000000D+00 0.00000000D+00 0.00000000D+00 0.00000000D+00
  <mgrwgt>
 0.5529524910D-04    7    2    0
 0.220328427440745D+03 0.000000000000000D+00 0.000000000000000D+00 0.220328427440745D+03
 0.220328427440745D+03 0.000000000000000D+00 0.000000000000000D+00 -.220328427440745D+03
 0.135268861451469D+03 -.100736907725455D+03 -.503849765389797D+01 -.407079585254677D+02
 0.265017470238652D+02 -.203013237998975D+02 0.151863508287700D+02 -.771839334280000D+01
 0.102875148245289D+03 0.180274653265202D+02 -.959460294367745D+02 -.324448155443809D+02
 0.176011098160866D+03 0.103010766198832D+03 0.857981762619025D+02 0.808711674126486D+02
 0.000000000000000D+00 -.000000000000000D+00 0.000000000000000D+00 0.000000000000000D+00
 0.526794438992248D+03 0.000000000000000D+00 0.000000000000000D+00 0.526794438992248D+03
 0.241991214779026D+03 0.000000000000000D+00 0.000000000000000D+00 -.241991214779026D+03
 0.123108979938632D+03 -.774140154076148D+02 -.322263450971134D+02 -.407079585254677D+02
 0.205449678477744D+02 -.160545762500459D+02 0.102358531399864D+02 -.771839334280000D+01
 0.130813156816541D+03 0.391217168520085D+02 -.120535916685241D+03 -.324448155443809D+02
 0.183460905124069D+03 0.135459085988123D+03 0.479726803415224D+02 0.808711674126486D+02
 0.310857644044258D+03 -.811122111824704D+02 0.945537283008452D+02 0.284803224213222D+03
0.665956482527D-05 0.000000000000D+00 0.000000000000D+00 0.107845036178D-07 0.000000000000D+00  7 4 -4 24 -13 13 -24 21 0 0.19232742D-01 0.59741090D-01 0.41678900D+05 0.41678900D+05 0.41678900D+05 0.11543145D+01  1  2  2  1  7  1        4 0.103577850082D-03 0.100000000000D+01
-.367360846691D-06 0.000000000000D+00 -.255744824327D-07 0.107845036178D-07 0.000000000000D+00  7 4 -4 24 -13 13 -24 21 2 0.19232742D-01 0.59741090D-01 0.41678900D+05 0.41678900D+05 0.41678900D+05 0.11543145D+01  1  2  3  1  7  1        4 -.761311215711D-05 0.100000000000D+01
0.433134817364D-06 0.000000000000D+00 0.000000000000D+00 0.107845036178D-07 0.000000000000D+00  7 4 -4 24 -13 13 -24 21 2 0.19232742D-01 0.59741090D-01 0.41678900D+05 0.41678900D+05 0.41678900D+05 0.11543145D+01  1  2 15  1  7  1        4 0.897619867072D-05 0.100000000000D+01
0.458263029580D-05 0.000000000000D+00 0.000000000000D+00 0.107845036178D-07 0.000000000000D+00  7 4 -4 24 -13 13 -24 21 2 0.45570262D-01 0.59741090D-01 0.75955906D+05 0.75955906D+05 0.75955906D+05 0.11316571D+01  1  2 12  1  7  1        4 0.169392892426D-04 0.100000000000D+01
-.104752890818D-04 0.000000000000D+00 -.226125981579D-05 0.107845036178D-07 0.000000000000D+00  7 4 -4 24 -13 13 -24 21 2 0.49260100D-01 0.59741090D-01 0.41678900D+05 0.41678900D+05 0.41678900D+05 0.11543145D+01  1  2  5  1  7  1        4 -.333478839263D-04 0.100000000000D+01
0.431766759535D-06 0.000000000000D+00 0.000000000000D+00 0.107845036178D-07 0.000000000000D+00  7 21 -4 24 -13 13 -24 -4 2 0.45570262D-01 0.59741090D-01 0.75955906D+05 0.75955906D+05 0.75955906D+05 0.11316571D+01  1  2 12  3  7  1        4 0.341716995570D-04 0.100000000000D+01
-.951069531886D-06 0.000000000000D+00 -.235031364972D-06 0.107845036178D-07 0.000000000000D+00  7 21 -4 24 -13 13 -24 -4 2 0.49260100D-01 0.59741090D-01 0.41678900D+05 0.41678900D+05 0.41678900D+05 0.11543145D+01  1  2  5  3  7  1        4 -.674087923729D-04 0.100000000000D+01
  </mgrwgt>
  </event>
  <event>
  8     66 0.26993063E-05 0.22882460E+03 0.75467711E-02 0.94394453E-01
        2 -1    0    0  501    0 0.00000000E+00 0.00000000E+00 0.68352588E+03 0.68352595E+03 0.32000000E+00 0.0000E+00 0.9000E+01
       -2 -1    0    0    0  501 0.00000000E+00 0.00000000E+00 -.40663761E+03 0.40663774E+03 0.32000000E+00 0.0000E+00 0.9000E+01
       25  2    1    2    0    0 0.38392471E+03 -.28373187E+03 0.19786908E+03 0.59769979E+03 0.30031802E+03 0.0000E+00 0.0000E+00
       23  2    1    2    0    0 -.38392471E+03 0.28373187E+03 0.79019186E+02 0.49246390E+03 0.91513426E+02 0.0000E+00 0.0000E+00
       24  1    3    3    0    0 0.12292762E+03 -.16870917E+02 -.32989128E+02 0.15149695E+03 0.80419002E+02 0.0000E+00 0.9000E+01
      -13  1    4    4    0    0 -.29340659E+03 0.26077490E+03 0.68715198E+02 0.39851319E+03 0.10565837E+00 0.0000E+00 0.9000E+01
       13  1    4    4    0    0 -.90518120E+02 0.22956970E+02 0.10303989E+02 0.93950710E+02 0.10565837E+00 0.0000E+00 0.9000E+01
      -24  1    3    3    0    0 0.26099709E+03 -.26686095E+03 0.23085821E+03 0.44620284E+03 0.80419002E+02 0.0000E+00 0.9000E+01
#aMCatNLO 1  0  0  2  1 0.48965542D+01 0.00000000D+00  -5  7  0 0.00000000D+00 0.00000000D+00 0.00000000D+00 0.00000000D+00 0.00000000D+00
  <mgrwgt>
 0.6425378151D-03   11    2    0
 0.527207208214323D+03 0.000000000000000D+00 0.000000000000000D+00 0.527207208214323D+03
 0.527207208214323D+03 0.000000000000000D+00 0.000000000000000D+00 -.527207208214323D+03
 0.165296273829546D+03 0.122927616040653D+03 -.168709165356093D+02 -.738905648738205D+02
 0.393980386539446D+03 -.293406857029185D+03 0.260775216339475D+03 -.336042820058145D+02
 0.944298340065896D+02 -.905178499570438D+02 0.229566528708019D+02 -.140180055156106D+02
 0.400707922053063D+03 0.260997090945576D+03 -.266860952674668D+03 0.121512852395246D+03
 0.000000000000000D+00 -.000000000000000D+00 0.000000000000000D+00 -.000000000000000D+00
 0.528792805974471D+03 0.000000000000000D+00 0.000000000000000D+00 0.528792805974471D+03
 0.531006811021230D+03 0.000000000000000D+00 0.000000000000000D+00 -.531006811021230D+03
 0.165627998944172D+03 0.123277858834411D+03 -.175548290709643D+02 -.738905648738205D+02
 0.392285680493952D+03 -.292574690740363D+03 0.259150260832703D+03 -.336042820058145D+02
 0.941443587341301D+02 -.903182672804917D+02 0.225669315210234D+02 -.140180055156106D+02
 0.402367747654159D+03 0.261847048139106D+03 -.268520648147435D+03 0.121512852395246D+03
 0.537383116928760D+01 -.223194895266206D+01 0.435828486467359D+01 -.221400504675911D+01
0.309381387827D-04 0.000000000000D+00 0.000000000000D+00 0.222069101135D-05 0.000000000000D+00  7 2 -2 24 -13 13 -24 21 0 0.10515784D+00 0.62559648D-01 0.25787574D+06 0.25787574D+06 0.25787574D+06 0.10894472D+01  1  2  2  2  7  2       -2 0.389141417731D-03 0.100000000000D+01
-.171585030701D-05 0.000000000000D+00 -.118810599125D-06 0.222069101135D-05 0.000000000000D+00  7 2 -2 24 -13 13 -24 21 2 0.10515784D+00 0.62559648D-01 0.25787574D+06 0.25787574D+06 0.25787574D+06 0.10894472D+01  1  2  3  2  7  2       -2 -.256156288988D-04 0.100000000000D+01
0.194759809351D-05 0.000000000000D+00 0.000000000000D+00 0.222069101135D-05 0.000000000000D+00  7 2 -2 24 -13 13 -24 21 2 0.10515784D+00 0.62559648D-01 0.25787574D+06 0.25787574D+06 0.25787574D+06 0.10894472D+01  1  2 15  2  7  2       -2 0.290753510394D-04 0.100000000000D+01
0.342848872214D-05 0.000000000000D+00 0.000000000000D+00 0.222069101135D-05 0.000000000000D+00  7 2 -2 24 -13 13 -24 21 2 0.10515784D+00 0.63104111D-01 0.26043085D+06 0.26043085D+06 0.26043085D+06 0.10891261D+01  1  2 12  2  7  2       -2 0.502182011327D-04 0.100000000000D+01
-.476004327642D-03 0.000000000000D+00 0.000000000000D+00 0.222069101135D-05 0.000000000000D+00  7 2 -2 24 -13 13 -24 21 2 0.10515784D+00 0.62559648D-01 0.25787574D+06 0.25787574D+06 0.25787574D+06 0.10894472D+01  1  2  4  2  7  2       -2 -.710618528976D-02 0.100000000000D+01
-.395557024558D-02 0.000000000000D+00 -.387321532133D-03 0.222069101135D-05 0.000000000000D+00  7 2 -2 24 -13 13 -24 21 2 0.10515784D+00 0.63165199D-01 0.25787574D+06 0.25787574D+06 0.25787574D+06 0.10894472D+01  1  2  5  2  7  2       -2 -.578701615670D-01 0.100000000000D+01
0.395913559898D-02 0.000000000000D+00 0.387303562032D-03 0.222069101135D-05 0.000000000000D+00  7 2 -2 24 -13 13 -24 21 2 0.10515784D+00 0.62559648D-01 0.25787574D+06 0.25787574D+06 0.25787574D+06 0.10894472D+01  1  2  6  2  7  2       -2 0.591052423684D-01 0.100000000000D+01
0.472777436025D-03 0.000000000000D+00 0.000000000000D+00 0.222069101135D-05 0.586003710617D-06  7 2 -2 24 -13 13 -24 21 2 0.10547411D+00 0.63010518D-01 0.26043085D+06 0.26043085D+06 0.26043085D+06 0.10891261D+01  1  2 11  2  7  2       -2 0.692128191555D-02 0.100000000000D+01
0.438049025933D-06 0.000000000000D+00 0.000000000000D+00 0.222069101135D-05 0.000000000000D+00  7 2 21 24 -13 13 -24 2 2 0.10515784D+00 0.63104111D-01 0.26043085D+06 0.26043085D+06 0.26043085D+06 0.10891261D+01  1  2 12  4  7  2       -2 0.644041001727D-04 0.100000000000D+01
-.702907341124D-05 0.000000000000D+00 -.689576731702D-06 0.222069101135D-05 0.000000000000D+00  7 2 21 24 -13 13 -24 2 2 0.10515784D+00 0.63165199D-01 0.25787574D+06 0.25787574D+06 0.25787574D+06 0.10894472D+01  1  2  5  4  7  2       -2 -.103234701485D-02 0.100000000000D+01
0.799281419658D-06 0.000000000000D+00 0.000000000000D+00 0.222069101135D-05 0.779822628857D-09  7 2 21 24 -13 13 -24 2 2 0.10547411D+00 0.63010518D-01 0.26043085D+06 0.26043085D+06 0.26043085D+06 0.10891261D+01  1  2 11  4  7  2       -2 0.117483961727D-03 0.100000000000D+01
  </mgrwgt>
  </event>
  <event>
  8     66 0.26993063E-05 0.15450667E+03 0.75467711E-02 0.95129519E-01
        2 -1    0    0  501    0 0.00000000E+00 0.00000000E+00 0.33063595E+04 0.33063595E+04 0.32000000E+00 0.0000E+00 0.9000E+01
       -2 -1    0    0    0  501 0.00000000E+00 0.00000000E+00 -.66774633E+02 0.66775399E+02 0.32000000E+00 0.0000E+00 0.9000E+01
       25  2    1    2    0    0 0.30092617E+03 0.27477006E+03 0.20898440E+04 0.21502394E+04 0.30004431E+03 0.0000E+00 0.0000E+00
       23  2    1    2    0    0 -.30092617E+03 -.27477006E+03 0.11497409E+04 0.12228955E+04 0.86684028E+02 0.0000E+00 0.0000E+00
       24  1    3    3    0    0 0.24865567E+03 0.62161072E+02 0.97990294E+03 0.10160564E+04 0.80419002E+02 0.0000E+00 0.9000E+01
      -11  1    4    4    0    0 -.43595974E+02 -.51939465E+02 0.29874022E+03 0.30633974E+03 0.51099893E-03 0.0000E+00 0.9000E+01
       11  1    4    4    0    0 -.25733019E+03 -.22283059E+03 0.85100065E+03 0.91655573E+03 0.51099893E-03 0.0000E+00 0.9000E+01
      -24  1    3    3    0    0 0.52270497E+02 0.21260899E+03 0.11099410E+04 0.11341830E+04 0.80419002E+02 0.0000E+00 0.9000E+01
#aMCatNLO 1  0  0  2  1 0.45684769D+02 0.00000000D+00  -5  7  0 0.00000000D+00 0.00000000D+00 0.00000000D+00 0.00000000D+00 0.00000000D+00
  <mgrwgt>
 0.8528220303D-03    9    2    0
 0.469874726444128D+03 0.000000000000000D+00 0.000000000000000D+00 0.469874726444128D+03
 0.469874726444128D+03 0.000000000000000D+00 0.000000000000000D+00 -.469874726444128D+03
 0.269025554013635D+03 0.248655671352725D+03 0.621610718113268D+02 0.146250132774511D+02
 0.697323901657574D+02 -.435959744619939D+02 -.519394650166013D+02 0.162569745871684D+02
 0.356241024620989D+03 -.257330193518153D+03 -.222830593519296D+03 -.105049348968763D+03
 0.244750484087874D+03 0.522704966274218D+02 0.212608986724570D+03 0.741673611041431D+02
 0.000000000000000D+00 -.000000000000000D+00 0.000000000000000D+00 -.000000000000000D+00
 0.491413117153397D+03 0.000000000000000D+00 0.000000000000000D+00 0.491413117153397D+03
 0.495295579927687D+03 0.000000000000000D+00 0.000000000000000D+00 -.495295579927687D+03
 0.270769646969630D+03 0.253271310332817D+03 0.498872540296606D+02 0.146250132774511D+02
 0.714321314497901D+02 -.423889158082900D+02 -.551492520106117D+02 0.162569745871684D+02
 0.362397801621050D+03 -.251185312324382D+03 -.239170942577713D+03 -.105049348968763D+03
 0.236259672074471D+03 0.563834810010486D+02 0.201671818337165D+03 0.741673611041431D+02
 0.458494449661429D+02 -.160805632011934D+02 0.427611222214998D+02 -.388246277428978D+01
0.759076228348D-04 0.000000000000D+00 0.000000000000D+00 0.338153133188D-06 0.000000000000D+00  7 2 -2 24 -11 11 -24 21 0 0.50867075D+00 0.10273081D-01 0.20706195D+06 0.20706195D+06 0.20706195D+06 0.10966698D+01  1  2  2  2  7  2       -2 0.645224857994D-03 0.100000000000D+01
-.421181362137D-05 0.000000000000D+00 -.291505258622D-06 0.338153133188D-06 0.000000000000D+00  7 2 -2 24 -11 11 -24 21 2 0.50867075D+00 0.10273081D-01 0.20706195D+06 0.20706195D+06 0.20706195D+06 0.10966698D+01  1  2  3  2  7  2       -2 -.430572835153D-04 0.100000000000D+01
0.489888125624D-05 0.000000000000D+00 0.000000000000D+00 0.338153133188D-06 0.000000000000D+00  7 2 -2 24 -11 11 -24 21 2 0.50867075D+00 0.10273081D-01 0.20706195D+06 0.20706195D+06 0.20706195D+06 0.10966698D+01  1  2 15  2  7  2       -2 0.500811617322D-04 0.100000000000D+01
0.109640035905D-03 0.000000000000D+00 0.000000000000D+00 0.338153133188D-06 0.000000000000D+00  7 2 -2 24 -11 11 -24 21 2 0.50867075D+00 0.11052714D-01 0.22885289D+06 0.22885289D+06 0.22885289D+06 0.10933585D+01  1  2 12  2  7  2       -2 0.988389275298D-03 0.100000000000D+01
-.898660797518D-04 0.000000000000D+00 0.000000000000D+00 0.338153133188D-06 0.000000000000D+00  7 2 -2 24 -11 11 -24 21 2 0.50867075D+00 0.10273081D-01 0.20706195D+06 0.20706195D+06 0.20706195D+06 0.10966698D+01  1  2  4  2  7  2       -2 -.918699074111D-03 0.100000000000D+01
-.358186325435D-03 0.000000000000D+00 -.807759501996D-04 0.338153133188D-06 0.000000000000D+00  7 2 -2 24 -11 11 -24 21 2 0.50867075D+00 0.11674562D-01 0.20706195D+06 0.20706195D+06 0.20706195D+06 0.10966698D+01  1  2  5  2  7  2       -2 -.299637123601D-02 0.100000000000D+01
0.366174037619D-03 0.000000000000D+00 0.801198897120D-04 0.338153133188D-06 0.000000000000D+00  7 2 -2 24 -11 11 -24 21 2 0.50867075D+00 0.10273081D-01 0.20706195D+06 0.20706195D+06 0.20706195D+06 0.10966698D+01  1  2  6  2  7  2       -2 0.374338961100D-02 0.100000000000D+01
0.135982439281D-05 0.000000000000D+00 0.000000000000D+00 0.338153133188D-06 0.000000000000D+00  7 2 21 24 -11 11 -24 2 2 0.50867075D+00 0.11052714D-01 0.22885289D+06 0.22885289D+06 0.22885289D+06 0.10933585D+01  1  2 12  4  7  2       -2 0.172676437430D-03 0.100000000000D+01
-.674791810903D-05 0.000000000000D+00 -.161643016933D-05 0.338153133188D-06 0.000000000000D+00  7 2 21 24 -11 11 -24 2 2 0.50867075D+00 0.11674562D-01 0.20706195D+06 0.20706195D+06 0.20706195D+06 0.10966698D+01  1  2  5  4  7  2       -2 -.788811719548D-03 0.100000000000D+01
  </mgrwgt>
  </event>
  <event>
  8     66 0.26993063E-05 0.34428825E+03 0.75467711E-02 0.93706410E-01
        2 -1    0    0  501    0 0.00000000E+00 0.00000000E+00 0.57360127E+03 0.57360136E+03 0.32000000E+00 0.0000E+00 0.9000E+01
       -2 -1    0    0    0  501 0.00000000E+00 0.00000000E+00 -.43791990E+03 0.43792001E+03 0.32000000E+00 0.0000E+00 0.9000E+01
       25  2    1    2    0    0 0.43348515E+03 -.85846080E+02 0.17458193E+03 0.56192349E+03 0.30000039E+03 0.0000E+00 0.0000E+00
       23  2    1    2    0    0 -.43348515E+03 0.85846080E+02 -.38900567E+02 0.44959788E+03 0.73116864E+02 0.0000E+00 0.0000E+00
       24  1    3    3    0    0 0.37412070E+02 -.30542328E+02 0.11699371E+03 0.14995746E+03 0.80419002E+02 0.0000E+00 0.9000E+01
      -13  1    4    4    0    0 -.75461734E+02 0.54271640E+01 -.33171002E+02 0.82609042E+02 0.10565837E+00 0.0000E+00 0.9000E+01
       13  1    4    4    0    0 -.35802342E+03 0.80418916E+02 -.57295653E+01 0.36698884E+03 0.10565837E+00 0.0000E+00 0.9000E+01
      -24  1    3    3    0    0 0.39607308E+03 -.55303752E+02 0.57588228E+02 0.41196603E+03 0.80419002E+02 0.0000E+00 0.9000E+01
#aMCatNLO 1  0  0  1  2 0.13196332D+03 0.00000000D+00  -5  7  0 0.00000000D+00 0.00000000D+00 0.00000000D+00 0.00000000D+00 0.00000000D+00
  <mgrwgt>
 0.9581538450D-02    9    2    0
 0.501190095818771D+03 0.000000000000000D+00 0.000000000000000D+00 0.501190095818771D+03
 0.501190095818771D+03 0.000000000000000D+00 0.000000000000000D+00 -.501190095818771D+03
 0.135488821229114D+03 0.374120701852662D+02 -.305423276781628D+02 0.977625078858803D+02
 0.878518016055423D+02 -.754611437920941D+02 0.542700743976265D+01 -.446553738443337D+02
 0.371111723042260D+03 -.358024005261030D+03 0.804190725239656D+02 -.554571493193593D+02
 0.407927845760625D+03 0.396073078867858D+03 -.553037522855655D+02 0.235001527781273D+01
 0.000000000000000D+00 0.000000000000000D+00 0.000000000000000D+00 0.000000000000000D+00
 0.580067195655275D+03 0.000000000000000D+00 0.000000000000000D+00 0.580067195655275D+03
 0.563910820913761D+03 0.000000000000000D+00 0.000000000000000D+00 -.563910820913761D+03
 0.132030401342944D+03 0.199224843497524D+02 -.317867518567947D+02 0.977625078858803D+02
 0.984685393066533D+02 -.876421959196970D+02 0.456029761991175D+01 -.446553738443337D+02
 0.420577494823036D+03 -.409782216868333D+03 0.767363569598218D+02 -.554571493193593D+02
 0.359952923934710D+03 0.345871390540921D+03 -.588757176453930D+02 0.235001527781273D+01
 0.132948657161693D+03 0.131630537897357D+03 0.936581492245424D+01 0.161563747415139D+02
0.460446140706D-03 0.000000000000D+00 0.000000000000D+00 0.213769710758D-07 0.000000000000D+00  7 2 -2 24 -13 13 -24 21 0 0.88246364D-01 0.67372308D-01 0.22293913D+06 0.22293913D+06 0.22293913D+06 0.10942219D+01  1  2  2  1  7  1        2 0.611510532566D-02 0.100000000000D+01
-.254696452391D-04 0.000000000000D+00 -.176823441856D-05 0.213769710758D-07 0.000000000000D+00  7 2 -2 24 -13 13 -24 21 2 0.88246364D-01 0.67372308D-01 0.22293913D+06 0.22293913D+06 0.22293913D+06 0.10942219D+01  1  2  3  1  7  1        2 -.405003540759D-03 0.100000000000D+01
0.292511934234D-04 0.000000000000D+00 0.000000000000D+00 0.213769710758D-07 0.000000000000D+00  7 2 -2 24 -13 13 -24 21 2 0.88246364D-01 0.67372308D-01 0.22293913D+06 0.22293913D+06 0.22293913D+06 0.10942219D+01  1  2 15  1  7  1        2 0.465135528848D-03 0.100000000000D+01
0.361364993720D-03 0.000000000000D+00 0.000000000000D+00 0.213769710758D-07 0.000000000000D+00  7 2 -2 24 -13 13 -24 21 2 0.10689717D+00 0.67372308D-01 0.29447608D+06 0.29447608D+06 0.29447608D+06 0.10851495D+01  1  2 12  1  7  1        2 0.446775722178D-02 0.100000000000D+01
-.329913453652D-03 0.000000000000D+00 0.000000000000D+00 0.213769710758D-07 0.000000000000D+00  7 2 -2 24 -13 13 -24 21 2 0.88246364D-01 0.67372308D-01 0.22293913D+06 0.22293913D+06 0.22293913D+06 0.10942219D+01  1  2  4  1  7  1        2 -.524609257877D-02 0.100000000000D+01
-.903894415960D-03 0.000000000000D+00 -.289125871592D-03 0.213769710758D-07 0.000000000000D+00  7 2 -2 24 -13 13 -24 21 2 0.11222359D+00 0.67372308D-01 0.22293913D+06 0.22293913D+06 0.22293913D+06 0.10942219D+01  1  2  5  1  7  1        2 -.107905398583D-01 0.100000000000D+01
0.953857704620D-03 0.000000000000D+00 0.280970430961D-03 0.213769710758D-07 0.000000000000D+00  7 2 -2 24 -13 13 -24 21 2 0.88246364D-01 0.67372308D-01 0.22293913D+06 0.22293913D+06 0.22293913D+06 0.10942219D+01  1  2  6  1  7  1        2 0.151676925267D-01 0.100000000000D+01
0.100104471808D-04 0.000000000000D+00 0.000000000000D+00 0.213769710758D-07 0.000000000000D+00  7 21 -2 24 -13 13 -24 -2 2 0.10689717D+00 0.67372308D-01 0.29447608D+06 0.29447608D+06 0.29447608D+06 0.10851495D+01  1  2 12  3  7  1        2 0.149132808441D-03 0.100000000000D+01
-.251718404768D-04 0.000000000000D+00 -.950435963283D-05 0.213769710758D-07 0.000000000000D+00  7 21 -2 24 -13 13 -24 -2 2 0.11222359D+00 0.67372308D-01 0.22293913D+06 0.22293913D+06 0.22293913D+06 0.10942219D+01  1  2  5  3  7  1        2 -.341648984001D-03 0.100000000000D+01
  </mgrwgt>
  </event>
  <event>
  8     66 0.26993063E-05 0.32529776E+03 0.75467711E-02 0.98973195E-01
        2 -1    0    0  501    0 0.00000000E+00 0.00000000E+00 0.12395862E+03 0.12395904E+03 0.32000000E+00 0.0000E+00 0.9000E+01
       -2 -1    0    0    0  501 0.00000000E+00 0.00000000E+00 -.10798655E+04 0.10798655E+04 0.32000000E+00 0.0000E+00 0.9000E+01
       25  2    1    2    0    0 0.23142754E+03 0.17404763E+03 -.65457623E+03 0.77609604E+03 0.30000622E+03 0.0000E+00 0.0000E+00
       23  2    1    2    0    0 -.23142754E+03 -.17404763E+03 -.30133061E+03 0.42772851E+03 0.91105752E+02 0.0000E+00 0.0000E+00
       24  1    3    3    0    0 0.58989096E+02 0.13994404E+02 -.42806624E+03 0.43975388E+03 0.80419002E+02 0.0000E+00 0.9000E+01
      -13  1    4    4    0    0 -.20847429E+03 -.18221881E+03 -.26040863E+03 0.38010247E+03 0.10565837E+00 0.0000E+00 0.9000E+01
       13  1    4    4    0    0 -.22953248E+02 0.81711767E+01 -.40921987E+02 0.47626042E+02 0.10565837E+00 0.0000E+00 0.9000E+01
      -24  1    3    3    0    0 0.17243844E+03 0.16005323E+03 -.22650999E+03 0.33634216E+03 0.80419002E+02 0.0000E+00 0.9000E+01
#aMCatNLO 1  0  0  1  2 0.41122913D+02 0.00000000D+00  -5  7  0 0.00000000D+00 0.00000000D+00 0.00000000D+00 0.00000000D+00 0.00000000D+00
  <mgrwgt>
 0.1357432868D-02    4    2    0
 0.365867343056600D+03 0.000000000000000D+00 0.000000000000000D+00 0.365867343056600D+03
 0.365867343056600D+03 0.000000000000000D+00 0.000000000000000D+00 -.365867343056600D+03
 0.164260454399029D+03 0.589890957637254D+02 0.139944036592251D+02 -.129764109723011D+03
 0.285145089954933D+03 -.208474540562431D+03 -.182219064137333D+03 0.681344327605713D+02
 0.248936337856093D+02 -.229529985138720D+02 0.817143259838478D+01 -.510691213594586D+01
 0.257435507973630D+03 0.172438443312578D+03 0.160053227879723D+03 0.667365890983851D+02
 0.000000000000000D+00 0.000000000000000D+00 -.000000000000000D+00 -.000000000000000D+00
 0.367811088636993D+03 0.000000000000000D+00 0.000000000000000D+00 0.367811088636993D+03
 0.675844191542761D+03 0.000000000000000D+00 0.000000000000000D+00 -.675844191542761D+03
 0.164964452448047D+03 0.580478025397063D+02 0.231901501767265D+02 -.129764109723011D+03
 0.276600740955046D+03 -.210080638804877D+03 -.166528658700569D+03 0.681344327605713D+02
 0.255211094211874D+02 -.230971402698093D+02 0.957959215628228D+01 -.510691213594586D+01
 0.265803009995097D+03 0.170942442064596D+03 0.174668066184373D+03 0.667365890983851D+02
 0.310765967360376D+03 0.418753447038374D+01 -.409091498168124D+02 -.308033102905768D+03
0.164182788389D-03 0.000000000000D+00 0.000000000000D+00 0.235546855425D-05 0.000000000000D+00  7 2 -2 24 -13 13 -24 21 0 0.19070593D-01 0.16613318D+00 0.10581863D+06 0.10581863D+06 0.10581863D+06 0.11197120D+01  1  2  2  1  7  1        2 0.136198625355D-02 0.100000000000D+01
-.896807506249D-05 0.000000000000D+00 -.630505137735D-06 0.235546855425D-05 0.000000000000D+00  7 2 -2 24 -13 13 -24 21 2 0.19070593D-01 0.16613318D+00 0.10581863D+06 0.10581863D+06 0.10581863D+06 0.11197120D+01  1  2  3  1  7  1        2 -.932732245668D-04 0.100000000000D+01
0.104796872207D-04 0.000000000000D+00 0.000000000000D+00 0.235546855425D-05 0.000000000000D+00  7 2 -2 24 -13 13 -24 21 2 0.19070593D-01 0.16613318D+00 0.10581863D+06 0.10581863D+06 0.10581863D+06 0.11197120D+01  1  2 15  1  7  1        2 0.108994874900D-03 0.100000000000D+01
-.194941308198D-05 0.000000000000D+00 0.000000000000D+00 0.235546855425D-05 0.000000000000D+00  7 2 -2 24 -13 13 -24 21 2 0.19070593D-01 0.16613318D+00 0.10581863D+06 0.10581863D+06 0.10581863D+06 0.11197120D+01  1  2  4  1  7  1        2 -.202750359360D-04 0.100000000000D+01
  </mgrwgt>
  </event>
  <event>
  8     66 0.26993063E-05 0.27420176E+03 0.75467711E-02 0.93495029E-01
        2 -1    0    0  501    0 0.00000000E+00 0.00000000E+00 0.10797062E+04 0.10797063E+04 0.32000000E+00 0.0000E+00 0.9000E+01
       -2 -1    0    0    0  501 0.00000000E+00 0.00000000E+00 -.29502421E+03 0.29502439E+03 0.32000000E+00 0.0000E+00 0.9000E+01
       25  2    1    2    0    0 0.33399634E+03 0.22122416E+03 0.14127801E+02 0.50123175E+03 0.30089863E+03 0.0000E+00 0.0000E+00
       23  2    1    2    0    0 -.33399634E+03 -.22122416E+03 0.77055422E+03 0.87349892E+03 0.93556751E+02 0.0000E+00 0.0000E+00
       24  1    3    3    0    0 0.34421202E+03 0.17134133E+03 0.56829289E+02 0.39690874E+03 0.80419002E+02 0.0000E+00 0.9000E+01
      -11  1    4    4    0    0 -.19931263E+03 -.17522046E+03 0.55518135E+03 0.61534874E+03 0.51099893E-03 0.0000E+00 0.9000E+01
       11  1    4    4    0    0 -.13468371E+03 -.46003698E+02 0.21537286E+03 0.25815018E+03 0.51099893E-03 0.0000E+00 0.9000E+01
      -24  1    3    3    0    0 -.10215677E+02 0.49882828E+02 -.42701488E+02 0.10432301E+03 0.80419002E+02 0.0000E+00 0.9000E+01
#aMCatNLO 1  0  0  2  1 0.20152315D+03 0.00000000D+00  -5  7  0 0.00000000D+00 0.00000000D+00 0.00000000D+00 0.00000000D+00 0.00000000D+00
  <mgrwgt>
 0.1042399887D-02    9    2    0
 0.564393153553944D+03 0.000000000000000D+00 0.000000000000000D+00 0.564393153553944D+03
 0.564393153553944D+03 0.000000000000000D+00 0.000000000000000D+00 -.564393153553944D+03
 0.443883572177192D+03 0.344212017850562D+03 0.171341333722393D+03 -.206701823455648D+03
 0.363485942543156D+03 -.199312628209677D+03 -.175220463892747D+03 0.248383364370177D+03
 0.164679308728542D+03 -.134683712625798D+03 -.460036981294809D+02 0.828446258670622D+02
 0.156737483658998D+03 -.102156770150870D+02 0.498828282998356D+02 -.124526166781591D+03
 0.000000000000000D+00 -.000000000000000D+00 -.000000000000000D+00 -.000000000000000D+00
 0.655231541133530D+03 0.000000000000000D+00 0.000000000000000D+00 0.655231541133530D+03
 0.697262276893579D+03 0.000000000000000D+00 0.000000000000000D+00 -.697262276893579D+03
 0.512413976578353D+03 0.428906570323835D+03 0.171506202662253D+03 -.206701823455648D+03
 0.333588970721663D+03 -.137576144731143D+03 -.175100285814175D+03 0.248383364370177D+03
 0.143222019868353D+03 -.107414412118466D+03 -.459506148964502D+02 0.828446258670622D+02
 0.157409283881905D+03 0.176067511846148D+02 0.499369882677163D+02 -.124526166781591D+03
 0.205859566976835D+03 -.201522764658841D+03 -.392290219343880D+00 -.420307357600496D+02
0.611321462819D-04 0.000000000000D+00 0.000000000000D+00 0.314480589559D-06 0.000000000000D+00  7 2 -2 24 -11 11 -24 21 0 0.16610867D+00 0.45388357D-01 0.20057348D+06 0.20057348D+06 0.20057348D+06 0.10977299D+01  1  2  2  2  7  2       -2 0.803884065709D-03 0.100000000000D+01
-.317534518593D-05 0.000000000000D+00 -.234763538186D-06 0.314480589559D-06 0.000000000000D+00  7 2 -2 24 -11 11 -24 21 2 0.16610867D+00 0.45388357D-01 0.20057348D+06 0.20057348D+06 0.20057348D+06 0.10977299D+01  1  2  3  2  7  2       -2 -.503159527784D-04 0.100000000000D+01
0.385214745933D-05 0.000000000000D+00 0.000000000000D+00 0.314480589559D-06 0.000000000000D+00  7 2 -2 24 -11 11 -24 21 2 0.16610867D+00 0.45388357D-01 0.20057348D+06 0.20057348D+06 0.20057348D+06 0.10977299D+01  1  2 15  2  7  2       -2 0.610404407427D-04 0.100000000000D+01
0.260522977433D-04 0.000000000000D+00 0.000000000000D+00 0.314480589559D-06 0.000000000000D+00  7 2 -2 24 -11 11 -24 21 2 0.16610867D+00 0.59007520D-01 0.30591667D+06 0.30591667D+06 0.30591667D+06 0.10839249D+01  1  2 12  2  7  2       -2 0.235020982635D-03 0.100000000000D+01
-.328759118838D-04 0.000000000000D+00 0.000000000000D+00 0.314480589559D-06 0.000000000000D+00  7 2 -2 24 -11 11 -24 21 2 0.16610867D+00 0.45388357D-01 0.20057348D+06 0.20057348D+06 0.20057348D+06 0.10977299D+01  1  2  4  2  7  2       -2 -.520945828889D-03 0.100000000000D+01
-.562391114267D-04 0.000000000000D+00 -.269017414361D-04 0.314480589559D-06 0.000000000000D+00  7 2 -2 24 -11 11 -24 21 2 0.16610867D+00 0.64365521D-01 0.20057348D+06 0.20057348D+06 0.20057348D+06 0.10977299D+01  1  2  5  2  7  2       -2 -.440881347579D-03 0.100000000000D+01
0.632969696730D-04 0.000000000000D+00 0.253398904290D-04 0.314480589559D-06 0.000000000000D+00  7 2 -2 24 -11 11 -24 21 2 0.16610867D+00 0.45388357D-01 0.20057348D+06 0.20057348D+06 0.20057348D+06 0.10977299D+01  1  2  6  2  7  2       -2 0.100299247817D-02 0.100000000000D+01
0.913658690298D-06 0.000000000000D+00 0.000000000000D+00 0.314480589559D-06 0.000000000000D+00  7 2 21 24 -11 11 -24 2 2 0.16610867D+00 0.59007520D-01 0.30591667D+06 0.30591667D+06 0.30591667D+06 0.10839249D+01  1  2 12  4  7  2       -2 0.833584922834D-04 0.100000000000D+01
-.166741541289D-05 0.000000000000D+00 -.116049677198D-05 0.314480589559D-06 0.000000000000D+00  7 2 21 24 -11 11 -24 2 2 0.16610867D+00 0.64365521D-01 0.20057348D+06 0.20057348D+06 0.20057348D+06 0.10977299D+01  1  2  5  4  7  2       -2 -.131753443713D-03 0.100000000000D+01
  </mgrwgt>
  </event>
  <event>
  8     66 0.26993063E-05 0.37526554E+03 0.75467711E-02 0.90012622E-01
        2 -1    0    0  501    0 0.00000000E+00 0.00000000E+00 0.17558907E+04 0.17558908E+04 0.32000000E+00 0.0000E+00 0.9000E+01
       -2 -1    0    0    0  501 0.00000000E+00 0.00000000E+00 -.83237659E+02 0.83238274E+02 0.32000000E+00 0.0000E+00 0.9000E+01
       25  2    1    2    0    0 0.23369860E+02 -.31422569E+03 0.97403806E+03 0.10669379E+04 0.30053678E+03 0.0000E+00 0.0000E+00
       23  2    1    2    0    0 -.23369860E+02 0.31422569E+03 0.69861503E+03 0.77219117E+03 0.94510954E+02 0.0000E+00 0.0000E+00
       24  1    3    3    0    0 0.10267444E+02 0.25984329E+02 0.17155261E+03 0.19151533E+03 0.80419002E+02 0.0000E+00 0.9000E+01
      -13  1    4    4    0    0 -.21116860E+02 0.16787940E+03 0.26377469E+03 0.31337919E+03 0.10565837E+00 0.0000E+00 0.9000E+01
       13  1    4    4    0    0 -.22530008E+01 0.14634628E+03 0.43484034E+03 0.45881199E+03 0.10565837E+00 0.0000E+00 0.9000E+01
      -24  1    3    3    0    0 0.13102416E+02 -.34021002E+03 0.80248544E+03 0.87542254E+03 0.80419002E+02 0.0000E+00 0.9000E+01
#aMCatNLO 1  0  0  1  2 0.58326744D+03 0.00000000D+00  -5  7  0 0.00000000D+00 0.00000000D+00 0.00000000D+00 0.00000000D+00 0.00000000D+00
  <mgrwgt>
 0.9288633322D-03    3    2    0
 0.382304627117577D+03 0.000000000000000D+00 0.000000000000000D+00 0.382304627117577D+03
 0.382304627117577D+03 0.000000000000000D+00 0.000000000000000D+00 -.382304627117577D+03
 0.853683032291085D+02 0.102674441152996D+02 0.259843281995592D+02 -.631866451105529D+01
 0.176745490037246D+03 -.211168823192733D+02 0.167879431194966D+03 -.510836775425842D+02
 0.152335849998399D+03 -.225297806764036D+01 0.146346258260120D+03 0.422363348057549D+02
 0.350159610970400D+03 0.131024162716140D+02 -.340210017654645D+03 0.151660072478847D+02
 0.000000000000000D+00 -.000000000000000D+00 -.000000000000000D+00 -.000000000000000D+00
 0.757757827848483D+03 0.000000000000000D+00 0.000000000000000D+00 0.757757827848483D+03
 0.787971531145049D+03 0.000000000000000D+00 0.000000000000000D+00 -.787971531145049D+03
 0.117846016923647D+03 0.782803719292196D+02 0.353938638723961D+02 -.631866451105529D+01
 0.223893642065202D+03 0.112971307679506D+03 0.186430428007684D+03 -.510836775425842D+02
 0.205195743917549D+03 0.117407735163210D+03 0.162901224881515D+03 0.422363348057549D+02
 0.414744492009199D+03 0.269104884510156D+03 -.304792275254033D+03 0.151660072478847D+02
 0.584049464077937D+03 -.577764299282091D+03 -.799332415075623D+02 -.302137032965653D+02
0.185844622750D-04 0.000000000000D+00 0.000000000000D+00 0.227042648665D-06 0.000000000000D+00  7 2 -2 24 -13 13 -24 21 0 0.27013709D+00 0.12805843D-01 0.14082423D+06 0.14082423D+06 0.14082423D+06 0.11097218D+01  1  2  2  1  7  1        2 0.918251087243D-03 0.100000000000D+01
-.103203658499D-05 0.000000000000D+00 -.713692285374D-07 0.227042648665D-06 0.000000000000D+00  7 2 -2 24 -13 13 -24 21 2 0.27013709D+00 0.12805843D-01 0.14082423D+06 0.14082423D+06 0.14082423D+06 0.11097218D+01  1  2  3  1  7  1        2 -.627964000972D-04 0.100000000000D+01
0.120644507083D-05 0.000000000000D+00 0.000000000000D+00 0.227042648665D-06 0.000000000000D+00  7 2 -2 24 -13 13 -24 21 2 0.27013709D+00 0.12805843D-01 0.14082423D+06 0.14082423D+06 0.14082423D+06 0.11097218D+01  1  2 15  1  7  1        2 0.734086450663D-04 0.100000000000D+01
  </mgrwgt>
  </event>
  <event>
  8     66 0.26993063E-05 0.18491255E+03 0.75467711E-02 0.96182212E-01
        2 -1    0    0  501    0 0.00000000E+00 0.00000000E+00 0.24946071E+04 0.24946072E+04 0.32000000E+00 0.0000E+00 0.9000E+01
       -2 -1    0    0    0  501 0.00000000E+00 0.00000000E+00 -.61250975E+02 0.61251811E+02 0.32000000E+00 0.0000E+00 0.9000E+01
       25  2    1    2    0    0 0.18805693E+03 -.26326560E+03 0.12461304E+04 0.13220180E+04 0.30036043E+03 0.0000E+00 0.0000E+00
       23  2    1    2    0    0 -.18805693E+03 0.26326560E+03 0.11872258E+04 0.12338410E+04 0.90467562E+02 0.0000E+00 0.0000E+00
       24  1    3    3    0    0 0.75559159E+02 -.78702434E+02 0.87234680E+03 0.88281335E+03 0.80419002E+02 0.0000E+00 0.9000E+01
      -11  1    4    4    0    0 -.23226996E+02 0.19532996E+02 0.24153746E+03 0.24343660E+03 0.51099893E-03 0.0000E+00 0.9000E+01
       11  1    4    4    0    0 -.16482993E+03 0.24373261E+03 0.94568830E+03 0.99040439E+03 0.51099893E-03 0.0000E+00 0.9000E+01
      -24  1    3    3    0    0 0.11249777E+03 -.18456317E+03 0.37378360E+03 0.43920463E+03 0.80419002E+02 0.0000E+00 0.9000E+01
#aMCatNLO 1  0  0  1  2 0.16713493D+03 0.00000000D+00  -5  7  0 0.00000000D+00 0.00000000D+00 0.00000000D+00 0.00000000D+00 0.00000000D+00
  <mgrwgt>
 0.1803617065D-02    9    2    0
 0.390894121332661D+03 0.000000000000000D+00 0.000000000000000D+00 0.390894121332661D+03
 0.390894121332661D+03 0.000000000000000D+00 0.000000000000000D+00 -.390894121332661D+03
 0.170910683324849D+03 0.755591589836608D+02 -.787024338366419D+02 0.104115254031613D+03
 0.440566088287352D+02 -.232269961337280D+02 0.195329962660248D+02 0.319367106785191D+02
 0.294373172801465D+03 -.164829932354362D+03 0.243732608303212D+03 0.900410545087376D+01
 0.272447777710272D+03 0.112497769504429D+03 -.184563170732595D+03 -.145056070161006D+03
 0.000000000000000D+00 0.000000000000000D+00 0.000000000000000D+00 0.000000000000000D+00
 0.492444114899103D+03 0.000000000000000D+00 0.000000000000000D+00 0.492444114899103D+03
 0.475047871326129D+03 0.000000000000000D+00 0.000000000000000D+00 -.475047871326129D+03
 0.163069313758650D+03 0.412646333467704D+02 -.870725504854182D+02 0.104115254031613D+03
 0.488860172289870D+02 -.327707511487913D+02 0.172036932282975D+02 0.319367106785191D+02
 0.322903688681588D+03 -.228214618072223D+03 0.228262582013249D+03 0.900410545087376D+01
 0.264595132155243D+03 0.573518565715398D+02 -.198022395357502D+03 -.145056070161006D+03
 0.168037834400764D+03 0.162368879302704D+03 0.396286706013741D+02 0.173962435729742D+02
0.375735282807D-04 0.000000000000D+00 0.000000000000D+00 0.169156072146D-05 0.000000000000D+00  7 2 -2 24 -11 11 -24 21 0 0.38378578D+00 0.94232928D-02 0.11928172D+06 0.11928172D+06 0.11928172D+06 0.11154919D+01  1  2  2  1  7  1        2 0.118393889758D-02 0.100000000000D+01
-.204851032413D-05 0.000000000000D+00 -.144292241935D-06 0.169156072146D-05 0.000000000000D+00  7 2 -2 24 -11 11 -24 21 2 0.38378578D+00 0.94232928D-02 0.11928172D+06 0.11928172D+06 0.11928172D+06 0.11154919D+01  1  2  3  1  7  1        2 -.803190054223D-04 0.100000000000D+01
0.241713361181D-05 0.000000000000D+00 0.000000000000D+00 0.169156072146D-05 0.000000000000D+00  7 2 -2 24 -11 11 -24 21 2 0.38378578D+00 0.94232928D-02 0.11928172D+06 0.11928172D+06 0.11928172D+06 0.11154919D+01  1  2 15  1  7  1        2 0.947721695061D-04 0.100000000000D+01
0.109080702337D-04 0.000000000000D+00 0.000000000000D+00 0.169156072146D-05 0.000000000000D+00  7 2 -2 24 -11 11 -24 21 2 0.51552645D+00 0.94232928D-02 0.19084694D+06 0.19084694D+06 0.19084694D+06 0.10993913D+01  1  2 12  1  7  1        2 0.120076300413D-03 0.100000000000D+01
-.146742419711D-04 0.000000000000D+00 0.000000000000D+00 0.169156072146D-05 0.000000000000D+00  7 2 -2 24 -11 11 -24 21 2 0.38378578D+00 0.94232928D-02 0.11928172D+06 0.11928172D+06 0.11928172D+06 0.11154919D+01  1  2  4  1  7  1        2 -.575354933077D-03 0.100000000000D+01
-.341946251048D-04 0.000000000000D+00 -.134825001344D-04 0.169156072146D-05 0.000000000000D+00  7 2 -2 24 -11 11 -24 21 2 0.51613215D+00 0.94232928D-02 0.11928172D+06 0.11928172D+06 0.11928172D+06 0.11154919D+01  1  2  5  1  7  1        2 -.394549833176D-03 0.100000000000D+01
0.371189346209D-04 0.000000000000D+00 0.129116450270D-04 0.169156072146D-05 0.000000000000D+00  7 2 -2 24 -11 11 -24 21 2 0.38378578D+00 0.94232928D-02 0.11928172D+06 0.11928172D+06 0.11928172D+06 0.11154919D+01  1  2  6  1  7  1        2 0.145537753751D-02 0.100000000000D+01
0.416667992778D-06 0.000000000000D+00 0.000000000000D+00 0.169156072146D-05 0.000000000000D+00  7 21 -2 24 -11 11 -24 -2 2 0.51552645D+00 0.94232928D-02 0.19084694D+06 0.19084694D+06 0.19084694D+06 0.10993913D+01  1  2 12  3  7  1        2 0.202243407049D-06 0.100000000000D+01
-.101343899354D-05 0.000000000000D+00 -.516487809184D-06 0.169156072146D-05 0.000000000000D+00  7 21 -2 24 -11 11 -24 -2 2 0.51613215D+00 0.94232928D-02 0.11928172D+06 0.11928172D+06 0.11928172D+06 0.11154919D+01  1  2  5  3  7  1        2 -.526312043029D-06 0.100000000000D+01
  </mgrwgt>
  </event>
  <event>
  8     66 0.26993063E-05 0.13741758E+03 0.75467711E-02 0.10209176E+00
        2 -1    0    0  501    0 0.00000000E+00 0.00000000E+00 0.65203186E+03 0.65203194E+03 0.32000000E+00 0.0000E+00 0.9000E+01
       -2 -1    0    0    0  501 0.00000000E+00 0.00000000E+00 -.11630916E+03 0.11630960E+03 0.32000000E+00 0.0000E+00 0.9000E+01
       25  2    1    2    0    0 -.48572285E+02 0.16337883E+03 0.40257081E+03 0.53331037E+03 0.30545832E+03 0.0000E+00 0.0000E+00
       23  2    1    2    0    0 0.48572285E+02 -.16337883E+03 0.13315189E+03 0.23503116E+03 0.91969079E+02 0.0000E+00 0.0000E+00
       24  1    3    3    0    0 0.88713856E+02 0.14049749E+03 0.17252410E+03 0.25266870E+03 0.80419002E+02 0.0000E+00 0.9000E+01
      -13  1    4    4    0    0 0.30894689E+02 -.10031985E+03 0.23902722E+02 0.10765642E+03 0.10565837E+00 0.0000E+00 0.9000E+01
       13  1    4    4    0    0 0.17677596E+02 -.63058988E+02 0.10924917E+03 0.12737475E+03 0.10565837E+00 0.0000E+00 0.9000E+01
      -24  1    3    3    0    0 -.13728614E+03 0.22881338E+02 0.23004671E+03 0.28064167E+03 0.80419002E+02 0.0000E+00 0.9000E+01
#aMCatNLO 1  0  0  2  1 0.28403261D+02 0.00000000D+00  -5  7  0 0.00000000D+00 0.00000000D+00 0.00000000D+00 0.00000000D+00 0.00000000D+00
  <mgrwgt>
 0.1026147205D-02    6    2    0
 0.275386048433560D+03 0.000000000000000D+00 0.000000000000000D+00 0.275386048433560D+03
 0.275386048433560D+03 0.000000000000000D+00 0.000000000000000D+00 -.275386048433560D+03
 0.184669398963374D+03 0.887137142926459D+02 0.140497506941137D+03 -.508904694920388D+01
 0.126934091205586D+03 0.308947322351722D+02 -.100319981892915D+03 -.713700235624887D+02
 0.714270555701147D+02 0.176775931242136D+02 -.630589874849445D+02 0.285112445558700D+02
 0.167741551128046D+03 -.137286039652032D+03 0.228814624367227D+02 0.479478259558226D+02
 0.000000000000000D+00 0.000000000000000D+00 -.000000000000000D+00 0.000000000000000D+00
 0.291989620181674D+03 0.000000000000000D+00 0.000000000000000D+00 0.291989620181674D+03
 0.288172916800154D+03 0.000000000000000D+00 0.000000000000000D+00 -.288172916800154D+03
 0.188964294635255D+03 0.839685812147400D+02 0.148874670990607D+03 -.508904694920388D+01
 0.121816025526615D+03 0.277356156264145D+02 -.947428067856052D+02 -.713700235624887D+02
 0.682431193217731D+02 0.159037874470726D+02 -.599274712755300D+02 0.285112445558700D+02
 0.172480547751520D+03 -.141606846803226D+03 0.305095120061248D+02 0.479478259558226D+02
 0.286585497466643D+02 0.139988625149986D+02 -.247139049355964D+02 0.381670338151952D+01
0.468317589403D-05 0.000000000000D+00 0.000000000000D+00 0.118478608672D-07 0.000000000000D+00  7 2 -2 24 -13 13 -24 21 0 0.10031263D+00 0.17893757D-01 0.66512773D+05 0.66512773D+05 0.66512773D+05 0.11365511D+01  1  2  2  2  7  2       -2 0.617424661260D-03 0.100000000000D+01
-.258815158023D-06 0.000000000000D+00 -.179846285416D-07 0.118478608672D-07 0.000000000000D+00  7 2 -2 24 -13 13 -24 21 2 0.10031263D+00 0.17893757D-01 0.66512773D+05 0.66512773D+05 0.66512773D+05 0.11365511D+01  1  2  3  2  7  2       -2 -.440769093591D-04 0.100000000000D+01
0.301321979885D-06 0.000000000000D+00 0.000000000000D+00 0.118478608672D-07 0.000000000000D+00  7 2 -2 24 -13 13 -24 21 2 0.10031263D+00 0.17893757D-01 0.66512773D+05 0.66512773D+05 0.66512773D+05 0.11365511D+01  1  2 15  2  7  2       -2 0.513159341081D-04 0.100000000000D+01
0.713363502364D-05 0.000000000000D+00 0.000000000000D+00 0.118478608672D-07 0.000000000000D+00  7 2 -2 24 -13 13 -24 21 2 0.10031263D+00 0.19236391D-01 0.73902984D+05 0.73902984D+05 0.73902984D+05 0.11326619D+01  1  2 12  2  7  2       -2 0.107253679780D-02 0.100000000000D+01
-.494196157547D-05 0.000000000000D+00 0.000000000000D+00 0.118478608672D-07 0.000000000000D+00  7 2 -2 24 -13 13 -24 21 2 0.10031263D+00 0.17893757D-01 0.66512773D+05 0.66512773D+05 0.66512773D+05 0.11365511D+01  1  2  4  2  7  2       -2 -.841629192363D-03 0.100000000000D+01
0.871165325341D-07 0.000000000000D+00 0.000000000000D+00 0.118478608672D-07 0.000000000000D+00  7 2 21 24 -13 13 -24 2 2 0.10031263D+00 0.19236391D-01 0.73902984D+05 0.73902984D+05 0.73902984D+05 0.11326619D+01  1  2 12  4  7  2       -2 0.170575913941D-03 0.100000000000D+01
  </mgrwgt>
  </event>
  <event>
  8     66 0.26993063E-05 0.18352850E+03 0.75467711E-02 0.98810899E-01
        2 -1    0    0  501    0 0.00000000E+00 0.00000000E+00 0.13967299E+04 0.13967300E+04 0.32000000E+00 0.0000E+00 0.9000E+01
       -2 -1    0    0    0  501 0.00000000E+00 0.00000000E+00 -.14946246E+03 0.14946280E+03 0.32000000E+00 0.0000E+00 0.9000E+01
       25  2    1    2    0    0 -.46502900E+02 -.26140769E+03 0.11957168E+04 0.12615628E+04 0.30216819E+03 0.0000E+00 0.0000E+00
       23  2    1    2    0    0 0.46502900E+02 0.26140769E+03 0.51550724E+02 0.28462999E+03 0.88658067E+02 0.0000E+00 0.0000E+00
       24  1    3    3    0    0 -.13562006E+03 -.12719642E+03 0.43547860E+03 0.48029216E+03 0.80419002E+02 0.0000E+00 0.9000E+01
      -13  1    4    4    0    0 0.63719077E+02 0.20391640E+03 0.14567781E+02 0.21413606E+03 0.10565837E+00 0.0000E+00 0.9000E+01
       13  1    4    4    0    0 -.17216177E+02 0.57491284E+02 0.36982943E+02 0.70493927E+02 0.10565837E+00 0.0000E+00 0.9000E+01
      -24  1    3    3    0    0 0.89117156E+02 -.13421127E+03 0.76023816E+03 0.78127064E+03 0.80419002E+02 0.0000E+00 0.9000E+01
#aMCatNLO 1  0  0  1  2 0.41479197D+02 0.00000000D+00  -5  7  0 0.00000000D+00 0.00000000D+00 0.00000000D+00 0.00000000D+00 0.00000000D+00
  <mgrwgt>
 0.1000874227D-02    9    2    0
 0.456901502845419D+03 0.000000000000000D+00 0.000000000000000D+00 0.456901502845419D+03
 0.456901502845419D+03 0.000000000000000D+00 0.000000000000000D+00 -.456901502845419D+03
 0.218281145432724D+03 -.135620054506238D+03 -.127196421913584D+03 0.812878438953712D+02
 0.342443679426384D+03 0.637191919141499D+02 0.203916611405231D+03 -.267629508376591D+03
 0.687995367168995D+02 -.172162919359513D+02 0.574910759779305D+02 -.336415179106998D+02
 0.284278644114831D+03 0.891171545280392D+02 -.134211265469577D+03 0.219983182391920D+03
 0.000000000000000D+00 -.000000000000000D+00 0.000000000000000D+00 0.000000000000000D+00
 0.691664520518265D+03 0.000000000000000D+00 0.000000000000000D+00 0.691664520518265D+03
 0.459207836058265D+03 0.000000000000000D+00 0.000000000000000D+00 -.459207836058265D+03
 0.212380158495762D+03 -.125850963947384D+03 -.127247542517215D+03 0.812878438953712D+02
 0.345640142412094D+03 0.793276366625048D+02 0.203834934087115D+03 -.267629508376591D+03
 0.680752540522508D+02 -.141114338629120D+02 0.574748285884805D+02 -.336415179106998D+02
 0.288648374790142D+03 0.102113390503366D+03 -.134279273379216D+03 0.219983182391920D+03
 0.236128426826280D+03 -.414786293555750D+02 0.217053220835133D+00 0.232456684460000D+03
0.326439099604D-04 0.000000000000D+00 0.000000000000D+00 0.725424465087D-07 0.000000000000D+00  7 2 -2 24 -13 13 -24 21 0 0.21488156D+00 0.22994253D-01 0.10768072D+06 0.10768072D+06 0.10768072D+06 0.11190943D+01  1  2  2  1  7  1        2 0.977154953866D-03 0.100000000000D+01
-.157195992957D-05 0.000000000000D+00 -.125361209587D-06 0.725424465087D-07 0.000000000000D+00  7 2 -2 24 -13 13 -24 21 2 0.21488156D+00 0.22994253D-01 0.10768072D+06 0.10768072D+06 0.10768072D+06 0.11190943D+01  1  2  3  1  7  1        2 -.589299499260D-04 0.100000000000D+01
0.201846294546D-05 0.000000000000D+00 0.000000000000D+00 0.725424465087D-07 0.000000000000D+00  7 2 -2 24 -13 13 -24 21 2 0.21488156D+00 0.22994253D-01 0.10768072D+06 0.10768072D+06 0.10768072D+06 0.11190943D+01  1  2 15  1  7  1        2 0.756685447676D-04 0.100000000000D+01
0.503495218823D-03 0.000000000000D+00 0.000000000000D+00 0.725424465087D-07 0.000000000000D+00  7 2 -2 24 -13 13 -24 21 2 0.32560862D+00 0.22994253D-01 0.12336930D+06 0.12336930D+06 0.12336930D+06 0.11143134D+01  1  2 12  1  7  1        2 0.763126980743D-02 0.100000000000D+01
-.466438766208D-03 0.000000000000D+00 0.000000000000D+00 0.725424465087D-07 0.000000000000D+00  7 2 -2 24 -13 13 -24 21 2 0.21488156D+00 0.22994253D-01 0.10768072D+06 0.10768072D+06 0.10768072D+06 0.11190943D+01  1  2  4  1  7  1        2 -.174859502581D-01 0.100000000000D+01
-.505669908394D-03 0.000000000000D+00 -.117139642133D-04 0.725424465087D-07 0.000000000000D+00  7 2 -2 24 -13 13 -24 21 2 0.32573963D+00 0.22994253D-01 0.10768072D+06 0.10768072D+06 0.10768072D+06 0.11190943D+01  1  2  5  1  7  1        2 -.776511791515D-02 0.100000000000D+01
0.470209664413D-03 0.000000000000D+00 0.107686100541D-04 0.725424465087D-07 0.000000000000D+00  7 2 -2 24 -13 13 -24 21 2 0.21488156D+00 0.22994253D-01 0.10768072D+06 0.10768072D+06 0.10768072D+06 0.11190943D+01  1  2  6  1  7  1        2 0.176273144482D-01 0.100000000000D+01
0.246520919777D-04 0.000000000000D+00 0.000000000000D+00 0.725424465087D-07 0.000000000000D+00  7 21 -2 24 -13 13 -24 -2 2 0.32560862D+00 0.22994253D-01 0.12336930D+06 0.12336930D+06 0.12336930D+06 0.11143134D+01  1  2 12  3  7  1        2 0.687412768703D-04 0.100000000000D+01
-.243549119170D-04 0.000000000000D+00 -.573949155095D-06 0.725424465087D-07 0.000000000000D+00  7 21 -2 24 -13 13 -24 -2 2 0.32573963D+00 0.22994253D-01 0.10768072D+06 0.10768072D+06 0.10768072D+06 0.11190943D+01  1  2  5  3  7  1        2 -.692766814649D-04 0.100000000000D+01
  </mgrwgt>
  </event>
  <event>
  8     66 0.26993063E-05 0.11188661E+03 0.75467711E-02 0.10037086E+00
        2 -1    0    0  501    0 0.00000000E+00 0.00000000E+00 0.18997962E+04 0.18997962E+04 0.32000000E+00 0.0000E+00 0.9000E+01
       -2 -1    0    0    0  501 0.00000000E+00 0.00000000E+00 -.11420948E+03 0.11420993E+03 0.32000000E+00 0.0000E+00 0.9000E+01
       25  2    1    2    0    0 -.14230775E+03 -.13106342E+02 0.18121828E+04 0.18425237E+04 0.30077224E+03 0.0000E+00 0.0000E+00
       23  2    1    2    0    0 0.14230775E+03 0.13106342E+02 -.26596065E+02 0.17148244E+03 0.90970339E+02 0.0000E+00 0.0000E+00
       24  1    3    3    0    0 0.57230348E+02 0.39520410E+02 0.44550792E+03 0.45801932E+03 0.80419002E+02 0.0000E+00 0.9000E+01
      -11  1    4    4    0    0 0.67961997E+02 0.46791361E+02 0.78621477E+01 0.82885933E+02 0.51099893E-03 0.0000E+00 0.9000E+01
       11  1    4    4    0    0 0.74345757E+02 -.33685019E+02 -.34458213E+02 0.88596504E+02 0.51099893E-03 0.0000E+00 0.9000E+01
      -24  1    3    3    0    0 -.19953810E+03 -.52626752E+02 0.13666748E+04 0.13845044E+04 0.80419002E+02 0.0000E+00 0.9000E+01
#aMCatNLO 1  0  0  2  1 0.11816023D+03 0.00000000D+00  -5  7  0 0.00000000D+00 0.00000000D+00 0.00000000D+00 0.00000000D+00 0.00000000D+00
  <mgrwgt>
 0.8751679411D-03    9    2    0
 0.465805983299621D+03 0.000000000000000D+00 0.000000000000000D+00 0.465805983299621D+03
 0.465805983299621D+03 0.000000000000000D+00 0.000000000000000D+00 -.465805983299621D+03
 0.136280674413025D+03 0.572303480374069D+02 0.395204099495233D+02 0.852527461436711D+02
 0.164117933546310D+03 0.679619971278977D+02 0.467913609583571D+02 -.141867655219798D+03
 0.257577228950336D+03 0.743457566217387D+02 -.336850193937689D+02 -.244303206721721D+03
 0.373636129689572D+03 -.199538101787043D+03 -.526267515141115D+02 0.300918115797848D+03
 0.000000000000000D+00 0.000000000000000D+00 0.000000000000000D+00 -.000000000000000D+00
 0.519408345624528D+03 0.000000000000000D+00 0.000000000000000D+00 0.519408345624528D+03
 0.539528031284597D+03 0.000000000000000D+00 0.000000000000000D+00 -.539528031284597D+03
 0.129282080102217D+03 0.483700548625888D+02 0.252774078722168D+02 0.852527461436711D+02
 0.155840324916977D+03 0.572868405952588D+02 0.296309494832516D+02 -.141867655219798D+03
 0.258287675562516D+03 0.571343283816348D+02 -.613525472441941D+02 -.244303206721721D+03
 0.395665367324991D+03 -.225205243310025D+03 -.938869155761037D+02 0.300918115797848D+03
 0.119860929002423D+03 0.624140194705423D+02 0.100331105464829D+03 -.201196856600688D+02
0.297969145634D-04 0.000000000000D+00 0.000000000000D+00 0.150927066836D-05 0.000000000000D+00  7 2 -2 24 -11 11 -24 21 0 0.29227637D+00 0.17570726D-01 0.60499430D+05 0.60499430D+05 0.60499430D+05 0.11400844D+01  1  2  2  2  7  2       -2 0.760780639038D-03 0.100000000000D+01
-.834648005306D-06 0.000000000000D+00 -.114427997631D-06 0.150927066836D-05 0.000000000000D+00  7 2 -2 24 -11 11 -24 21 2 0.29227637D+00 0.17570726D-01 0.60499430D+05 0.60499430D+05 0.60499430D+05 0.11400844D+01  1  2  3  2  7  2       -2 -.276990911810D-04 0.100000000000D+01
0.186217994158D-05 0.000000000000D+00 0.000000000000D+00 0.150927066836D-05 0.000000000000D+00  7 2 -2 24 -11 11 -24 21 2 0.29227637D+00 0.17570726D-01 0.60499430D+05 0.60499430D+05 0.60499430D+05 0.11400844D+01  1  2 15  2  7  2       -2 0.617993353717D-04 0.100000000000D+01
0.146233644272D-04 0.000000000000D+00 0.000000000000D+00 0.150927066836D-05 0.000000000000D+00  7 2 -2 24 -11 11 -24 21 2 0.29227637D+00 0.21226122D-01 0.96281611D+05 0.96281611D+05 0.96281611D+05 0.11230750D+01  1  2 12  2  7  2       -2 0.340179010918D-03 0.100000000000D+01
-.197335502806D-04 0.000000000000D+00 0.000000000000D+00 0.150927066836D-05 0.000000000000D+00  7 2 -2 24 -11 11 -24 21 2 0.29227637D+00 0.17570726D-01 0.60499430D+05 0.60499430D+05 0.60499430D+05 0.11400844D+01  1  2  4  2  7  2       -2 -.654888533937D-03 0.100000000000D+01
-.290624084432D-04 0.000000000000D+00 -.163724624328D-04 0.150927066836D-05 0.000000000000D+00  7 2 -2 24 -11 11 -24 21 2 0.29227637D+00 0.23039164D-01 0.60499430D+05 0.60499430D+05 0.60499430D+05 0.11400844D+01  1  2  5  2  7  2       -2 -.617662739963D-03 0.100000000000D+01
0.328679105002D-04 0.000000000000D+00 0.157892825107D-04 0.150927066836D-05 0.000000000000D+00  7 2 -2 24 -11 11 -24 21 2 0.29227637D+00 0.17570726D-01 0.60499430D+05 0.60499430D+05 0.60499430D+05 0.11400844D+01  1  2  6  2  7  2       -2 0.109077268991D-02 0.100000000000D+01
0.400609743712D-06 0.000000000000D+00 0.000000000000D+00 0.150927066836D-05 0.000000000000D+00  7 2 21 24 -11 11 -24 2 2 0.29227637D+00 0.21226122D-01 0.96281611D+05 0.96281611D+05 0.96281611D+05 0.11230750D+01  1  2 12  4  7  2       -2 0.118347562099D-03 0.100000000000D+01
-.730771011278D-06 0.000000000000D+00 -.587806890360D-06 0.150927066836D-05 0.000000000000D+00  7 2 21 24 -11 11 -24 2 2 0.29227637D+00 0.23039164D-01 0.60499430D+05 0.60499430D+05 0.60499430D+05 0.11400844D+01  1  2  5  4  7  2       -2 -.196460931202D-03 0.100000000000D+01
  </mgrwgt>
  </event>
  <event>
  8     66 0.26993063E-05 0.48050689E+03 0.75467711E-02 0.82356994E-01
        2 -1    0    0  501    0 0.00000000E+00 0.00000000E+00 0.61673618E+03 0.61673627E+03 0.32000000E+00 0.0000E+00 0.9000E+01
       -2 -1    0    0    0  501 0.00000000E+00 0.00000000E+00 -.41289808E+03 0.41289820E+03 0.32000000E+00 0.0000E+00 0.9000E+01
       25  2    1    2    0    0 -.81827133E+02 -.43619436E+03 0.16637882E+01 0.53381020E+03 0.29663000E+03 0.0000E+00 0.0000E+00
       23  2    1    2    0    0 0.81827133E+02 0.43619436E+03 0.20217432E+03 0.49582427E+03 0.89476535E+02 0.0000E+00 0.0000E+00
       24  1    3    3    0    0 0.47458979E+02 -.29402639E+03 0.66612872E+02 0.31560793E+03 0.80419002E+02 0.0000E+00 0.9000E+01
      -11  1    4    4    0    0 0.41504274E+02 0.27097166E+03 0.17049717E+03 0.32282740E+03 0.51099893E-03 0.0000E+00 0.9000E+01
       11  1    4    4    0    0 0.40322859E+02 0.16522271E+03 0.31677141E+02 0.17299687E+03 0.51099893E-03 0.0000E+00 0.9000E+01
      -24  1    3    3    0    0 -.12928611E+03 -.14216797E+03 -.64949084E+02 0.21820227E+03 0.80419002E+02 0.0000E+00 0.9000E+01
#aMCatNLO 1  0  0  1  1 0.16072861D+04 0.00000000D+00  -5  7  0 0.00000000D+00 0.00000000D+00 0.00000000D+00 0.00000000D+00 0.00000000D+00
  <mgrwgt>
 0.3314950093D-02    3    2    0
 0.504627874267545D+03 0.000000000000000D+00 0.000000000000000D+00 0.504627874267545D+03
 0.504627874267545D+03 0.000000000000000D+00 0.000000000000000D+00 -.504627874267545D+03
 0.308526910966390D+03 0.474589785656518D+02 -.294026390269331D+03 0.421497506328532D+01
 0.294910776806263D+03 0.415042738567894D+02 0.270971656030984D+03 0.108738784046541D+03
 0.170092202882096D+03 0.403228587239914D+02 0.165222708419668D+03 -.262319806319812D+01
 0.235725857880341D+03 -.129286111146433D+03 -.142167974181320D+03 -.110330561046628D+03
 0.000000000000000D+00 0.000000000000000D+00 0.000000000000000D+00 -.000000000000000D+00
 0.104652795984125D+04 0.000000000000000D+00 0.000000000000000D+00 0.104652795984125D+04
 0.756714962605822D+04 0.000000000000000D+00 0.000000000000000D+00 -.756714962605822D+04
 0.717330001622481D+03 -.462411962592927D+03 -.542450482633679D+03 0.421497506328532D+01
 0.306139153107958D+03 -.257229291894870D+03 0.125419891966949D+03 0.108738784046541D+03
 0.146876339373490D+03 -.117216703542708D+03 0.884648083152775D+02 -.262319806319812D+01
 0.727539090023201D+03 -.608047622177437D+03 -.375434638813361D+03 -.110330561046628D+03
 0.671579300177234D+04 0.144490558020794D+04 0.704000421164813D+03 -.652062166621696D+04
0.237507196491D-03 0.000000000000D+00 0.000000000000D+00 0.473689392667D-07 0.000000000000D+00  7 2 -2 24 -11 11 -24 21 0 0.94882506D-01 0.63522797D-01 0.23088688D+06 0.23088688D+06 0.23088688D+06 0.10930671D+01  1  2  2  1  7  1        2 0.328040134111D-02 0.100000000000D+01
-.131563569039D-04 0.000000000000D+00 -.912090171605D-06 0.473689392667D-07 0.000000000000D+00  7 2 -2 24 -11 11 -24 21 2 0.94882506D-01 0.63522797D-01 0.23088688D+06 0.23088688D+06 0.23088688D+06 0.10930671D+01  1  2  3  1  7  1        2 -.217109855566D-03 0.100000000000D+01
0.152499316235D-04 0.000000000000D+00 0.000000000000D+00 0.473689392667D-07 0.000000000000D+00  7 2 -2 24 -11 11 -24 21 2 0.94882506D-01 0.63522797D-01 0.23088688D+06 0.23088688D+06 0.23088688D+06 0.10930671D+01  1  2 15  1  7  1        2 0.251658607040D-03 0.100000000000D+01
  </mgrwgt>
  </event>
  <event>
  8     66 0.26993063E-05 0.15903319E+03 0.75467711E-02 0.10012799E+00
        2 -1    0    0  501    0 0.00000000E+00 0.00000000E+00 0.19214008E+04 0.19214008E+04 0.32000000E+00 0.0000E+00 0.9000E+01
       -2 -1    0    0    0  501 0.00000000E+00 0.00000000E+00 -.68651313E+02 0.68652059E+02 0.32000000E+00 0.0000E+00 0.9000E+01
       25  2    1    2    0    0 0.22597461E+03 0.70390165E+02 0.59538902E+03 0.70757575E+03 0.30025998E+03 0.0000E+00 0.0000E+00
       23  2    1    2    0    0 -.22597461E+03 -.70390165E+02 0.12573604E+04 0.12824771E+04 0.88164424E+02 0.0000E+00 0.0000E+00
       24  1    3    3    0    0 0.30923680E+02 0.13215601E+03 0.19520106E+03 0.25098238E+03 0.80419002E+02 0.0000E+00 0.9000E+01
      -11  1    4    4    0    0 -.17770090E+03 -.18178481E+02 0.80662078E+03 0.82616291E+03 0.51099893E-03 0.0000E+00 0.9000E+01
       11  1    4    4    0    0 -.48273701E+02 -.52211684E+02 0.45073965E+03 0.45631419E+03 0.51099893E-03 0.0000E+00 0.9000E+01
      -24  1    3    3    0    0 0.19505093E+03 -.61765848E+02 0.40018796E+03 0.45659337E+03 0.80419002E+02 0.0000E+00 0.9000E+01
#aMCatNLO 1  0  0  1  2 0.53073067D+01 0.00000000D+00  -5  7  0 0.00000000D+00 0.00000000D+00 0.00000000D+00 0.00000000D+00 0.00000000D+00
  <mgrwgt>
 0.8158184433D-03   11    2    0
 0.363190658485235D+03 0.000000000000000D+00 0.000000000000000D+00 0.363190658485235D+03
 0.363190658485235D+03 0.000000000000000D+00 0.000000000000000D+00 -.363190658485235D+03
 0.189720664010292D+03 0.309236797381032D+02 0.132156012866157D+03 -.105381348885421D+03
 0.206009763637099D+03 -.177700904269931D+03 -.181784808130661D+02 0.102625309601439D+03
 0.100473013708451D+03 -.482737013574146D+02 -.522116839222693D+02 0.709818026180985D+02
 0.230177875614629D+03 0.195050925889242D+03 -.617658481308217D+02 -.682257633341160D+02
 0.000000000000000D+00 -.000000000000000D+00 -.000000000000000D+00 0.000000000000000D+00
 0.389480068946197D+03 0.000000000000000D+00 0.000000000000000D+00 0.389480068946197D+03
 0.363468311424248D+03 0.000000000000000D+00 0.000000000000000D+00 -.363468311424248D+03
 0.190628988104572D+03 0.317704838664083D+02 0.133257655740246D+03 -.105381348885421D+03
 0.205118685720044D+03 -.176785574740264D+03 -.169876903810219D+02 0.102625309601439D+03
 0.999582857807849D+02 -.478274644517008D+02 -.516311556856873D+02 0.709818026180985D+02
 0.230694746030401D+03 0.196077005015283D+03 -.604309789212009D+02 -.682257633341160D+02
 0.265476747346424D+02 -.323444968972655D+01 -.420783075233634D+01 0.260117575219493D+02
0.699775886312D-05 0.000000000000D+00 0.000000000000D+00 0.183309599067D-06 0.000000000000D+00  7 2 -2 24 -11 11 -24 21 0 0.29560018D+00 0.10561800D-01 0.98386524D+05 0.98386524D+05 0.98386524D+05 0.11223022D+01  1  2  2  1  7  1        2 0.384120423376D-03 0.100000000000D+01
-.378605960273D-06 0.000000000000D+00 -.268732365866D-07 0.183309599067D-06 0.000000000000D+00  7 2 -2 24 -11 11 -24 21 2 0.29560018D+00 0.10561800D-01 0.98386524D+05 0.98386524D+05 0.98386524D+05 0.11223022D+01  1  2  3  1  7  1        2 -.261767373847D-04 0.100000000000D+01
0.447297539360D-06 0.000000000000D+00 0.000000000000D+00 0.183309599067D-06 0.000000000000D+00  7 2 -2 24 -11 11 -24 21 2 0.29560018D+00 0.10561800D-01 0.98386524D+05 0.98386524D+05 0.98386524D+05 0.11223022D+01  1  2 15  1  7  1        2 0.309260588824D-04 0.100000000000D+01
0.208848167260D-03 0.000000000000D+00 0.000000000000D+00 0.183309599067D-06 0.000000000000D+00  7 2 -2 24 -11 11 -24 21 2 0.31710551D+00 0.10561800D-01 0.10001867D+06 0.10001867D+06 0.10001867D+06 0.11217154D+01  1  2 12  1  7  1        2 0.121267145576D-01 0.100000000000D+01
-.440641165524D-03 0.000000000000D+00 0.000000000000D+00 0.183309599067D-06 0.000000000000D+00  7 2 -2 24 -11 11 -24 21 2 0.29560018D+00 0.10561800D-01 0.98386524D+05 0.98386524D+05 0.98386524D+05 0.11223022D+01  1  2  4  1  7  1        2 -.304658385792D-01 0.100000000000D+01
-.485759872373D-03 0.000000000000D+00 -.104315080629D-04 0.183309599067D-06 0.000000000000D+00  7 2 -2 24 -11 11 -24 21 2 0.31707765D+00 0.10561800D-01 0.98386524D+05 0.98386524D+05 0.98386524D+05 0.11223022D+01  1  2  5  1  7  1        2 -.282530987767D-01 0.100000000000D+01
0.485322879084D-03 0.000000000000D+00 0.104059018309D-04 0.183309599067D-06 0.000000000000D+00  7 2 -2 24 -11 11 -24 21 2 0.29560018D+00 0.10561800D-01 0.98386524D+05 0.98386524D+05 0.98386524D+05 0.11223022D+01  1  2  6  1  7  1        2 0.335551229658D-01 0.100000000000D+01
0.232053338558D-03 0.000000000000D+00 0.000000000000D+00 0.183309599067D-06 0.438083102127D-07  7 2 -2 24 -11 11 -24 21 2 0.31699708D+00 0.10569874D-01 0.10001867D+06 0.10001867D+06 0.10001867D+06 0.11217154D+01  1  2 11  1  7  1        2 0.134699721984D-01 0.100000000000D+01
0.302173635894D-05 0.000000000000D+00 0.000000000000D+00 0.183309599067D-06 0.000000000000D+00  7 21 -2 24 -11 11 -24 -2 2 0.31710551D+00 0.10561800D-01 0.10001867D+06 0.10001867D+06 0.10001867D+06 0.11217154D+01  1  2 12  3  7  1        2 0.346322993056D-04 0.100000000000D+01
-.624804043358D-05 0.000000000000D+00 -.123858039410D-06 0.183309599067D-06 0.000000000000D+00  7 21 -2 24 -11 11 -24 -2 2 0.31707765D+00 0.10561800D-01 0.98386524D+05 0.98386524D+05 0.98386524D+05 0.11223022D+01  1  2  5  3  7  1        2 -.718144450647D-04 0.100000000000D+01
0.272617094620D-05 0.000000000000D+00 0.000000000000D+00 0.183309599067D-06 0.514074483010D-09  7 21 -2 24 -11 11 -24 -2 2 0.31699708D+00 0.10569874D-01 0.10001867D+06 0.10001867D+06 0.10001867D+06 0.11217154D+01  1  2 11  3  7  1        2 0.312584781464D-04 0.100000000000D+01
  </mgrwgt>
  </event>
  <event>
  8     66 0.26993063E-05 0.24718285E+03 0.75467711E-02 0.10034817E+00
        2 -1    0    0  501    0 0.00000000E+00 0.00000000E+00 0.15535788E+04 0.15535788E+04 0.32000000E+00 0.0000E+00 0.9000E+01
       -2 -1    0    0    0  501 0.00000000E+00 0.00000000E+00 -.44040551E+02 0.44041713E+02 0.32000000E+00 0.0000E+00 0.9000E+01
       25  2    1    2    0    0 -.36082478E+02 -.14503360E+03 0.11367757E+04 0.11855311E+04 0.30147703E+03 0.0000E+00 0.0000E+00
       23  2    1    2    0    0 0.36082478E+02 0.14503360E+03 0.37276252E+03 0.41208938E+03 0.92352959E+02 0.0000E+00 0.0000E+00
       24  1    3    3    0    0 0.52531234E+02 -.18010550E+03 0.82178392E+03 0.84675472E+03 0.80419002E+02 0.0000E+00 0.9000E+01
      -11  1    4    4    0    0 0.55909001E+02 0.12693878E+03 0.24501422E+03 0.28155148E+03 0.51099893E-03 0.0000E+00 0.9000E+01
       11  1    4    4    0    0 -.19826523E+02 0.18094818E+02 0.12774830E+03 0.13053789E+03 0.51099893E-03 0.0000E+00 0.9000E+01
      -24  1    3    3    0    0 -.88613712E+02 0.35071900E+02 0.31499179E+03 0.33877643E+03 0.80419002E+02 0.0000E+00 0.9000E+01
#aMCatNLO 1  0  0  1  1 0.11619366D+03 0.00000000D+00  -5  7  0 0.00000000D+00 0.00000000D+00 0.00000000D+00 0.00000000D+00 0.00000000D+00
  <mgrwgt>
 0.1334895589D-02    4    2    0
 0.261574883959078D+03 0.000000000000000D+00 0.000000000000000D+00 0.261574883959078D+03
 0.261574883959078D+03 0.000000000000000D+00 0.000000000000000D+00 -.261574883959078D+03
 0.214620128736416D+03 0.525312342210542D+02 -.180105498132082D+03 0.663103512151195D+02
 0.152832140415628D+03 0.559090014027202D+02 0.126938780241811D+03 -.641747051173116D+02
 0.300278741488126D+02 -.198265233949034D+02 0.180948181383274D+02 0.134595598928467D+02
 0.125669624617300D+03 -.886137122288710D+02 0.350718997519430D+02 -.155952059906545D+02
 0.000000000000000D+00 -.000000000000000D+00 0.000000000000000D+00 -.000000000000000D+00
 0.288215959248912D+03 0.000000000000000D+00 0.000000000000000D+00 0.288215959248912D+03
 0.434488035606081D+03 0.000000000000000D+00 0.000000000000000D+00 -.434488035606081D+03
 0.260127551346134D+03 0.538147867577702D+02 -.232176728082098D+03 0.663103512151195D+02
 0.128677333507396D+03 0.566701050679359D+02 0.960622848638775D+02 -.641747051173116D+02
 0.266333736647609D+02 -.196733310963082D+02 0.118801045379526D+02 0.134595598928467D+02
 0.120459722567151D+03 -.879482641157092D+02 0.807596407415241D+01 -.155952059906545D+02
 0.186806013769551D+03 -.286329661368863D+01 0.116158374606115D+03 -.146272076357168D+03
0.871318676354D-05 0.000000000000D+00 0.000000000000D+00 0.710817584645D-07 0.000000000000D+00  7 2 -2 24 -11 11 -24 21 0 0.23901221D+00 0.67755613D-02 0.61099364D+05 0.61099364D+05 0.61099364D+05 0.11397149D+01  1  2  2  1  7  1        2 0.148327412664D-02 0.100000000000D+01
-.482180981499D-06 0.000000000000D+00 -.334609314068D-07 0.710817584645D-07 0.000000000000D+00  7 2 -2 24 -11 11 -24 21 2 0.23901221D+00 0.67755613D-02 0.61099364D+05 0.61099364D+05 0.61099364D+05 0.11397149D+01  1  2  3  1  7  1        2 -.106622023140D-03 0.100000000000D+01
0.566517779444D-06 0.000000000000D+00 0.000000000000D+00 0.710817584645D-07 0.000000000000D+00  7 2 -2 24 -11 11 -24 21 2 0.23901221D+00 0.67755613D-02 0.61099364D+05 0.61099364D+05 0.61099364D+05 0.11397149D+01  1  2 15  1  7  1        2 0.125270954489D-03 0.100000000000D+01
-.755354913590D-06 0.000000000000D+00 0.000000000000D+00 0.710817584645D-07 0.000000000000D+00  7 2 -2 24 -11 11 -24 21 2 0.23901221D+00 0.67755613D-02 0.61099364D+05 0.61099364D+05 0.61099364D+05 0.11397149D+01  1  2  4  1  7  1        2 -.167027469282D-03 0.100000000000D+01
  </mgrwgt>
  </event>
  <event>
  8     66 0.26993063E-05 0.33147420E+03 0.75467711E-02 0.94364344E-01
        2 -1    0    0  501    0 0.00000000E+00 0.00000000E+00 0.14861329E+04 0.14861329E+04 0.32000000E+00 0.0000E+00 0.9000E+01
       -2 -1    0    0    0  501 0.00000000E+00 0.00000000E+00 -.11813083E+03 0.11813126E+03 0.32000000E+00 0.0000E+00 0.9000E+01
       25  2    1    2    0    0 0.24329088E+03 -.19483151E+03 0.10988531E+04 0.11812870E+04 0.30134901E+03 0.0000E+00 0.0000E+00
       23  2    1    2    0    0 -.24329088E+03 0.19483151E+03 0.26914896E+03 0.42297712E+03 0.96533491E+02 0.0000E+00 0.0000E+00
       24  1    3    3    0    0 0.13271619E+03 -.10972096E+03 0.92491109E+03 0.94423515E+03 0.80419002E+02 0.0000E+00 0.9000E+01
      -11  1    4    4    0    0 -.21401231E+02 0.20859247E+02 -.43056952E+01 0.30193706E+02 0.51099893E-03 0.0000E+00 0.9000E+01
       11  1    4    4    0    0 -.22188965E+03 0.17397226E+03 0.27345465E+03 0.39278342E+03 0.51099893E-03 0.0000E+00 0.9000E+01
      -24  1    3    3    0    0 0.11057469E+03 -.85110543E+02 0.17394197E+03 0.23705188E+03 0.80419002E+02 0.0000E+00 0.9000E+01
#aMCatNLO 1  0  0  2  1 0.30827785D+03 0.00000000D+00  -5  7  0 0.00000000D+00 0.00000000D+00 0.00000000D+00 0.00000000D+00 0.00000000D+00
  <mgrwgt>
 0.1323441341D-02    3    2    0
 0.418996997506195D+03 0.000000000000000D+00 0.000000000000000D+00 0.418996997506195D+03
 0.418996997506195D+03 0.000000000000000D+00 0.000000000000000D+00 -.418996997506195D+03
 0.297761512905732D+03 0.132716187400204D+03 -.109720963694441D+03 0.229221347918244D+03
 0.648320637164050D+02 -.214012308887432D+02 0.208592472456698D+02 -.575332565262798D+02
 0.305541370523784D+03 -.221889650633224D+03 0.173972259433066D+03 -.117703716981121D+03
 0.169859047866469D+03 0.110574694121763D+03 -.851105429842942D+02 -.539843744108432D+02
 0.000000000000000D+00 0.000000000000000D+00 -.000000000000000D+00 0.000000000000000D+00
 0.738728134437620D+03 0.000000000000000D+00 0.000000000000000D+00 0.738728134437620D+03
 0.527737908815999D+03 0.000000000000000D+00 0.000000000000000D+00 -.527737908815999D+03
 0.274035519242719D+03 0.126573060111766D+03 -.806746334004200D+01 0.229221347918244D+03
 0.772144128437047D+02 -.229273136372042D+02 0.461121267527385D+02 -.575332565262798D+02
 0.394368041850840D+03 -.229409159075649D+03 0.298401449685315D+03 -.117703716981121D+03
 0.147281330837277D+03 0.107167482112704D+03 -.287296459414676D+02 -.539843744108432D+02
 0.373566738479078D+03 0.185959304883835D+02 -.307716467156544D+03 0.210990225621621D+03
0.329971488193D-04 0.000000000000D+00 0.000000000000D+00 0.291669700810D-07 0.000000000000D+00  7 2 -2 24 -11 11 -24 21 0 0.22863586D+00 0.18174010D-01 0.10987514D+06 0.10987514D+06 0.10987514D+06 0.11183811D+01  1  2  2  2  7  2       -2 0.130440125014D-02 0.100000000000D+01
-.171080320634D-05 0.000000000000D+00 -.126717739815D-06 0.291669700810D-07 0.000000000000D+00  7 2 -2 24 -11 11 -24 21 2 0.22863586D+00 0.18174010D-01 0.10987514D+06 0.10987514D+06 0.10987514D+06 0.11183811D+01  1  2  3  2  7  2       -2 -.845891223841D-04 0.100000000000D+01
0.209588638116D-05 0.000000000000D+00 0.000000000000D+00 0.291669700810D-07 0.000000000000D+00  7 2 -2 24 -11 11 -24 21 2 0.22863586D+00 0.18174010D-01 0.10987514D+06 0.10987514D+06 0.10987514D+06 0.11183811D+01  1  2 15  2  7  2       -2 0.103629212841D-03 0.100000000000D+01
  </mgrwgt>
  </event>
  <event>
  8     66 0.26993063E-05 0.34373988E+03 0.75467711E-02 0.88531470E-01
        2 -1    0    0  501    0 0.00000000E+00 0.00000000E+00 0.48770021E+03 0.48770031E+03 0.32000000E+00 0.0000E+00 0.9000E+01
       -2 -1    0    0    0  501 0.00000000E+00 0.00000000E+00 -.33741784E+03 0.33741799E+03 0.32000000E+00 0.0000E+00 0.9000E+01
       25  2    1    2    0    0 0.41645260E+01 0.27454877E+03 -.12026389E+03 0.42445934E+03 0.30051283E+03 0.0000E+00 0.0000E+00
       23  2    1    2    0    0 -.41645260E+01 -.27454877E+03 0.27054625E+03 0.40065896E+03 0.10926097E+03 0.0000E+00 0.0000E+00
       24  1    3    3    0    0 -.82313234E+02 0.80953295E+01 -.27373243E+02 0.11856438E+03 0.80419002E+02 0.0000E+00 0.9000E+01
      -13  1    4    4    0    0 -.31000349E+02 -.12955863E+03 0.66447651E+02 0.14886827E+03 0.10565837E+00 0.0000E+00 0.9000E+01
       13  1    4    4    0    0 0.26835823E+02 -.14499013E+03 0.20409860E+03 0.25179069E+03 0.10565837E+00 0.0000E+00 0.9000E+01
      -24  1    3    3    0    0 0.86477760E+02 0.26645344E+03 -.92890648E+02 0.30589496E+03 0.80419002E+02 0.0000E+00 0.9000E+01
#aMCatNLO 1  0  0  1  1 0.77073920D+03 0.00000000D+00  -5  7  0 0.00000000D+00 0.00000000D+00 0.00000000D+00 0.00000000D+00 0.00000000D+00
  <mgrwgt>
 0.7832754330D-03    3    2    0
 0.405658548427893D+03 0.000000000000000D+00 0.000000000000000D+00 0.405658548427893D+03
 0.405658548427893D+03 0.000000000000000D+00 0.000000000000000D+00 -.405658548427893D+03
 0.125651685938267D+03 -.823132341601643D+02 0.809533347158259D+01 -.498008763259853D+02
 0.139092299743225D+03 -.310003774195709D+02 -.129558605532607D+03 0.400026521639451D+02
 0.218268226014726D+03 0.268358512178322D+02 -.144990176078233D+03 0.160930744166032D+03
 0.328304885159569D+03 0.864777603619031D+02 0.266453448139257D+03 -.151132520003992D+03
 0.000000000000000D+00 0.000000000000000D+00 0.000000000000000D+00 -.000000000000000D+00
 0.877688931932677D+03 0.000000000000000D+00 0.000000000000000D+00 0.877688931932677D+03
 0.102629689951003D+04 0.000000000000000D+00 0.000000000000000D+00 -.102629689951003D+04
 0.170763501670838D+03 -.900712440838671D+02 -.110000005703928D+03 -.498008763259853D+02
 0.316594693850378D+03 -.429269735124254D+02 -.311109728133223D+03 0.400026521639451D+02
 0.436828745244934D+03 0.969014136060901D+01 -.405988607493908D+03 0.160930744166032D+03
 0.194863705406116D+03 0.727849831796129D+02 0.580168540255121D+02 -.151132520003992D+03
 0.784935185270437D+03 0.505230930560705D+02 0.769081487305548D+03 -.148607967577349D+03
0.279877953931D-04 0.000000000000D+00 0.000000000000D+00 0.113494120925D-07 0.000000000000D+00  7 2 -2 24 -13 13 -24 21 0 0.75030821D-01 0.51910457D-01 0.11815710D+06 0.11815710D+06 0.11815710D+06 0.11158239D+01  1  2  2  1  7  1        2 0.773596950826D-03 0.100000000000D+01
-.150301688906D-05 0.000000000000D+00 -.107480503665D-06 0.113494120925D-07 0.000000000000D+00  7 2 -2 24 -13 13 -24 21 2 0.75030821D-01 0.51910457D-01 0.11815710D+06 0.11815710D+06 0.11815710D+06 0.11158239D+01  1  2  3  1  7  1        2 -.517250913984D-04 0.100000000000D+01
0.178425219891D-05 0.000000000000D+00 0.000000000000D+00 0.113494120925D-07 0.000000000000D+00  7 2 -2 24 -13 13 -24 21 2 0.75030821D-01 0.51910457D-01 0.11815710D+06 0.11815710D+06 0.11815710D+06 0.11158239D+01  1  2 15  1  7  1        2 0.614035735313D-04 0.100000000000D+01
  </mgrwgt>
  </event>
  <event>
  8     66 0.26993063E-05 0.25357621E+03 0.75467711E-02 0.94754777E-01
        2 -1    0    0  501    0 0.00000000E+00 0.00000000E+00 0.14870151E+04 0.14870151E+04 0.32000000E+00 0.0000E+00 0.9000E+01
       -2 -1    0    0    0  501 0.00000000E+00 0.00000000E+00 -.11788069E+03 0.11788113E+03 0.32000000E+00 0.0000E+00 0.9000E+01
       25  2    1    2    0    0 -.85913353E+02 0.18560801E+03 0.19985530E+03 0.41453124E+03 0.30010427E+03 0.0000E+00 0.0000E+00
       23  2    1    2    0    0 0.85913353E+02 -.18560801E+03 0.11692791E+04 0.11903650E+04 0.89015721E+02 0.0000E+00 0.0000E+00
       24  1    3    3    0    0 -.35492853E+02 0.11620931E+02 -.45066536E+02 0.99463547E+02 0.80419002E+02 0.0000E+00 0.9000E+01
      -13  1    4    4    0    0 0.58003189E+02 -.18333019E+03 0.10731195E+04 0.10902109E+04 0.10565837E+00 0.0000E+00 0.9000E+01
       13  1    4    4    0    0 0.27910164E+02 -.22778270E+01 0.96159532E+02 0.10015404E+03 0.10565837E+00 0.0000E+00 0.9000E+01
      -24  1    3    3    0    0 -.50420500E+02 0.17398708E+03 0.24492183E+03 0.31506770E+03 0.80419002E+02 0.0000E+00 0.9000E+01
#aMCatNLO 1  0  0  1  2 0.34617610D+03 0.00000000D+00  -5  7  0 0.00000000D+00 0.00000000D+00 0.00000000D+00 0.00000000D+00 0.00000000D+00
  <mgrwgt>
 0.1205825782D-02    3    2    0
 0.418677368575951D+03 0.000000000000000D+00 0.000000000000000D+00 0.418677368575951D+03
 0.418677368575951D+03 0.000000000000000D+00 0.000000000000000D+00 -.418677368575951D+03
 0.264321443018091D+03 -.354928526627189D+02 0.116209309038845D+02 -.249005663910653D+03
 0.334900976501564D+03 0.580032317300565D+02 -.183330441820393D+03 0.274197443956923D+03
 0.347298114132351D+02 0.279101211205022D+02 -.227757201183703D+01 0.205425803045447D+02
 0.203402506219013D+03 -.504205001878398D+02 0.173987082928345D+03 -.457343603508149D+02
 0.000000000000000D+00 0.000000000000000D+00 0.000000000000000D+00 -.000000000000000D+00
 0.528346764748745D+03 0.000000000000000D+00 0.000000000000000D+00 0.528346764748745D+03
 0.850906887052884D+03 0.000000000000000D+00 0.000000000000000D+00 -.850906887052884D+03
 0.294499642672476D+03 -.122265886483805D+03 -.575330854603660D+02 -.249005663910653D+03
 0.390875988135241D+03 -.546945005345899D+02 -.273145220422146D+03 0.274197443956923D+03
 0.291440732392294D+02 0.179918648213806D+02 -.101819546087218D+02 0.205425803045447D+02
 0.191571266266281D+03 -.111751529735437D+03 0.125109144308430D+03 -.457343603508149D+02
 0.473162681488402D+03 0.270720051932451D+03 0.215751116182803D+03 -.322560122304139D+03
0.292210632186D-04 0.000000000000D+00 0.000000000000D+00 0.109360168226D-05 0.000000000000D+00  7 2 -2 24 -13 13 -24 21 0 0.22877158D+00 0.18135527D-01 0.64300892D+05 0.64300892D+05 0.64300892D+05 0.11378083D+01  1  2  2  1  7  1        2 0.117132621536D-02 0.100000000000D+01
-.112710137191D-05 0.000000000000D+00 -.112216576842D-06 0.109360168226D-05 0.000000000000D+00  7 2 -2 24 -13 13 -24 21 2 0.22877158D+00 0.18135527D-01 0.64300892D+05 0.64300892D+05 0.64300892D+05 0.11378083D+01  1  2  3  1  7  1        2 -.584901863563D-04 0.100000000000D+01
0.179190534954D-05 0.000000000000D+00 0.000000000000D+00 0.109360168226D-05 0.000000000000D+00  7 2 -2 24 -13 13 -24 21 2 0.22877158D+00 0.18135527D-01 0.64300892D+05 0.64300892D+05 0.64300892D+05 0.11378083D+01  1  2 15  1  7  1        2 0.929897526868D-04 0.100000000000D+01
  </mgrwgt>
  </event>
  <event>
  9     66 -.26993063E-05 0.18368750E+03 0.75467711E-02 0.10709731E+00
        2 -1    0    0  501    0 0.00000000E+00 0.00000000E+00 0.13991675E+04 0.13991675E+04 0.32000000E+00 0.0000E+00 0.9000E+01
       -2 -1    0    0    0  502 0.00000000E+00 0.00000000E+00 -.37170630E+02 0.37172007E+02 0.32000000E+00 0.0000E+00 0.9000E+01
       25  2    1    2    0    0 -.48180570E+02 -.30279565E+02 0.69639068E+03 0.76063541E+03 0.30061276E+03 0.0000E+00 0.0000E+00
       23  2    1    2    0    0 0.36194365E+02 0.30409682E+02 0.61753987E+03 0.62616002E+03 0.92119985E+02 0.0000E+00 0.0000E+00
       24  1    3    3    0    0 0.10323796E+03 -.28059077E+02 0.33005432E+03 0.35615792E+03 0.80419002E+02 0.0000E+00 0.9000E+01
      -11  1    4    4    0    0 0.83740992E+00 -.90135616E+01 0.45743736E+03 0.45752692E+03 0.51099893E-03 0.0000E+00 0.9000E+01
       11  1    4    4    0    0 0.35356955E+02 0.39423244E+02 0.16010252E+03 0.16863310E+03 0.51099893E-03 0.0000E+00 0.9000E+01
      -24  1    3    3    0    0 -.15141853E+03 -.22204882E+01 0.36633636E+03 0.40447750E+03 0.80419002E+02 0.0000E+00 0.9000E+01
       21  1    1    2  501  502 0.11986205E+02 -.13011732E+00 0.48066278E+02 0.49544077E+02 0.75000000E+00 0.0000E+00 0.9000E+01
#aMCatNLO 2  0  0  2  1 0.11986911D+02 0.00000000D+00  -5  7  0 0.00000000D+00 0.00000000D+00 0.00000000D+00 0.00000000D+00 0.00000000D+00
  <mgrwgt>
 -.5329765311D-03    3    2    0
 0.221723010117522D+03 0.000000000000000D+00 0.000000000000000D+00 0.221723010117522D+03
 0.221723010117522D+03 0.000000000000000D+00 0.000000000000000D+00 -.221723010117522D+03
 0.138665785658696D+03 0.106946880000441D+03 -.280993391549171D+02 -.231035961530038D+02
 0.754692284339765D+02 0.287623286951777D+01 -.903569416263874D+01 0.748711423440252D+02
 0.539291999321099D+02 0.368013590876122D+02 0.394075639318833D+02 0.103076649956958D+01
 0.175381806210261D+03 -.146624471957571D+03 -.227253061432743D+01 -.527983126905910D+02
 0.000000000000000D+00 0.000000000000000D+00 -.000000000000000D+00 0.000000000000000D+00
 0.229809141652287D+03 0.000000000000000D+00 0.000000000000000D+00 0.229809141652287D+03
 0.226291305652318D+03 0.000000000000000D+00 0.000000000000000D+00 -.226291305652318D+03
 0.135817452129725D+03 0.103237960128399D+03 -.280590766413611D+02 -.231035961530038D+02
 0.754164007557751D+02 0.837409978121779D+00 -.901356153720193D+01 0.748711423440252D+02
 0.529657331634256D+02 0.353569548872934D+02 0.394232437917082D+02 0.103076649956958D+01
 0.179408415340937D+03 -.151418529743103D+03 -.222048828846509D+01 -.527983126905910D+02
 0.124924459147419D+02 0.119862047492895D+02 -.130117324680104D+00 0.351783599996927D+01
-.301507626403D-05 0.000000000000D+00 0.000000000000D+00 0.160986287951D-06 0.000000000000D+00  7 2 -2 24 -11 11 -24 21 2 0.20767229D+00 0.58177258D-02 0.35966445D+05 0.35966445D+05 0.35966445D+05 0.11600967D+01  1  2 13  2  7  2       -2 -.111265048345D-02 0.100000000000D+01
-.120045535818D-05 0.000000000000D+00 0.000000000000D+00 0.160986287951D-06 0.000000000000D+00  7 2 -2 24 -11 11 -24 21 2 0.20767229D+00 0.56029437D-02 0.33741099D+05 0.33741099D+05 0.33741099D+05 0.11626299D+01  1  2  8  2  7  2       -2 -.470168159642D-03 0.100000000000D+01
0.294723503185D-05 0.000000000000D+00 0.000000000000D+00 0.160986287951D-06 0.804621444824D-08  7 2 -2 24 -11 11 -24 21 2 0.21524600D+00 0.57183846D-02 0.35966445D+05 0.35966445D+05 0.35966445D+05 0.11600967D+01  1  2  1  2  7  2       -2 0.104984211199D-02 0.100000000000D+01
  </mgrwgt>
  </event>
  <event>
  8     66 0.26993063E-05 0.16841317E+03 0.75467711E-02 0.10241435E+00
        2 -1    0    0  501    0 0.00000000E+00 0.00000000E+00 0.11255882E+03 0.11255927E+03 0.32000000E+00 0.0000E+00 0.9000E+01
       -2 -1    0    0    0  501 0.00000000E+00 0.00000000E+00 -.59311661E+03 0.59311669E+03 0.32000000E+00 0.0000E+00 0.9000E+01
       25  2    1    2    0    0 -.10694247E+02 0.42182486E+02 -.51641695E+03 0.59893094E+03 0.30023005E+03 0.0000E+00 0.0000E+00
       23  2    1    2    0    0 0.10694247E+02 -.42182486E+02 0.35859155E+02 0.10674503E+03 0.90636044E+02 0.0000E+00 0.0000E+00
       24  1    3    3    0    0 0.86401982E+02 -.35698524E+02 -.37240688E+03 0.39229298E+03 0.80419002E+02 0.0000E+00 0.9000E+01
      -13  1    4    4    0    0 -.19074641E+02 -.10214318E+02 0.54962284E+02 0.59068080E+02 0.10565837E+00 0.0000E+00 0.9000E+01
       13  1    4    4    0    0 0.29768888E+02 -.31968168E+02 -.19103129E+02 0.47676946E+02 0.10565837E+00 0.0000E+00 0.9000E+01
      -24  1    3    3    0    0 -.97096229E+02 0.77881010E+02 -.14401007E+03 0.20663796E+03 0.80419002E+02 0.0000E+00 0.9000E+01
#aMCatNLO 1  0  0  1  1 0.14441353D+03 0.00000000D+00  -5  7  0 0.00000000D+00 0.00000000D+00 0.00000000D+00 0.00000000D+00 0.00000000D+00
  <mgrwgt>
 0.7295344201D-03    3    2    0
 0.258380910706762D+03 0.000000000000000D+00 0.000000000000000D+00 0.258380910706762D+03
 0.258380910706762D+03 0.000000000000000D+00 0.000000000000000D+00 -.258380910706762D+03
 0.189388420075786D+03 0.864019820805984D+02 -.356985238040171D+02 -.143739592997858D+03
 0.131773546587157D+03 -.190747053157656D+02 -.102142908106598D+02 0.129984966286527D+03
 0.473414565850300D+02 0.297689525522929D+02 -.319681958611837D+02 0.182498610655702D+02
 0.148258398165551D+03 -.970962293171258D+02 0.778810104758606D+02 -.449523435423885D+01
 0.000000000000000D+00 -.000000000000000D+00 0.000000000000000D+00 -.000000000000000D+00
 0.282036806699263D+03 0.000000000000000D+00 0.000000000000000D+00 0.282036806699263D+03
 0.647297836508063D+03 0.000000000000000D+00 0.000000000000000D+00 -.647297836508063D+03
 0.213288414181113D+03 0.102657902724942D+03 -.884591209681056D+02 -.143739592997858D+03
 0.137980733818461D+03 -.818482091544210D+01 -.455587549341891D+02 0.129984966286527D+03
 0.601426215205582D+02 0.341080465740270D+02 -.460512611483823D+02 0.182498610655702D+02
 0.125149546970272D+03 -.860588477705489D+02 0.420578261563738D+02 -.449523435423885D+01
 0.392773326716922D+03 -.425222806129784D+02 0.138011310894303D+03 -.365261029808800D+03
0.163499003302D-04 0.000000000000D+00 0.000000000000D+00 0.806186659920D-06 0.000000000000D+00  7 2 -2 24 -13 13 -24 21 0 0.17316783D-01 0.91248751D-01 0.28362994D+05 0.28362994D+05 0.28362994D+05 0.11696037D+01  1  2  2  1  7  1        2 0.711493591981D-03 0.100000000000D+01
-.706006635780D-06 0.000000000000D+00 -.627879222955D-07 0.806186659920D-06 0.000000000000D+00  7 2 -2 24 -13 13 -24 21 2 0.17316783D-01 0.91248751D-01 0.28362994D+05 0.28362994D+05 0.28362994D+05 0.11696037D+01  1  2  3  1  7  1        2 -.420283300895D-04 0.100000000000D+01
0.100906279592D-05 0.000000000000D+00 0.000000000000D+00 0.806186659920D-06 0.000000000000D+00  7 2 -2 24 -13 13 -24 21 2 0.17316783D-01 0.91248751D-01 0.28362994D+05 0.28362994D+05 0.28362994D+05 0.11696037D+01  1  2 15  1  7  1        2 0.600691581619D-04 0.100000000000D+01
  </mgrwgt>
  </event>
  <event>
  8     66 0.26993063E-05 0.57006350E+02 0.75467711E-02 0.10260434E+00
        2 -1    0    0  501    0 0.00000000E+00 0.00000000E+00 0.26748130E+04 0.26748131E+04 0.32000000E+00 0.0000E+00 0.9000E+01
       -2 -1    0    0    0  501 0.00000000E+00 0.00000000E+00 -.31999130E+02 0.32000730E+02 0.32000000E+00 0.0000E+00 0.9000E+01
       25  2    1    2    0    0 0.16640492E+03 -.59639607E+02 0.11780383E+04 0.12286114E+04 0.30077291E+03 0.0000E+00 0.0000E+00
       23  2    1    2    0    0 -.16640492E+03 0.59639607E+02 0.14647757E+04 0.14782024E+04 0.90923758E+02 0.0000E+00 0.0000E+00
       24  1    3    3    0    0 0.12791523E+03 0.75443417E+02 0.79572864E+03 0.81345270E+03 0.80419002E+02 0.0000E+00 0.9000E+01
      -13  1    4    4    0    0 -.16677009E+03 0.44096442E+02 0.14264593E+04 0.14368517E+04 0.10565837E+00 0.0000E+00 0.9000E+01
       13  1    4    4    0    0 0.36517445E+00 0.15543165E+02 0.38316385E+02 0.41350693E+02 0.10565837E+00 0.0000E+00 0.9000E+01
      -24  1    3    3    0    0 0.38489685E+02 -.13508302E+03 0.38230962E+03 0.41515870E+03 0.80419002E+02 0.0000E+00 0.9000E+01
#aMCatNLO 1  0  0  1  2 0.43896640D+01 0.00000000D+00  -5  7  0 0.00000000D+00 0.00000000D+00 0.00000000D+00 0.00000000D+00 0.00000000D+00
  <mgrwgt>
 0.2017805862D-02   11    2    0
 0.292564321614907D+03 0.000000000000000D+00 0.000000000000000D+00 0.292564321614907D+03
 0.292564321614907D+03 0.000000000000000D+00 0.000000000000000D+00 -.292564321614907D+03
 0.169026550095530D+03 0.127915234104911D+03 0.754434146568154D+02 0.698160093614618D+01
 0.204098287724721D+03 -.166770320467590D+03 0.440964815729150D+02 0.109083782370203D+03
 0.182274534907522D+02 0.365399872940380D+00 0.155431262893463D+02 -.951408265908067D+01
 0.193776351918811D+03 0.384896864897379D+02 -.135083022519077D+03 -.106551300647269D+03
 0.000000000000000D+00 -.000000000000000D+00 0.000000000000000D+00 0.000000000000000D+00
 0.297242745860006D+03 0.000000000000000D+00 0.000000000000000D+00 0.297242745860006D+03
 0.293604051129702D+03 0.000000000000000D+00 0.000000000000000D+00 -.293604051129702D+03
 0.169286125500090D+03 0.128792823019237D+03 0.745267892745004D+02 0.698160093614618D+01
 0.202999855056030D+03 -.165714300865256D+03 0.429934886386149D+02 0.109083782370203D+03
 0.181456357732538D+02 0.459752293705158D+00 0.154445769317324D+02 -.951408265908067D+01
 0.194713492406540D+03 0.394974358449983D+02 -.136135598073490D+03 -.106551300647269D+03
 0.570168825379223D+01 -.303571029268374D+01 0.317074322864267D+01 0.363869473030412D+01
0.764043662235D-05 0.000000000000D+00 0.000000000000D+00 0.488175579499D-06 0.000000000000D+00  7 2 -2 24 -13 13 -24 21 0 0.41150982D+00 0.49230677D-02 0.67284082D+05 0.67284082D+05 0.67284082D+05 0.11361235D+01  1  2  2  1  7  1        2 0.512525423501D-03 0.100000000000D+01
-.416994174104D-06 0.000000000000D+00 -.293412884030D-07 0.488175579499D-06 0.000000000000D+00  7 2 -2 24 -13 13 -24 21 2 0.41150982D+00 0.49230677D-02 0.67284082D+05 0.67284082D+05 0.67284082D+05 0.11361235D+01  1  2  3  1  7  1        2 -.361059097946D-04 0.100000000000D+01
0.489477994107D-06 0.000000000000D+00 0.000000000000D+00 0.488175579499D-06 0.000000000000D+00  7 2 -2 24 -13 13 -24 21 2 0.41150982D+00 0.49230677D-02 0.67284082D+05 0.67284082D+05 0.67284082D+05 0.11361235D+01  1  2 15  1  7  1        2 0.423820029132D-04 0.100000000000D+01
0.115328030218D-05 0.000000000000D+00 0.000000000000D+00 0.488175579499D-06 0.000000000000D+00  7 2 -2 24 -13 13 -24 21 2 0.41881429D+00 0.49230677D-02 0.68423245D+05 0.68423245D+05 0.68423245D+05 0.11355017D+01  1  2 12  1  7  1        2 0.935402672307D-04 0.100000000000D+01
-.949497401079D-04 0.000000000000D+00 0.000000000000D+00 0.488175579499D-06 0.000000000000D+00  7 2 -2 24 -13 13 -24 21 2 0.41150982D+00 0.49230677D-02 0.67284082D+05 0.67284082D+05 0.67284082D+05 0.11361235D+01  1  2  4  1  7  1        2 -.822133009106D-02 0.100000000000D+01
-.379503407911D-03 0.000000000000D+00 -.381385940590D-04 0.488175579499D-06 0.000000000000D+00  7 2 -2 24 -13 13 -24 21 2 0.41856714D+00 0.49230677D-02 0.67284082D+05 0.67284082D+05 0.67284082D+05 0.11361235D+01  1  2  5  1  7  1        2 -.308948765800D-01 0.100000000000D+01
0.380102491017D-03 0.000000000000D+00 0.381330808322D-04 0.488175579499D-06 0.000000000000D+00  7 2 -2 24 -13 13 -24 21 2 0.41150982D+00 0.49230677D-02 0.67284082D+05 0.67284082D+05 0.67284082D+05 0.11361235D+01  1  2  6  1  7  1        2 0.329116019015D-01 0.100000000000D+01
0.938057346050D-04 0.000000000000D+00 0.000000000000D+00 0.488175579499D-06 0.174248734433D-06  7 2 -2 24 -13 13 -24 21 2 0.41809032D+00 0.49405635D-02 0.68423245D+05 0.68423245D+05 0.68423245D+05 0.11355017D+01  1  2 11  1  7  1        2 0.761668149442D-02 0.100000000000D+01
0.691331379541D-07 0.000000000000D+00 0.000000000000D+00 0.488175579499D-06 0.000000000000D+00  7 21 -2 24 -13 13 -24 -2 2 0.41881429D+00 0.49230677D-02 0.68423245D+05 0.68423245D+05 0.68423245D+05 0.11355017D+01  1  2 12  3  7  1        2 0.563324308258D-06 0.100000000000D+01
-.117565165163D-05 0.000000000000D+00 -.118555163536D-06 0.488175579499D-06 0.000000000000D+00  7 21 -2 24 -13 13 -24 -2 2 0.41856714D+00 0.49230677D-02 0.67284082D+05 0.67284082D+05 0.67284082D+05 0.11361235D+01  1  2  5  3  7  1        2 -.964320666058D-05 0.100000000000D+01
0.300901696475D-06 0.000000000000D+00 0.000000000000D+00 0.488175579499D-06 0.505490922766D-09  7 21 -2 24 -13 13 -24 -2 2 0.41809032D+00 0.49405635D-02 0.68423245D+05 0.68423245D+05 0.68423245D+05 0.11355017D+01  1  2 11  3  7  1        2 0.246723557831D-05 0.100000000000D+01
  </mgrwgt>
  </event>
  <event>
  8     66 0.26993063E-05 0.47960500E+03 0.75467711E-02 0.90419466E-01
        2 -1    0    0  501    0 0.00000000E+00 0.00000000E+00 0.89558932E+03 0.89558938E+03 0.32000000E+00 0.0000E+00 0.9000E+01
       -2 -1    0    0    0  501 0.00000000E+00 0.00000000E+00 -.68011545E+03 0.68011553E+03 0.32000000E+00 0.0000E+00 0.9000E+01
       25  2    1    2    0    0 0.10530916E+03 0.68888223E+03 -.16574842E+03 0.77621845E+03 0.29898795E+03 0.0000E+00 0.0000E+00
       23  2    1    2    0    0 -.10530916E+03 -.68888223E+03 0.38122229E+03 0.79948646E+03 0.90550644E+02 0.0000E+00 0.0000E+00
       24  1    3    3    0    0 0.36395207E+02 0.63004768E+03 -.15343665E+03 0.65444229E+03 0.80419002E+02 0.0000E+00 0.9000E+01
      -11  1    4    4    0    0 -.14475335E+02 -.18407158E+03 0.14508568E+03 0.23482277E+03 0.51099893E-03 0.0000E+00 0.9000E+01
       11  1    4    4    0    0 -.90833830E+02 -.50481065E+03 0.23613661E+03 0.56466369E+03 0.51099893E-03 0.0000E+00 0.9000E+01
      -24  1    3    3    0    0 0.68913958E+02 0.58834555E+02 -.12311772E+02 0.12177616E+03 0.80419002E+02 0.0000E+00 0.9000E+01
#aMCatNLO 1  0  0  2  1 0.19609417D+02 0.00000000D+00  -5  7  0 0.00000000D+00 0.00000000D+00 0.00000000D+00 0.00000000D+00 0.00000000D+00
  <mgrwgt>
 0.2030859495D-02    9    2    0
 0.780451307307682D+03 0.000000000000000D+00 0.000000000000000D+00 0.780451307307682D+03
 0.780451307307682D+03 0.000000000000000D+00 0.000000000000000D+00 -.780451307307682D+03
 0.681829538788957D+03 0.363952070457952D+02 0.630047675017612D+03 -.245233807049082D+03
 0.217021369290086D+03 -.144753346827583D+02 -.184071575802532D+03 0.114045580343733D+03
 0.537421148124943D+03 -.908338301320610D+02 -.504810654044788D+03 0.160427271117926D+03
 0.124630558411378D+03 0.689139577690241D+02 0.588345548297081D+02 -.292390444125774D+02
 0.000000000000000D+00 0.000000000000000D+00 0.000000000000000D+00 -.000000000000000D+00
 0.785166471541589D+03 0.000000000000000D+00 0.000000000000000D+00 0.785166471541589D+03
 0.801170608433795D+03 0.000000000000000D+00 0.000000000000000D+00 -.801170608433795D+03
 0.677772589142197D+03 0.288496378098940D+02 0.626048356691876D+03 -.245233807049082D+03
 0.218282121189720D+03 -.168911977934191D+02 -.185352036601297D+03 0.114045580343733D+03
 0.541441775835757D+03 -.968213427444306D+02 -.507984167953095D+03 0.160427271117926D+03
 0.123529298874524D+03 0.675367111861789D+02 0.581045837267165D+02 -.292390444125774D+02
 0.253112949331854D+02 0.173261915417767D+02 0.918326413579995D+01 -.160041368922067D+02
0.292220514431D-03 0.000000000000D+00 0.000000000000D+00 0.270985916955D-05 0.000000000000D+00  7 2 -2 24 -11 11 -24 21 0 0.13778298D+00 0.10463316D+00 0.52919145D+06 0.52919145D+06 0.52919145D+06 0.10667731D+01  1  2  2  2  7  2       -2 0.789172834881D-03 0.100000000000D+01
-.161368679982D-04 0.000000000000D+00 -.112220371884D-05 0.270985916955D-05 0.000000000000D+00  7 2 -2 24 -11 11 -24 21 2 0.13778298D+00 0.10463316D+00 0.52919145D+06 0.52919145D+06 0.52919145D+06 0.10667731D+01  1  2  3  2  7  2       -2 -.495935049182D-04 0.100000000000D+01
0.185061890831D-04 0.000000000000D+00 0.000000000000D+00 0.270985916955D-05 0.000000000000D+00  7 2 -2 24 -11 11 -24 21 2 0.13778298D+00 0.10463316D+00 0.52919145D+06 0.52919145D+06 0.52919145D+06 0.10667731D+01  1  2 15  2  7  2       -2 0.568751494658D-04 0.100000000000D+01
0.590650645081D-03 0.000000000000D+00 0.000000000000D+00 0.270985916955D-05 0.000000000000D+00  7 2 -2 24 -11 11 -24 21 2 0.13778298D+00 0.10772175D+00 0.54370620D+06 0.54370620D+06 0.54370620D+06 0.10659477D+01  1  2 12  2  7  2       -2 0.168446837209D-02 0.100000000000D+01
-.594863851819D-03 0.000000000000D+00 0.000000000000D+00 0.270985916955D-05 0.000000000000D+00  7 2 -2 24 -11 11 -24 21 2 0.13778298D+00 0.10463316D+00 0.52919145D+06 0.52919145D+06 0.52919145D+06 0.10667731D+01  1  2  4  2  7  2       -2 -.182819760093D-02 0.100000000000D+01
-.100197824589D-01 0.000000000000D+00 -.113207996179D-02 0.270985916955D-05 0.000000000000D+00  7 2 -2 24 -11 11 -24 21 2 0.13778298D+00 0.10782496D+00 0.52919145D+06 0.52919145D+06 0.52919145D+06 0.10667731D+01  1  2  5  2  7  2       -2 -.285851202560D-01 0.100000000000D+01
0.100497734545D-01 0.000000000000D+00 0.113156906273D-02 0.270985916955D-05 0.000000000000D+00  7 2 -2 24 -11 11 -24 21 2 0.13778298D+00 0.10463316D+00 0.52919145D+06 0.52919145D+06 0.52919145D+06 0.10667731D+01  1  2  6  2  7  2       -2 0.308860114178D-01 0.100000000000D+01
0.173949996307D-04 0.000000000000D+00 0.000000000000D+00 0.270985916955D-05 0.000000000000D+00  7 2 21 24 -11 11 -24 2 2 0.13778298D+00 0.10772175D+00 0.54370620D+06 0.54370620D+06 0.54370620D+06 0.10659477D+01  1  2 12  4  7  2       -2 0.442400705330D-03 0.100000000000D+01
-.536235543874D-04 0.000000000000D+00 -.610032984139D-05 0.270985916955D-05 0.000000000000D+00  7 2 21 24 -11 11 -24 2 2 0.13778298D+00 0.10782496D+00 0.52919145D+06 0.52919145D+06 0.52919145D+06 0.10667731D+01  1  2  5  4  7  2       -2 -.136515762262D-02 0.100000000000D+01
  </mgrwgt>
  </event>
  <event>
  8     66 0.26993063E-05 0.24307765E+03 0.75467711E-02 0.82698400E-01
        2 -1    0    0  501    0 0.00000000E+00 0.00000000E+00 0.13674848E+04 0.13674849E+04 0.32000000E+00 0.0000E+00 0.9000E+01
       -2 -1    0    0    0  501 0.00000000E+00 0.00000000E+00 -.11214097E+03 0.11214143E+03 0.32000000E+00 0.0000E+00 0.9000E+01
       25  2    1    2    0    0 -.42443649E+02 -.14263327E+03 0.12611137E+04 0.13044045E+04 0.29819069E+03 0.0000E+00 0.0000E+00
       23  2    1    2    0    0 0.42443649E+02 0.14263327E+03 -.57698073E+01 0.17522180E+03 0.92323764E+02 0.0000E+00 0.0000E+00
       24  1    3    3    0    0 -.31898681E+02 -.21042978E+03 0.85276211E+03 0.88259201E+03 0.80419002E+02 0.0000E+00 0.9000E+01
      -11  1    4    4    0    0 0.38152461E+02 0.66477201E+02 0.39804677E+02 0.86366897E+02 0.51099893E-03 0.0000E+00 0.9000E+01
       11  1    4    4    0    0 0.42911875E+01 0.76156066E+02 -.45574484E+02 0.88854906E+02 0.51099893E-03 0.0000E+00 0.9000E+01
      -24  1    3    3    0    0 -.10544968E+02 0.67796510E+02 0.40835156E+03 0.42181249E+03 0.80419002E+02 0.0000E+00 0.9000E+01
#aMCatNLO 1  0  0  1  2 0.16364075D+04 0.00000000D+00  -5  7  0 0.00000000D+00 0.00000000D+00 0.00000000D+00 0.00000000D+00 0.00000000D+00
  <mgrwgt>
 0.1233169101D-02    3    2    0
 0.391601125840211D+03 0.000000000000000D+00 0.000000000000000D+00 0.391601125840211D+03
 0.391601125840211D+03 0.000000000000000D+00 0.000000000000000D+00 -.391601125840211D+03
 0.300556669898730D+03 -.318986807529087D+02 -.210429776525530D+03 0.196389610682142D+03
 0.993640840982109D+02 0.381524613363799D+02 0.664772005490523D+02 -.632328451820210D+02
 0.240913129444104D+03 0.429118753094334D+01 0.761560662513314D+02 -.228519091590285D+03
 0.142368368239378D+03 -.105449681144146D+02 0.677965097251460D+02 0.953623260901636D+02
 0.000000000000000D+00 -.000000000000000D+00 0.000000000000000D+00 -.000000000000000D+00
 0.126896091336487D+04 0.000000000000000D+00 0.000000000000000D+00 0.126896091336487D+04
 0.275706798256877D+04 0.000000000000000D+00 0.000000000000000D+00 -.275706798256877D+04
 0.873421773575979D+03 0.594616755511702D+03 -.603539902146570D+03 0.196389610682142D+03
 0.223863911068425D+03 0.210649094072995D+03 -.417566418101927D+02 -.632328451820210D+02
 0.481064874688975D+03 0.389588180629125D+03 -.165600386329135D+03 -.228519091590285D+03
 0.235825663205597D+03 0.191285312433258D+03 -.588428711227909D+02 0.953623260901636D+02
 0.221185267339466D+04 -.138613934264708D+04 0.869739801408689D+03 -.148810706920390D+04
0.237534984846D-04 0.000000000000D+00 0.000000000000D+00 0.157529263684D-06 0.000000000000D+00  7 2 -2 24 -11 11 -24 21 0 0.21038232D+00 0.17252495D-01 0.59086746D+05 0.59086746D+05 0.59086746D+05 0.11409707D+01  1  2  2  1  7  1        2 0.119916359191D-02 0.100000000000D+01
-.954781096645D-06 0.000000000000D+00 -.912196886206D-07 0.157529263684D-06 0.000000000000D+00  7 2 -2 24 -11 11 -24 21 2 0.21038232D+00 0.17252495D-01 0.59086746D+05 0.59086746D+05 0.59086746D+05 0.11409707D+01  1  2  3  1  7  1        2 -.627485396833D-04 0.100000000000D+01
0.147220855473D-05 0.000000000000D+00 0.000000000000D+00 0.157529263684D-06 0.000000000000D+00  7 2 -2 24 -11 11 -24 21 2 0.21038232D+00 0.17252495D-01 0.59086746D+05 0.59086746D+05 0.59086746D+05 0.11409707D+01  1  2 15  1  7  1        2 0.967540489052D-04 0.100000000000D+01
  </mgrwgt>
  </event>
  <event>
  8     66 0.26993063E-05 0.74090493E+03 0.75467711E-02 0.84186297E-01
        2 -1    0    0  501    0 0.00000000E+00 0.00000000E+00 0.14895735E+04 0.14895736E+04 0.32000000E+00 0.0000E+00 0.9000E+01
       -2 -1    0    0    0  501 0.00000000E+00 0.00000000E+00 -.73041706E+03 0.73041713E+03 0.32000000E+00 0.0000E+00 0.9000E+01
       25  2    1    2    0    0 0.89751530E+02 0.99468641E+03 0.59859604E+03 0.12028708E+04 0.30186833E+03 0.0000E+00 0.0000E+00
       23  2    1    2    0    0 -.89751530E+02 -.99468641E+03 0.16056044E+03 0.10171199E+04 0.10628687E+03 0.0000E+00 0.0000E+00
       24  1    3    3    0    0 0.12610786E+03 0.41606565E+03 0.36247869E+03 0.57172707E+03 0.80419002E+02 0.0000E+00 0.9000E+01
      -11  1    4    4    0    0 -.94115836E+02 -.98432868E+03 0.14728710E+03 0.99972708E+03 0.51099893E-03 0.0000E+00 0.9000E+01
       11  1    4    4    0    0 0.43643054E+01 -.10357732E+02 0.13273336E+02 0.17392850E+02 0.51099893E-03 0.0000E+00 0.9000E+01
      -24  1    3    3    0    0 -.36356332E+02 0.57862076E+03 0.23611735E+03 0.63114371E+03 0.80419002E+02 0.0000E+00 0.9000E+01
#aMCatNLO 1  0  0  1  2 0.68742419D+03 0.00000000D+00  -5  7  0 0.00000000D+00 0.00000000D+00 0.00000000D+00 0.00000000D+00 0.00000000D+00
  <mgrwgt>
 0.2301905023D-02    8    2    0
 0.104307719858611D+04 0.000000000000000D+00 0.000000000000000D+00 0.104307719858611D+04
 0.104307719858611D+04 0.000000000000000D+00 0.000000000000000D+00 -.104307719858611D+04
 0.476499115117963D+03 0.126107862199464D+03 0.416065652991869D+03 0.177680528606151D+03
 0.101026600184488D+04 -.941158357904072D+02 -.984328679332924D+03 -.207066788693419D+03
 0.136784825508089D+02 0.436430544228004D+01 -.103577322828585D+02 0.779558239363143D+01
 0.585710797658570D+03 -.363563318513364D+02 0.578620758623913D+03 0.215906776936359D+02
 0.000000000000000D+00 0.000000000000000D+00 0.000000000000000D+00 0.000000000000000D+00
 0.179383112370361D+04 0.000000000000000D+00 0.000000000000000D+00 0.179383112370361D+04
 0.126808788809922D+04 0.000000000000000D+00 0.000000000000000D+00 -.126808788809922D+04
 0.376332453933516D+03 0.279645846117380D+02 0.320634545379912D+03 0.177680528606151D+03
 0.131205236725762D+04 -.361366656019065D+03 -.124419407624539D+04 -.207066788693419D+03
 0.157502641154938D+02 0.977665268602968D+00 -.136507833282373D+02 0.779558239363143D+01
 0.492360348120425D+03 -.160420026910353D+03 0.457985539127282D+03 0.215906776936359D+02
 0.865423578375767D+03 0.492844433049077D+03 0.479224775066437D+03 0.525743235604392D+03
0.144496614113D-02 0.000000000000D+00 0.000000000000D+00 0.199831776552D-07 0.000000000000D+00  7 2 -2 24 -11 11 -24 21 0 0.22916517D+00 0.11237186D+00 0.10276917D+07 0.10276917D+07 0.10276917D+07 0.10470752D+01  1  2  2  1  7  1        2 0.139486786014D-02 0.100000000000D+01
-.801965202081D-04 0.000000000000D+00 -.554905045027D-05 0.199831776552D-07 0.000000000000D+00  7 2 -2 24 -11 11 -24 21 2 0.22916517D+00 0.11237186D+00 0.10276917D+07 0.10276917D+07 0.10276917D+07 0.10470752D+01  1  2  3  1  7  1        2 -.848763446523D-04 0.100000000000D+01
0.908731026737D-04 0.000000000000D+00 0.000000000000D+00 0.199831776552D-07 0.000000000000D+00  7 2 -2 24 -11 11 -24 21 2 0.22916517D+00 0.11237186D+00 0.10276917D+07 0.10276917D+07 0.10276917D+07 0.10470752D+01  1  2 15  1  7  1        2 0.961759532974D-04 0.100000000000D+01
0.195153437067D-03 0.000000000000D+00 0.000000000000D+00 0.199831776552D-07 0.000000000000D+00  7 2 -2 24 -11 11 -24 21 2 0.40403352D+00 0.11237186D+00 0.19885977D+07 0.19885977D+07 0.19885977D+07 0.10285505D+01  1  2 12  1  7  1        2 0.427332436970D-04 0.100000000000D+01
-.831820961820D-03 0.000000000000D+00 -.416071608530D-03 0.199831776552D-07 0.000000000000D+00  7 2 -2 24 -11 11 -24 21 2 0.42119944D+00 0.11237186D+00 0.10276917D+07 0.10276917D+07 0.10276917D+07 0.10470752D+01  1  2  5  1  7  1        2 -.170179876628D-03 0.100000000000D+01
0.967066838504D-03 0.000000000000D+00 0.349338991599D-03 0.199831776552D-07 0.000000000000D+00  7 2 -2 24 -11 11 -24 21 2 0.22916517D+00 0.11237186D+00 0.10276917D+07 0.10276917D+07 0.10276917D+07 0.10470752D+01  1  2  6  1  7  1        2 0.102349949940D-02 0.100000000000D+01
0.121985708573D-04 0.000000000000D+00 0.000000000000D+00 0.199831776552D-07 0.000000000000D+00  7 21 -2 24 -11 11 -24 -2 2 0.40403352D+00 0.11237186D+00 0.19885977D+07 0.19885977D+07 0.19885977D+07 0.10285505D+01  1  2 12  3  7  1        2 0.247398919424D-06 0.100000000000D+01
-.324983642833D-04 0.000000000000D+00 -.276573439238D-04 0.199831776552D-07 0.000000000000D+00  7 21 -2 24 -11 11 -24 -2 2 0.42119944D+00 0.11237186D+00 0.10276917D+07 0.10276917D+07 0.10276917D+07 0.10470752D+01  1  2  5  3  7  1        2 -.562711230266D-06 0.100000000000D+01
  </mgrwgt>
  </event>
  <event>
  8     66 0.26993063E-05 0.13420359E+03 0.75467711E-02 0.10493162E+00
        4 -1    0    0  501    0 0.00000000E+00 0.00000000E+00 0.24340042E+03 0.24340536E+03 0.15500000E+01 0.0000E+00 0.9000E+01
       -4 -1    0    0    0  501 0.00000000E+00 0.00000000E+00 -.24010344E+03 0.24010844E+03 0.15500000E+01 0.0000E+00 0.9000E+01
       25  2    1    2    0    0 -.70672793E+02 -.91830386E+02 -.65092341E+01 0.32117142E+03 0.29946827E+03 0.0000E+00 0.0000E+00
       23  2    1    2    0    0 0.70672793E+02 0.91830386E+02 0.98062152E+01 0.16234238E+03 0.11327588E+03 0.0000E+00 0.0000E+00
       24  1    3    3    0    0 -.42432133E+01 -.64411810E+01 -.12020092E+03 0.14482738E+03 0.80419002E+02 0.0000E+00 0.9000E+01
      -11  1    4    4    0    0 0.25647899E+01 -.25470247E+02 -.43496712E+01 0.25965964E+02 0.51099893E-03 0.0000E+00 0.9000E+01
       11  1    4    4    0    0 0.68108003E+02 0.11730063E+03 0.14155886E+02 0.13637642E+03 0.51099893E-03 0.0000E+00 0.9000E+01
      -24  1    3    3    0    0 -.66429579E+02 -.85389205E+02 0.11369168E+03 0.17634404E+03 0.80419002E+02 0.0000E+00 0.9000E+01
#aMCatNLO 1  0  0  2  1 0.63935342D+02 0.00000000D+00  -5  7  0 0.00000000D+00 0.00000000D+00 0.00000000D+00 0.00000000D+00 0.00000000D+00
  <mgrwgt>
 0.6984420525D-04    9    2    0
 0.241751280869637D+03 0.000000000000000D+00 0.000000000000000D+00 0.241751280869637D+03
 0.241751280869637D+03 0.000000000000000D+00 0.000000000000000D+00 -.241751280869637D+03
 0.145650393386474D+03 -.424322244042083D+01 -.644119290123906D+01 -.121191283665923D+03
 0.259962058968071D+02 0.256479707366537D+01 -.254702247360339D+02 -.452682989475316D+01
 0.136283071497715D+03 0.681080157134475D+02 0.117300637428193D+03 0.132262705010785D+02
 0.175572890958277D+03 -.664295903466920D+02 -.853892197909204D+02 0.112491843059598D+03
 0.000000000000000D+00 -.000000000000000D+00 -.000000000000000D+00 -.000000000000000D+00
 0.262875097320867D+03 0.000000000000000D+00 0.000000000000000D+00 0.262875097320867D+03
 0.297586829517103D+03 0.000000000000000D+00 0.000000000000000D+00 -.297586829517103D+03
 0.145953077014182D+03 0.568863711724535D+00 0.121422359152055D+02 -.121191283665923D+03
 0.230470362430389D+02 0.337411633873861D+01 -.223447763386563D+02 -.452682989475316D+01
 0.154742898376992D+03 0.729105718614405D+02 0.135847263047815D+03 0.132262705010785D+02
 0.163968435043015D+03 -.608264261913171D+02 -.637507871161767D+02 0.112491843059598D+03
 0.727504801607410D+02 -.160271257205865D+02 -.618939355081875D+02 -.347117321962362D+02
0.466984956916D-05 0.000000000000D+00 0.000000000000D+00 0.149150678842D-08 0.000000000000D+00  7 4 -4 24 -11 11 -24 21 0 0.37446983D-01 0.36939755D-01 0.35499886D+05 0.35499886D+05 0.35499886D+05 0.11606132D+01  1  2  2  2  7  2       -4 0.568938924111D-04 0.100000000000D+01
-.239836737751D-06 0.000000000000D+00 -.179334519452D-07 0.149150678842D-08 0.000000000000D+00  7 4 -4 24 -11 11 -24 21 2 0.37446983D-01 0.36939755D-01 0.35499886D+05 0.35499886D+05 0.35499886D+05 0.11606132D+01  1  2  3  2  7  2       -4 -.393598547654D-05 0.100000000000D+01
0.297822670894D-06 0.000000000000D+00 0.000000000000D+00 0.149150678842D-08 0.000000000000D+00  7 4 -4 24 -11 11 -24 21 2 0.37446983D-01 0.36939755D-01 0.35499886D+05 0.35499886D+05 0.35499886D+05 0.11606132D+01  1  2 15  2  7  2       -4 0.488759861487D-05 0.100000000000D+01
0.417255322265D-05 0.000000000000D+00 0.000000000000D+00 0.149150678842D-08 0.000000000000D+00  7 4 -4 24 -11 11 -24 21 2 0.37446983D-01 0.46801902D-01 0.48694647D+05 0.48694647D+05 0.48694647D+05 0.11483073D+01  1  2 12  2  7  2       -4 0.411865514039D-04 0.100000000000D+01
-.460056582522D-05 0.000000000000D+00 0.000000000000D+00 0.149150678842D-08 0.000000000000D+00  7 4 -4 24 -11 11 -24 21 2 0.37446983D-01 0.36939755D-01 0.35499886D+05 0.35499886D+05 0.35499886D+05 0.11606132D+01  1  2  4  2  7  2       -4 -.755003609612D-04 0.100000000000D+01
-.748370274517D-05 0.000000000000D+00 -.244901026591D-05 0.149150678842D-08 0.000000000000D+00  7 4 -4 24 -11 11 -24 21 2 0.37446983D-01 0.48887425D-01 0.35499886D+05 0.35499886D+05 0.35499886D+05 0.11606132D+01  1  2  5  2  7  2       -4 -.676685385720D-04 0.100000000000D+01
0.794894197460D-05 0.000000000000D+00 0.235589906463D-05 0.149150678842D-08 0.000000000000D+00  7 4 -4 24 -11 11 -24 21 2 0.37446983D-01 0.36939755D-01 0.35499886D+05 0.35499886D+05 0.35499886D+05 0.11606132D+01  1  2  6  2  7  2       -4 0.130450907811D-03 0.100000000000D+01
0.135580155950D-06 0.000000000000D+00 0.000000000000D+00 0.149150678842D-08 0.000000000000D+00  7 4 21 24 -11 11 -24 4 2 0.37446983D-01 0.46801902D-01 0.48694647D+05 0.48694647D+05 0.48694647D+05 0.11483073D+01  1  2 12  4  7  2       -4 0.293961446616D-04 0.100000000000D+01
-.226003476162D-06 0.000000000000D+00 -.901052949914D-07 0.149150678842D-08 0.000000000000D+00  7 4 21 24 -11 11 -24 4 2 0.37446983D-01 0.48887425D-01 0.35499886D+05 0.35499886D+05 0.35499886D+05 0.11606132D+01  1  2  5  4  7  2       -4 -.458660046440D-04 0.100000000000D+01
  </mgrwgt>
  </event>
  <event>
  8     66 0.26993063E-05 0.30522156E+03 0.75467711E-02 0.97984552E-01
        2 -1    0    0  501    0 0.00000000E+00 0.00000000E+00 0.44702272E+03 0.44702283E+03 0.32000000E+00 0.0000E+00 0.9000E+01
       -2 -1    0    0    0  501 0.00000000E+00 0.00000000E+00 -.24798288E+03 0.24798308E+03 0.32000000E+00 0.0000E+00 0.9000E+01
       25  2    1    2    0    0 -.52725589E+02 -.24471776E+03 0.59460527E+02 0.39436975E+03 0.29887318E+03 0.0000E+00 0.0000E+00
       23  2    1    2    0    0 0.52725589E+02 0.24471776E+03 0.13957931E+03 0.30063616E+03 0.90735586E+02 0.0000E+00 0.0000E+00
       24  1    3    3    0    0 -.23202655E+02 -.24533309E+03 -.40892010E+02 0.26242344E+03 0.80419002E+02 0.0000E+00 0.9000E+01
      -11  1    4    4    0    0 0.34039360E+02 0.24451074E+03 0.12376668E+03 0.27615643E+03 0.51099893E-03 0.0000E+00 0.9000E+01
       11  1    4    4    0    0 0.18686229E+02 0.20701910E+00 0.15812635E+02 0.24479735E+02 0.51099893E-03 0.0000E+00 0.9000E+01
      -24  1    3    3    0    0 -.29522934E+02 0.61532859E+00 0.10035254E+03 0.13194631E+03 0.80419002E+02 0.0000E+00 0.9000E+01
#aMCatNLO 1  0  0  1  1 0.12642888D+03 0.00000000D+00  -5  7  0 0.00000000D+00 0.00000000D+00 0.00000000D+00 0.00000000D+00 0.00000000D+00
  <mgrwgt>
 0.8452913814D-03    4    2    0
 0.332947580194832D+03 0.000000000000000D+00 0.000000000000000D+00 0.332947580194832D+03
 0.332947580194832D+03 0.000000000000000D+00 0.000000000000000D+00 -.332947580194832D+03
 0.286118585323148D+03 -.232026551619673D+02 -.245333090952346D+03 -.121119528525139D+03
 0.251234519091523D+03 0.340393596092898D+02 0.244510743271453D+03 0.466326281200188D+02
 0.208234229772446D+02 0.186862291039356D+02 0.207019090680333D+00 0.918678014652370D+01
 0.107718632997748D+03 -.295229335512581D+02 0.615328590212528D+00 0.653001202585964D+02
 0.000000000000000D+00 -.000000000000000D+00 0.000000000000000D+00 -.000000000000000D+00
 0.373170359693942D+03 0.000000000000000D+00 0.000000000000000D+00 0.373170359693942D+03
 0.455484298535180D+03 0.000000000000000D+00 0.000000000000000D+00 -.455484298535180D+03
 0.323238688598219D+03 0.147362539550848D+02 -.288320891510735D+03 -.121119528525139D+03
 0.225192430953664D+03 0.637019558106294D+02 0.210900663297537D+03 0.466326281200188D+02
 0.235135645484700D+02 0.214466736120273D+02 -.292078402037463D+01 0.918678014652370D+01
 0.105846306122408D+03 -.162262664519597D+02 -.144508524534335D+02 0.653001202585964D+02
 0.150863668006361D+03 -.836586169257818D+02 0.947918646870061D+02 -.823139388412375D+02
0.198145805920D-04 0.000000000000D+00 0.000000000000D+00 0.295901962982D-06 0.000000000000D+00  7 2 -2 24 -11 11 -24 21 0 0.68772750D-01 0.38151237D-01 0.93160201D+05 0.93160201D+05 0.93160201D+05 0.11242558D+01  1  2  2  1  7  1        2 0.108830076360D-02 0.100000000000D+01
-.109069180907D-05 0.000000000000D+00 -.760932067722D-07 0.295901962982D-06 0.000000000000D+00  7 2 -2 24 -11 11 -24 21 2 0.68772750D-01 0.38151237D-01 0.93160201D+05 0.93160201D+05 0.93160201D+05 0.11242558D+01  1  2  3  1  7  1        2 -.757175219639D-04 0.100000000000D+01
0.128331420387D-05 0.000000000000D+00 0.000000000000D+00 0.295901962982D-06 0.000000000000D+00  7 2 -2 24 -11 11 -24 21 2 0.68772750D-01 0.38151237D-01 0.93160201D+05 0.93160201D+05 0.93160201D+05 0.11242558D+01  1  2 15  1  7  1        2 0.890896682359D-04 0.100000000000D+01
-.369311126237D-05 0.000000000000D+00 0.000000000000D+00 0.295901962982D-06 0.000000000000D+00  7 2 -2 24 -11 11 -24 21 2 0.68772750D-01 0.38151237D-01 0.93160201D+05 0.93160201D+05 0.93160201D+05 0.11242558D+01  1  2  4  1  7  1        2 -.256381528492D-03 0.100000000000D+01
  </mgrwgt>
  </event>
  <event>
  8     66 0.26993063E-05 0.23806020E+03 0.75467711E-02 0.91701833E-01
        2 -1    0    0  501    0 0.00000000E+00 0.00000000E+00 0.67378556E+03 0.67378564E+03 0.32000000E+00 0.0000E+00 0.9000E+01
       -2 -1    0    0    0  501 0.00000000E+00 0.00000000E+00 -.97343310E+02 0.97343836E+02 0.32000000E+00 0.0000E+00 0.9000E+01
       25  2    1    2    0    0 0.11816127E+03 0.90787734E+02 0.38566672E+03 0.51052115E+03 0.29948042E+03 0.0000E+00 0.0000E+00
       23  2    1    2    0    0 -.11816127E+03 -.90787734E+02 0.19077553E+03 0.26060833E+03 0.96524085E+02 0.0000E+00 0.0000E+00
       24  1    3    3    0    0 0.13123301E+03 0.14394866E+03 0.15941789E+03 0.26424344E+03 0.80419002E+02 0.0000E+00 0.9000E+01
      -13  1    4    4    0    0 -.12500947E+03 -.63982342E+02 0.18513847E+03 0.23237334E+03 0.10565837E+00 0.0000E+00 0.9000E+01
       13  1    4    4    0    0 0.68481917E+01 -.26805393E+02 0.56370600E+01 0.28234986E+02 0.10565837E+00 0.0000E+00 0.9000E+01
      -24  1    3    3    0    0 -.13071739E+02 -.53160922E+02 0.22624884E+03 0.24627770E+03 0.80419002E+02 0.0000E+00 0.9000E+01
#aMCatNLO 1  0  0  2  1 0.56803559D+03 0.00000000D+00  -5  7  0 0.00000000D+00 0.00000000D+00 0.00000000D+00 0.00000000D+00 0.00000000D+00
  <mgrwgt>
 0.1030218112D-02    3    2    0
 0.256103004429355D+03 0.000000000000000D+00 0.000000000000000D+00 0.256103004429355D+03
 0.256103004429355D+03 0.000000000000000D+00 0.000000000000000D+00 -.256103004429355D+03
 0.218409600087369D+03 0.131233025744535D+03 0.143948665758947D+03 -.573778008998858D+02
 0.141482846836174D+03 -.125009621510483D+03 -.639824035387154D+02 0.172116970715595D+02
 0.361638054505208D+02 0.684832746125655D+01 -.268053464348650D+02 -.232893674914839D+02
 0.116149756484647D+03 -.130717316953087D+02 -.531609157853669D+02 0.634554713198102D+02
 0.000000000000000D+00 0.000000000000000D+00 0.000000000000000D+00 0.000000000000000D+00
 0.852765826963318D+03 0.000000000000000D+00 0.000000000000000D+00 0.852765826963318D+03
 0.553941312065560D+03 0.000000000000000D+00 0.000000000000000D+00 -.553941312065560D+03
 0.139931550390065D+03 -.210361651030623D+02 0.968446723462188D+02 -.573778008998858D+02
 0.364685943345518D+03 -.340094916656140D+03 -.130518360479973D+03 0.172116970715595D+02
 0.555322676849342D+02 -.321159021329025D+02 -.388588078338442D+02 -.232893674914839D+02
 0.204715867002843D+03 -.149416521553114D+03 -.953387460317360D+02 0.634554713198102D+02
 0.641841510605518D+03 0.542663505445219D+03 0.167871241999334D+03 0.298824514897759D+03
0.602791507688D-05 0.000000000000D+00 0.000000000000D+00 0.201372727534D-07 0.000000000000D+00  7 2 -2 24 -13 13 -24 21 0 0.10365936D+00 0.14975940D-01 0.56672661D+05 0.56672661D+05 0.56672661D+05 0.11425406D+01  1  2  2  2  7  2       -2 0.101682325096D-02 0.100000000000D+01
-.332711022682D-06 0.000000000000D+00 -.231487810817D-07 0.201372727534D-07 0.000000000000D+00  7 2 -2 24 -13 13 -24 21 2 0.10365936D+00 0.14975940D-01 0.56672661D+05 0.56672661D+05 0.56672661D+05 0.11425406D+01  1  2  3  2  7  2       -2 -.732636944625D-04 0.100000000000D+01
0.393540851435D-06 0.000000000000D+00 0.000000000000D+00 0.201372727534D-07 0.000000000000D+00  7 2 -2 24 -13 13 -24 21 2 0.10365936D+00 0.14975940D-01 0.56672661D+05 0.56672661D+05 0.56672661D+05 0.11425406D+01  1  2 15  2  7  2       -2 0.866585557209D-04 0.100000000000D+01
  </mgrwgt>
  </event>
  <event>
  8     66 0.26993063E-05 0.13312959E+03 0.75467711E-02 0.10195936E+00
        2 -1    0    0  501    0 0.00000000E+00 0.00000000E+00 0.32283966E+03 0.32283982E+03 0.32000000E+00 0.0000E+00 0.9000E+01
       -2 -1    0    0    0  501 0.00000000E+00 0.00000000E+00 -.23872112E+03 0.23872133E+03 0.32000000E+00 0.0000E+00 0.9000E+01
       25  2    1    2    0    0 0.71937591E+02 -.11462409E+03 0.17624878E+03 0.37316438E+03 0.29979046E+03 0.0000E+00 0.0000E+00
       23  2    1    2    0    0 -.71937591E+02 0.11462409E+03 -.92130236E+02 0.18839677E+03 0.93229099E+02 0.0000E+00 0.0000E+00
       24  1    3    3    0    0 -.27080005E+02 -.12931618E+03 0.18889367E+03 0.24413937E+03 0.80419002E+02 0.0000E+00 0.9000E+01
      -11  1    4    4    0    0 0.30065224E+01 0.81014472E+02 -.34753551E+02 0.88205403E+02 0.51099893E-03 0.0000E+00 0.9000E+01
       11  1    4    4    0    0 -.74944113E+02 0.33609615E+02 -.57376685E+02 0.10019137E+03 0.51099893E-03 0.0000E+00 0.9000E+01
      -24  1    3    3    0    0 0.99017596E+02 0.14692091E+02 -.12644887E+02 0.12902500E+03 0.80419002E+02 0.0000E+00 0.9000E+01
#aMCatNLO 1  0  0  1  2 0.98467449D+02 0.00000000D+00  -5  7  0 0.00000000D+00 0.00000000D+00 0.00000000D+00 0.00000000D+00 0.00000000D+00
  <mgrwgt>
 0.5990808900D-03    9    2    0
 0.277612586703080D+03 0.000000000000000D+00 0.000000000000000D+00 0.277612586703080D+03
 0.277612586703080D+03 0.000000000000000D+00 0.000000000000000D+00 -.277612586703080D+03
 0.218307333477525D+03 -.270800052023764D+02 -.129316178283321D+03 0.154061271084372D+03
 0.944772465045068D+02 0.300652242070178D+01 0.810144720108830D+02 -.485135677393966D+02
 0.110027473699547D+03 -.749441131928882D+02 0.336096152065439D+02 -.732107822120760D+02
 0.132413119724581D+03 0.990175959745629D+02 0.146920910658942D+02 -.323369211328996D+02
 0.000000000000000D+00 0.000000000000000D+00 -.000000000000000D+00 0.000000000000000D+00
 0.335249398108819D+03 0.000000000000000D+00 0.000000000000000D+00 0.335249398108819D+03
 0.327418009851509D+03 0.000000000000000D+00 0.000000000000000D+00 -.327418009851509D+03
 0.199374001398353D+03 -.307486503001851D+02 -.927492411602611D+02 0.154061271084372D+03
 0.110194158596239D+03 0.120881999953038D+01 0.989329322730142D+02 -.485135677393966D+02
 0.119001946193030D+03 -.769557608016868D+02 0.536605576290286D+02 -.732107822120760D+02
 0.135318918032704D+03 0.966660093801164D+02 0.381313491151166D+02 -.323369211328996D+02
 0.987783837400029D+02 0.982958172222514D+01 -.979755978568983D+02 0.783138825730952D+01
0.538454133524D-05 0.000000000000D+00 0.000000000000D+00 0.163313387162D-06 0.000000000000D+00  7 2 -2 24 -11 11 -24 21 0 0.49667669D-01 0.36726354D-01 0.49791651D+05 0.49791651D+05 0.49791651D+05 0.11474549D+01  1  2  2  1  7  1        2 0.452203537144D-03 0.100000000000D+01
-.281788628815D-06 0.000000000000D+00 -.206780565096D-07 0.163313387162D-06 0.000000000000D+00  7 2 -2 24 -11 11 -24 21 2 0.49667669D-01 0.36726354D-01 0.49791651D+05 0.49791651D+05 0.49791651D+05 0.11474549D+01  1  2  3  1  7  1        2 -.311587466225D-04 0.100000000000D+01
0.346722121694D-06 0.000000000000D+00 0.000000000000D+00 0.163313387162D-06 0.000000000000D+00  7 2 -2 24 -11 11 -24 21 2 0.49667669D-01 0.36726354D-01 0.49791651D+05 0.49791651D+05 0.49791651D+05 0.11474549D+01  1  2 15  1  7  1        2 0.383387604522D-04 0.100000000000D+01
0.244171640476D-05 0.000000000000D+00 0.000000000000D+00 0.163313387162D-06 0.000000000000D+00  7 2 -2 24 -11 11 -24 21 2 0.63618170D-01 0.36726354D-01 0.75398040D+05 0.75398040D+05 0.75398040D+05 0.11319272D+01  1  2 12  1  7  1        2 0.200839253372D-03 0.100000000000D+01
-.285103127125D-05 0.000000000000D+00 0.000000000000D+00 0.163313387162D-06 0.000000000000D+00  7 2 -2 24 -11 11 -24 21 2 0.49667669D-01 0.36726354D-01 0.49791651D+05 0.49791651D+05 0.49791651D+05 0.11474549D+01  1  2  4  1  7  1        2 -.315252469084D-03 0.100000000000D+01
-.564521356390D-05 0.000000000000D+00 -.272249165681D-05 0.163313387162D-06 0.000000000000D+00  7 2 -2 24 -11 11 -24 21 2 0.69357760D-01 0.36726354D-01 0.49791651D+05 0.49791651D+05 0.49791651D+05 0.11474549D+01  1  2  5  1  7  1        2 -.435104667453D-03 0.100000000000D+01
0.634245226028D-05 0.000000000000D+00 0.257745185328D-05 0.163313387162D-06 0.000000000000D+00  7 2 -2 24 -11 11 -24 21 2 0.49667669D-01 0.36726354D-01 0.49791651D+05 0.49791651D+05 0.49791651D+05 0.11474549D+01  1  2  6  1  7  1        2 0.701315960742D-03 0.100000000000D+01
0.820357047846D-07 0.000000000000D+00 0.000000000000D+00 0.163313387162D-06 0.000000000000D+00  7 21 -2 24 -11 11 -24 -2 2 0.63618170D-01 0.36726354D-01 0.75398040D+05 0.75398040D+05 0.75398040D+05 0.11319272D+01  1  2 12  3  7  1        2 0.168254653710D-04 0.100000000000D+01
-.163897474260D-06 0.000000000000D+00 -.113688736270D-06 0.163313387162D-06 0.000000000000D+00  7 21 -2 24 -11 11 -24 -2 2 0.69357760D-01 0.36726354D-01 0.49791651D+05 0.49791651D+05 0.49791651D+05 0.11474549D+01  1  2  5  3  7  1        2 -.289262039491D-04 0.100000000000D+01
  </mgrwgt>
  </event>
  <event>
  8     66 0.26993063E-05 0.17551009E+03 0.75467711E-02 0.98881540E-01
        2 -1    0    0  501    0 0.00000000E+00 0.00000000E+00 0.84726166E+03 0.84726172E+03 0.32000000E+00 0.0000E+00 0.9000E+01
       -2 -1    0    0    0  501 0.00000000E+00 0.00000000E+00 -.14940920E+03 0.14940955E+03 0.32000000E+00 0.0000E+00 0.9000E+01
       25  2    1    2    0    0 0.12320203E+03 0.21244582E+03 0.60632162E+03 0.71957307E+03 0.29974577E+03 0.0000E+00 0.0000E+00
       23  2    1    2    0    0 -.12320203E+03 -.21244582E+03 0.91530834E+02 0.27709820E+03 0.89964157E+02 0.0000E+00 0.0000E+00
       24  1    3    3    0    0 -.35021514E+02 0.14528786E+03 0.15445138E+03 0.22947225E+03 0.80419002E+02 0.0000E+00 0.9000E+01
      -11  1    4    4    0    0 -.59113222E+02 -.62373803E+02 -.74238203E+01 0.86255303E+02 0.51099893E-03 0.0000E+00 0.9000E+01
       11  1    4    4    0    0 -.64088807E+02 -.15007202E+03 0.98954655E+02 0.19084289E+03 0.51099893E-03 0.0000E+00 0.9000E+01
      -24  1    3    3    0    0 0.15822354E+03 0.67157962E+02 0.45187024E+03 0.49010082E+03 0.80419002E+02 0.0000E+00 0.9000E+01
#aMCatNLO 1  0  0  2  1 0.86372477D+02 0.00000000D+00  -5  7  0 0.00000000D+00 0.00000000D+00 0.00000000D+00 0.00000000D+00 0.00000000D+00
  <mgrwgt>
 0.6596897654D-03    9    2    0
 0.355793325240703D+03 0.000000000000000D+00 0.000000000000000D+00 0.355793325240703D+03
 0.355793325240703D+03 0.000000000000000D+00 0.000000000000000D+00 -.355793325240703D+03
 0.169935907050235D+03 -.350215137620072D+02 0.145287860154733D+03 -.871365687250103D+01
 0.128092500514493D+03 -.591132216583665D+02 -.623738029240722D+02 -.949885488993980D+02
 0.170255975342017D+03 -.640888073772372D+02 -.150072019639777D+03 -.485603833372757D+02
 0.243302267574660D+03 0.158223542797611D+03 0.671579624091167D+02 0.152262589109175D+03
 0.000000000000000D+00 -.000000000000000D+00 -.000000000000000D+00 -.000000000000000D+00
 0.375051957942618D+03 0.000000000000000D+00 0.000000000000000D+00 0.375051957942618D+03
 0.470438372669793D+03 0.000000000000000D+00 0.000000000000000D+00 -.470438372669793D+03
 0.187508920875549D+03 -.304199120291055D+02 0.166406371841923D+03 -.871365687250103D+01
 0.120107696428152D+03 -.559179916057023D+02 -.477096691882098D+02 -.949885488993980D+02
 0.152051278071130D+03 -.599395527231996D+02 -.131029501840402D+03 -.485603833372757D+02
 0.257141539518387D+03 0.164666056187167D+03 0.967251223263685D+02 0.152262589109175D+03
 0.128680895719192D+03 -.183885998291591D+02 -.843923231396796D+02 -.953864147271747D+02
0.862179739151D-05 0.000000000000D+00 0.000000000000D+00 0.997106860701D-06 0.000000000000D+00  7 2 -2 24 -11 11 -24 21 0 0.13034798D+00 0.22986062D-01 0.92598500D+05 0.92598500D+05 0.92598500D+05 0.11244729D+01  1  2  2  2  7  2       -2 0.545049384083D-03 0.100000000000D+01
-.464754831759D-06 0.000000000000D+00 -.331099721548D-07 0.997106860701D-06 0.000000000000D+00  7 2 -2 24 -11 11 -24 21 2 0.13034798D+00 0.22986062D-01 0.92598500D+05 0.92598500D+05 0.92598500D+05 0.11244729D+01  1  2  3  2  7  2       -2 -.371500973756D-04 0.100000000000D+01
0.547025588358D-06 0.000000000000D+00 0.000000000000D+00 0.997106860701D-06 0.000000000000D+00  7 2 -2 24 -11 11 -24 21 2 0.13034798D+00 0.22986062D-01 0.92598500D+05 0.92598500D+05 0.92598500D+05 0.11244729D+01  1  2 15  2  7  2       -2 0.437263961249D-04 0.100000000000D+01
0.128393998926D-04 0.000000000000D+00 0.000000000000D+00 0.997106860701D-06 0.000000000000D+00  7 2 -2 24 -11 11 -24 21 2 0.13034798D+00 0.30866284D-01 0.12197108D+06 0.12197108D+06 0.12197108D+06 0.11147117D+01  1  2 12  2  7  2       -2 0.604541733383D-03 0.100000000000D+01
-.136087075611D-04 0.000000000000D+00 0.000000000000D+00 0.997106860701D-06 0.000000000000D+00  7 2 -2 24 -11 11 -24 21 2 0.13034798D+00 0.22986062D-01 0.92598500D+05 0.92598500D+05 0.92598500D+05 0.11244729D+01  1  2  4  2  7  2       -2 -.108780969342D-02 0.100000000000D+01
-.179207319577D-04 0.000000000000D+00 -.410066781148D-05 0.997106860701D-06 0.000000000000D+00  7 2 -2 24 -11 11 -24 21 2 0.13034798D+00 0.31789588D-01 0.92598500D+05 0.92598500D+05 0.92598500D+05 0.11244729D+01  1  2  5  2  7  2       -2 -.818590977418D-03 0.100000000000D+01
0.184770253733D-04 0.000000000000D+00 0.389415500398D-05 0.997106860701D-06 0.000000000000D+00  7 2 -2 24 -11 11 -24 21 2 0.13034798D+00 0.22986062D-01 0.92598500D+05 0.92598500D+05 0.92598500D+05 0.11244729D+01  1  2  6  2  7  2       -2 0.147695783868D-02 0.100000000000D+01
0.490047176909D-06 0.000000000000D+00 0.000000000000D+00 0.997106860701D-06 0.000000000000D+00  7 2 21 24 -11 11 -24 2 2 0.13034798D+00 0.30866284D-01 0.12197108D+06 0.12197108D+06 0.12197108D+06 0.11147117D+01  1  2 12  4  7  2       -2 0.270841330867D-03 0.100000000000D+01
-.629125215894D-06 0.000000000000D+00 -.167652422950D-06 0.997106860701D-06 0.000000000000D+00  7 2 21 24 -11 11 -24 2 2 0.13034798D+00 0.31789588D-01 0.92598500D+05 0.92598500D+05 0.92598500D+05 0.11244729D+01  1  2  5  4  7  2       -2 -.337876149572D-03 0.100000000000D+01
  </mgrwgt>
  </event>
  <event>
  8     66 0.26993063E-05 0.25953173E+03 0.75467711E-02 0.94940449E-01
        2 -1    0    0  501    0 0.00000000E+00 0.00000000E+00 0.13597995E+04 0.13597995E+04 0.32000000E+00 0.0000E+00 0.9000E+01
       -2 -1    0    0    0  501 0.00000000E+00 0.00000000E+00 -.46148377E+03 0.46148389E+03 0.32000000E+00 0.0000E+00 0.9000E+01
       25  2    1    2    0    0 0.44325538E+03 -.53165385E+02 0.11717318E+04 0.12895390E+04 0.30108718E+03 0.0000E+00 0.0000E+00
       23  2    1    2    0    0 -.44325538E+03 0.53165385E+02 -.27341610E+03 0.53174442E+03 0.93240925E+02 0.0000E+00 0.0000E+00
       24  1    3    3    0    0 0.34384244E+03 0.23418752E+02 0.58102686E+03 0.68032014E+03 0.80419002E+02 0.0000E+00 0.9000E+01
      -13  1    4    4    0    0 -.15511470E+03 0.44578862E+02 -.14185468E+03 0.21487347E+03 0.10565837E+00 0.0000E+00 0.9000E+01
       13  1    4    4    0    0 -.28814068E+03 0.85865230E+01 -.13156141E+03 0.31687095E+03 0.10565837E+00 0.0000E+00 0.9000E+01
      -24  1    3    3    0    0 0.99412943E+02 -.76584137E+02 0.59070494E+03 0.60921885E+03 0.80419002E+02 0.0000E+00 0.9000E+01
#aMCatNLO 1  0  0  2  1 0.20156704D+02 0.00000000D+00  -5  7  0 0.00000000D+00 0.00000000D+00 0.00000000D+00 0.00000000D+00 0.00000000D+00
  <mgrwgt>
 0.1012299901D-02    9    2    0
 0.792165090674061D+03 0.000000000000000D+00 0.000000000000000D+00 0.792165090674061D+03
 0.792165090674061D+03 0.000000000000000D+00 0.000000000000000D+00 -.792165090674061D+03
 0.452626749801120D+03 0.343842440099936D+03 0.234187516920558D+02 0.282183800272913D+03
 0.327441556460695D+03 -.155114529859557D+03 0.445789081682077D+02 -.284903802133951D+03
 0.438857832905012D+03 -.288140853285963D+03 0.858647685112201D+01 -.330903790526803D+03
 0.365404042181294D+03 0.994129430455840D+02 -.765841367113855D+02 0.333623792387841D+03
 0.000000000000000D+00 0.000000000000000D+00 -.000000000000000D+00 -.000000000000000D+00
 0.798283643593730D+03 0.000000000000000D+00 0.000000000000000D+00 0.798283643593730D+03
 0.809005830092049D+03 0.000000000000000D+00 0.000000000000000D+00 -.809005830092049D+03
 0.450947814410077D+03 0.341239368543510D+03 0.285431530567043D+02 0.282183800272913D+03
 0.328867475423351D+03 -.157005264106391D+03 0.483010037559180D+02 -.284903802133951D+03
 0.440650998955967D+03 -.290674594843685D+03 0.135743953215177D+02 -.330903790526803D+03
 0.363992109606149D+03 0.973116550597476D+02 -.724475454618831D+02 0.333623792387841D+03
 0.228310752902348D+02 0.912883534681914D+01 -.179710066722569D+02 -.107221864983190D+02
0.134735518903D-03 0.000000000000D+00 0.000000000000D+00 0.818713765019D-06 0.000000000000D+00  7 2 -2 24 -13 13 -24 21 0 0.20919993D+00 0.70997515D-01 0.22686514D+06 0.22686514D+06 0.22686514D+06 0.10936460D+01  1  2  2  2  7  2       -2 0.488051346946D-03 0.100000000000D+01
-.513004578604D-05 0.000000000000D+00 -.517419869263D-06 0.818713765019D-06 0.000000000000D+00  7 2 -2 24 -13 13 -24 21 2 0.20919993D+00 0.70997515D-01 0.22686514D+06 0.22686514D+06 0.22686514D+06 0.10936460D+01  1  2  3  2  7  2       -2 -.222258391331D-04 0.100000000000D+01
0.816103862227D-05 0.000000000000D+00 0.000000000000D+00 0.818713765019D-06 0.000000000000D+00  7 2 -2 24 -13 13 -24 21 2 0.20919993D+00 0.70997515D-01 0.22686514D+06 0.22686514D+06 0.22686514D+06 0.10936460D+01  1  2 15  2  7  2       -2 0.353575658274D-04 0.100000000000D+01
0.173639030421D-03 0.000000000000D+00 0.000000000000D+00 0.818713765019D-06 0.000000000000D+00  7 2 -2 24 -13 13 -24 21 2 0.20919993D+00 0.72777024D-01 0.23654342D+06 0.23654342D+06 0.23654342D+06 0.10922714D+01  1  2 12  2  7  2       -2 0.709640151319D-03 0.100000000000D+01
-.168881359881D-03 0.000000000000D+00 0.000000000000D+00 0.818713765019D-06 0.000000000000D+00  7 2 -2 24 -13 13 -24 21 2 0.20919993D+00 0.70997515D-01 0.22686514D+06 0.22686514D+06 0.22686514D+06 0.10936460D+01  1  2  4  2  7  2       -2 -.731675718666D-03 0.100000000000D+01
-.441625866103D-02 0.000000000000D+00 -.599135419551D-03 0.818713765019D-06 0.000000000000D+00  7 2 -2 24 -13 13 -24 21 2 0.20919993D+00 0.72949343D-01 0.22686514D+06 0.22686514D+06 0.22686514D+06 0.10936460D+01  1  2  5  2  7  2       -2 -.180364048389D-01 0.100000000000D+01
0.443109804379D-02 0.000000000000D+00 0.598915150413D-03 0.818713765019D-06 0.000000000000D+00  7 2 -2 24 -13 13 -24 21 2 0.20919993D+00 0.70997515D-01 0.22686514D+06 0.22686514D+06 0.22686514D+06 0.10936460D+01  1  2  6  2  7  2       -2 0.191976595164D-01 0.100000000000D+01
0.575286787193D-05 0.000000000000D+00 0.000000000000D+00 0.818713765019D-06 0.000000000000D+00  7 2 21 24 -13 13 -24 2 2 0.20919993D+00 0.72777024D-01 0.23654342D+06 0.23654342D+06 0.23654342D+06 0.10922714D+01  1  2 12  4  7  2       -2 0.230717006823D-03 0.100000000000D+01
-.214110821312D-04 0.000000000000D+00 -.292641896539D-05 0.818713765019D-06 0.000000000000D+00  7 2 21 24 -13 13 -24 2 2 0.20919993D+00 0.72949343D-01 0.22686514D+06 0.22686514D+06 0.22686514D+06 0.10936460D+01  1  2  5  4  7  2       -2 -.858819289229D-03 0.100000000000D+01
  </mgrwgt>
  </event>
  <event>
  8     66 0.26993063E-05 0.31641823E+03 0.75467711E-02 0.99994465E-01
        2 -1    0    0  501    0 0.00000000E+00 0.00000000E+00 0.19340497E+03 0.19340524E+03 0.32000000E+00 0.0000E+00 0.9000E+01
       -2 -1    0    0    0  501 0.00000000E+00 0.00000000E+00 -.56997623E+03 0.56997632E+03 0.32000000E+00 0.0000E+00 0.9000E+01
       25  2    1    2    0    0 -.24486097E+03 -.17950953E+02 -.30164332E+03 0.49094333E+03 0.29959561E+03 0.0000E+00 0.0000E+00
       23  2    1    2    0    0 0.24486097E+03 0.17950953E+02 -.74927937E+02 0.27243823E+03 0.91264785E+02 0.0000E+00 0.0000E+00
       24  1    3    3    0    0 -.28279359E+03 -.23042355E+02 -.20287805E+03 0.35795235E+03 0.80419002E+02 0.0000E+00 0.9000E+01
      -13  1    4    4    0    0 0.22079862E+03 0.28431041E+02 -.36036606E+02 0.22551941E+03 0.10565837E+00 0.0000E+00 0.9000E+01
       13  1    4    4    0    0 0.24062349E+02 -.10480088E+02 -.38891331E+02 0.46918820E+02 0.10565837E+00 0.0000E+00 0.9000E+01
      -24  1    3    3    0    0 0.37932621E+02 0.50914024E+01 -.98765273E+02 0.13299098E+03 0.80419002E+02 0.0000E+00 0.9000E+01
#aMCatNLO 1  0  0  2  2 0.65533526D+01 0.00000000D+00  -5  7  0 0.00000000D+00 0.00000000D+00 0.00000000D+00 0.00000000D+00 0.00000000D+00
  <mgrwgt>
 0.4795214982D-03    6    2    0
 0.332018634617668D+03 0.000000000000000D+00 0.000000000000000D+00 0.332018634617668D+03
 0.332018634617668D+03 0.000000000000000D+00 0.000000000000000D+00 -.332018634617668D+03
 0.296453513556129D+03 -.282793592701147D+03 -.230423550856141D+02 -.302374526818929D+02
 0.238822729174713D+03 0.220798886244051D+03 0.284310931162425D+02 0.864628287072590D+02
 0.318828800558517D+02 0.240620857975805D+02 -.104801404153532D+02 -.181025060309389D+02
 0.968781464486414D+02 0.379326206595156D+02 0.509140238472485D+01 -.381228699944272D+02
 0.000000000000000D+00 0.000000000000000D+00 0.000000000000000D+00 0.000000000000000D+00
 0.341283029404155D+03 0.000000000000000D+00 0.000000000000000D+00 0.341283029404155D+03
 0.333195739834395D+03 0.000000000000000D+00 0.000000000000000D+00 -.333195739834395D+03
 0.299262694467748D+03 -.285702935726883D+03 -.234621678042916D+02 -.302374526818929D+02
 0.236637570245055D+03 0.218476845837059D+03 0.280960270592272D+02 0.864628287072590D+02
 0.316641708525578D+02 0.237517363948342D+02 -.105249232496063D+02 -.181025060309389D+02
 0.965051702472851D+02 0.369881803435648D+02 0.495512142604772D+01 -.381228699944272D+02
 0.104091634259038D+02 0.648617315142589D+01 0.935942568622989D+00 0.808728956975917D+01
0.222320927155D-04 0.000000000000D+00 0.000000000000D+00 0.135847578445D-05 0.000000000000D+00  7 2 -2 24 -13 13 -24 21 0 0.29754639D-01 0.87688679D-01 0.10012050D+06 0.10012050D+06 0.10012050D+06 0.11216791D+01  1  2  2  2  7  2       -2 0.560792300210D-03 0.100000000000D+01
-.123163807287D-05 0.000000000000D+00 -.853770898720D-07 0.135847578445D-05 0.000000000000D+00  7 2 -2 24 -13 13 -24 21 2 0.29754639D-01 0.87688679D-01 0.10012050D+06 0.10012050D+06 0.10012050D+06 0.11216791D+01  1  2  3  2  7  2       -2 -.390878767728D-04 0.100000000000D+01
0.144071071067D-05 0.000000000000D+00 0.000000000000D+00 0.135847578445D-05 0.000000000000D+00  7 2 -2 24 -13 13 -24 21 2 0.29754639D-01 0.87688679D-01 0.10012050D+06 0.10012050D+06 0.10012050D+06 0.11216791D+01  1  2 15  2  7  2       -2 0.457231097061D-04 0.100000000000D+01
-.488802842014D-05 0.000000000000D+00 0.000000000000D+00 0.135847578445D-05 0.000000000000D+00  7 2 -2 24 -13 13 -24 21 2 0.29754639D-01 0.87688679D-01 0.10012050D+06 0.10012050D+06 0.10012050D+06 0.11216791D+01  1  2  4  2  7  2       -2 -.155128894403D-03 0.100000000000D+01
0.192046585381D-05 0.000000000000D+00 0.000000000000D+00 0.135847578445D-05 0.212099351836D-06  7 2 -2 24 -13 13 -24 21 2 0.30584889D-01 0.87999561D-01 0.10214281D+06 0.10214281D+06 0.10214281D+06 0.11209672D+01  1  2 11  2  7  2       -2 0.585131411134D-04 0.100000000000D+01
0.293097976248D-07 0.000000000000D+00 0.000000000000D+00 0.135847578445D-05 0.142665322045D-09  7 2 21 24 -13 13 -24 2 2 0.30584889D-01 0.87999561D-01 0.10214281D+06 0.10214281D+06 0.10214281D+06 0.11209672D+01  1  2 11  4  7  2       -2 0.870971835654D-05 0.100000000000D+01
  </mgrwgt>
  </event>
  <event>
  8     66 0.26993063E-05 0.16119698E+03 0.75467711E-02 0.10635693E+00
        2 -1    0    0  501    0 0.00000000E+00 0.00000000E+00 0.18984298E+04 0.18984298E+04 0.32000000E+00 0.0000E+00 0.9000E+01
       -2 -1    0    0    0  501 0.00000000E+00 0.00000000E+00 -.38324270E+02 0.38325606E+02 0.32000000E+00 0.0000E+00 0.9000E+01
       25  2    1    2    0    0 -.57607201E+02 -.12804875E+03 0.83414349E+03 0.89730286E+03 0.29940272E+03 0.0000E+00 0.0000E+00
       23  2    1    2    0    0 0.57607201E+02 0.12804875E+03 0.10259620E+04 0.10394525E+04 0.90268895E+02 0.0000E+00 0.0000E+00
       24  1    3    3    0    0 -.97972754E+02 -.72592453E+02 0.74454972E+03 0.75874227E+03 0.80419002E+02 0.0000E+00 0.9000E+01
      -13  1    4    4    0    0 -.59444725E+01 0.15778363E+02 0.24657443E+02 0.29871293E+02 0.10565837E+00 0.0000E+00 0.9000E+01
       13  1    4    4    0    0 0.63551673E+02 0.11227039E+03 0.10013046E+04 0.10095812E+04 0.10565837E+00 0.0000E+00 0.9000E+01
      -24  1    3    3    0    0 0.40365553E+02 -.55456297E+02 0.89593772E+02 0.13856060E+03 0.80419002E+02 0.0000E+00 0.9000E+01
#aMCatNLO 1  0  0  1  2 0.14348667D+01 0.00000000D+00  -5  7  0 0.00000000D+00 0.00000000D+00 0.00000000D+00 0.00000000D+00 0.00000000D+00
  <mgrwgt>
 0.2069871099D-02   10    2    0
 0.269735529068121D+03 0.000000000000000D+00 0.000000000000000D+00 0.269735529068121D+03
 0.269735529068121D+03 0.000000000000000D+00 0.000000000000000D+00 -.269735529068121D+03
 0.156740854432713D+03 -.979727542074760D+02 -.725924532020128D+02 0.568520418722260D+02
 0.222214550957517D+02 -.594456690352913D+01 0.157782310285411D+02 -.144742052117538D+02
 0.171983130568561D+03 0.635517683230038D+02 0.112270519941266D+03 0.113730823857473D+03
 0.188525618039217D+03 0.403655527880013D+02 -.554562977677942D+02 -.156108660517946D+03
 0.000000000000000D+00 -.000000000000000D+00 0.000000000000000D+00 0.000000000000000D+00
 0.271655151504064D+03 0.000000000000000D+00 0.000000000000000D+00 0.271655151504064D+03
 0.270004747662778D+03 0.000000000000000D+00 0.000000000000000D+00 -.270004747662778D+03
 0.156651854330593D+03 -.976418134484822D+02 -.728457899421319D+02 0.568520418722260D+02
 0.221834695333832D+02 -.589767557820819D+01 0.157423354938454D+02 -.144742052117538D+02
 0.171936447500854D+03 0.639149452668716D+02 0.111992506246834D+03 0.113730823857473D+03
 0.188701194972685D+03 0.407639019656308D+02 -.557612359760604D+02 -.156108660517946D+03
 0.218693282932665D+01 -.113935820581211D+01 0.872184177512694D+00 0.165040384128607D+01
0.423049410089D-05 0.000000000000D+00 0.000000000000D+00 0.503761151413D-06 0.000000000000D+00  7 2 -2 24 -13 13 -24 21 0 0.29206622D+00 0.58961464D-02 0.39528429D+05 0.39528429D+05 0.39528429D+05 0.11563823D+01  1  2  2  1  7  1        2 0.584397918989D-03 0.100000000000D+01
-.208435251430D-06 0.000000000000D+00 -.162462112621D-07 0.503761151413D-06 0.000000000000D+00  7 2 -2 24 -13 13 -24 21 2 0.29206622D+00 0.58961464D-02 0.39528429D+05 0.39528429D+05 0.39528429D+05 0.11563823D+01  1  2  3  1  7  1        2 -.385027350096D-04 0.100000000000D+01
0.262616804185D-06 0.000000000000D+00 0.000000000000D+00 0.503761151413D-06 0.000000000000D+00  7 2 -2 24 -13 13 -24 21 2 0.29206622D+00 0.58961464D-02 0.39528429D+05 0.39528429D+05 0.39528429D+05 0.11563823D+01  1  2 15  1  7  1        2 0.485113009974D-04 0.100000000000D+01
-.252389626383D-03 0.000000000000D+00 0.000000000000D+00 0.503761151413D-06 0.000000000000D+00  7 2 -2 24 -13 13 -24 21 2 0.29206622D+00 0.58961464D-02 0.39528429D+05 0.39528429D+05 0.39528429D+05 0.11563823D+01  1  2  4  1  7  1        2 -.466221084826D-01 0.100000000000D+01
-.720703095053D-03 0.000000000000D+00 -.574636079900D-04 0.503761151413D-06 0.000000000000D+00  7 2 -2 24 -13 13 -24 21 2 0.29425929D+00 0.58961464D-02 0.39528429D+05 0.39528429D+05 0.39528429D+05 0.11563823D+01  1  2  5  1  7  1        2 -.130851741517D+00 0.100000000000D+01
0.721114396571D-03 0.000000000000D+00 0.574620001471D-04 0.503761151413D-06 0.000000000000D+00  7 2 -2 24 -13 13 -24 21 2 0.29206622D+00 0.58961464D-02 0.39528429D+05 0.39528429D+05 0.39528429D+05 0.11563823D+01  1  2  6  1  7  1        2 0.133206241901D+00 0.100000000000D+01
0.252395212995D-03 0.000000000000D+00 0.000000000000D+00 0.503761151413D-06 0.174415694282D-05  7 2 -2 24 -13 13 -24 21 2 0.29414477D+00 0.59020313D-02 0.39835176D+05 0.39835176D+05 0.39835176D+05 0.11560798D+01  1  2 11  1  7  1        2 0.457718512023D-01 0.100000000000D+01
0.495160991727D-10 0.000000000000D+00 0.000000000000D+00 0.503761151413D-06 0.000000000000D+00  7 21 -2 24 -13 13 -24 -2 2 0.29428992D+00 0.58961464D-02 0.39835176D+05 0.39835176D+05 0.39835176D+05 0.11560798D+01  1  2 12  3  7  1        2 0.219277187740D-08 0.100000000000D+01
-.998444236844D-06 0.000000000000D+00 -.797039146474D-07 0.503761151413D-06 0.000000000000D+00  7 21 -2 24 -13 13 -24 -2 2 0.29425929D+00 0.58961464D-02 0.39528429D+05 0.39528429D+05 0.39528429D+05 0.11563823D+01  1  2  5  3  7  1        2 -.442818353237D-04 0.100000000000D+01
0.349803563054D-06 0.000000000000D+00 0.000000000000D+00 0.503761151413D-06 0.229614231205D-08  7 21 -2 24 -13 13 -24 -2 2 0.29414477D+00 0.59020313D-02 0.39835176D+05 0.39835176D+05 0.39835176D+05 0.11560798D+01  1  2 11  3  7  1        2 0.155011526739D-04 0.100000000000D+01
  </mgrwgt>
  </event>
  <event>
  8     66 0.26993063E-05 0.84648221E+02 0.75467711E-02 0.10619198E+00
        2 -1    0    0  501    0 0.00000000E+00 0.00000000E+00 0.22746159E+04 0.22746159E+04 0.32000000E+00 0.0000E+00 0.9000E+01
       -2 -1    0    0    0  501 0.00000000E+00 0.00000000E+00 -.36336988E+02 0.36338397E+02 0.32000000E+00 0.0000E+00 0.9000E+01
       25  2    1    2    0    0 0.42680166E+02 0.10120095E+03 0.73718992E+03 0.80305436E+03 0.29897175E+03 0.0000E+00 0.0000E+00
       23  2    1    2    0    0 -.42680166E+02 -.10120095E+03 0.15010889E+04 0.15078999E+04 0.91819805E+02 0.0000E+00 0.0000E+00
       24  1    3    3    0    0 0.25827190E+02 0.11359800E+03 0.69611209E+03 0.71035963E+03 0.80419002E+02 0.0000E+00 0.9000E+01
      -11  1    4    4    0    0 -.34142650E+02 -.61498856E+02 0.13374079E+04 0.13392564E+04 0.51099893E-03 0.0000E+00 0.9000E+01
       11  1    4    4    0    0 -.85375154E+01 -.39702093E+02 0.16368102E+03 0.16864348E+03 0.51099893E-03 0.0000E+00 0.9000E+01
      -24  1    3    3    0    0 0.16852976E+02 -.12397054E+02 0.41077832E+02 0.92694736E+02 0.80419002E+02 0.0000E+00 0.9000E+01
#aMCatNLO 1  0  0  1  2 0.62839723D+02 0.00000000D+00  -5  7  0 0.00000000D+00 0.00000000D+00 0.00000000D+00 0.00000000D+00 0.00000000D+00
  <mgrwgt>
 0.4213491395D-02    8    2    0
 0.287496682734263D+03 0.000000000000000D+00 0.000000000000000D+00 0.287496682734263D+03
 0.287496682734263D+03 0.000000000000000D+00 0.000000000000000D+00 -.287496682734263D+03
 0.145246283482868D+03 0.258271902245052D+02 0.113598003436684D+03 0.325225578871251D+02
 0.176468954541493D+03 -.341426504724114D+02 -.614988561607468D+02 0.161843943435045D+03
 0.406328015134048D+02 -.853751535744620D+01 -.397020928034628D+02 0.137084549616510D+01
 0.212645325930761D+03 0.168529756053524D+02 -.123970544724747D+02 -.195737346818335D+03
 0.000000000000000D+00 -.000000000000000D+00 0.000000000000000D+00 0.000000000000000D+00
 0.570179932984709D+03 0.000000000000000D+00 0.000000000000000D+00 0.570179932984709D+03
 0.292722041070177D+03 0.000000000000000D+00 0.000000000000000D+00 -.292722041070177D+03
 0.147395574004952D+03 0.416513373141367D+02 0.111649848232325D+03 0.325225578871251D+02
 0.174637519114734D+03 -.151571214337666D+02 -.638362179783945D+02 0.161843943435045D+03
 0.404788601124514D+02 -.415153012870840D+01 -.402420637669030D+02 0.137084549616510D+01
 0.215905025398794D+03 0.400261602378153D+02 -.152499703350230D+02 -.195737346818335D+03
 0.284484995423956D+03 -.623688459894770D+02 0.767840384799529D+01 0.277457891914532D+03
0.705829301355D-05 0.000000000000D+00 0.000000000000D+00 0.311481248267D-06 0.000000000000D+00  7 2 -2 24 -11 11 -24 21 0 0.34994101D+00 0.55904159D-02 0.28157631D+05 0.28157631D+05 0.28157631D+05 0.11698984D+01  1  2  2  1  7  1        2 0.668552044186D-03 0.100000000000D+01
-.253911404141D-06 0.000000000000D+00 -.271057036633D-07 0.311481248267D-06 0.000000000000D+00  7 2 -2 24 -11 11 -24 21 2 0.34994101D+00 0.55904159D-02 0.28157631D+05 0.28157631D+05 0.28157631D+05 0.11698984D+01  1  2  3  1  7  1        2 -.329165287728D-04 0.100000000000D+01
0.434912307679D-06 0.000000000000D+00 0.000000000000D+00 0.311481248267D-06 0.000000000000D+00  7 2 -2 24 -11 11 -24 21 2 0.34994101D+00 0.55904159D-02 0.28157631D+05 0.28157631D+05 0.28157631D+05 0.11698984D+01  1  2 15  1  7  1        2 0.563810969334D-04 0.100000000000D+01
0.291329833770D-04 0.000000000000D+00 0.000000000000D+00 0.311481248267D-06 0.000000000000D+00  7 2 -2 24 -11 11 -24 21 2 0.69413037D+00 0.55904159D-02 0.40760326D+05 0.40760326D+05 0.40760326D+05 0.11551830D+01  1  2 12  1  7  1        2 0.997748456288D-04 0.100000000000D+01
-.325191489414D-04 0.000000000000D+00 -.164462018546D-05 0.311481248267D-06 0.000000000000D+00  7 2 -2 24 -11 11 -24 21 2 0.69534518D+00 0.55904159D-02 0.28157631D+05 0.28157631D+05 0.28157631D+05 0.11698984D+01  1  2  5  1  7  1        2 -.115284147018D-03 0.100000000000D+01
0.272836578953D-04 0.000000000000D+00 0.132082215595D-05 0.311481248267D-06 0.000000000000D+00  7 2 -2 24 -11 11 -24 21 2 0.34994101D+00 0.55904159D-02 0.28157631D+05 0.28157631D+05 0.28157631D+05 0.11698984D+01  1  2  6  1  7  1        2 0.353699477649D-02 0.100000000000D+01
0.215982927296D-05 0.000000000000D+00 0.000000000000D+00 0.311481248267D-06 0.000000000000D+00  7 21 -2 24 -11 11 -24 -2 2 0.69413037D+00 0.55904159D-02 0.40760326D+05 0.40760326D+05 0.40760326D+05 0.11551830D+01  1  2 12  3  7  1        2 0.889868681067D-07 0.100000000000D+01
-.231864613406D-05 0.000000000000D+00 -.122226911310D-06 0.311481248267D-06 0.000000000000D+00  7 21 -2 24 -11 11 -24 -2 2 0.69534518D+00 0.55904159D-02 0.28157631D+05 0.28157631D+05 0.28157631D+05 0.11698984D+01  1  2  5  3  7  1        2 -.996791316526D-07 0.100000000000D+01
  </mgrwgt>
  </event>
  <event>
  8     66 0.26993063E-05 0.11476371E+03 0.75467711E-02 0.97573340E-01
        2 -1    0    0  501    0 0.00000000E+00 0.00000000E+00 0.39518095E+03 0.39518108E+03 0.32000000E+00 0.0000E+00 0.9000E+01
       -2 -1    0    0    0  501 0.00000000E+00 0.00000000E+00 -.28284209E+03 0.28284227E+03 0.32000000E+00 0.0000E+00 0.9000E+01
       25  2    1    2    0    0 -.16259938E+03 -.15087901E+03 0.19780227E+03 0.42259601E+03 0.30043072E+03 0.0000E+00 0.0000E+00
       23  2    1    2    0    0 0.16259938E+03 0.15087901E+03 -.85463406E+02 0.25542734E+03 0.93467101E+02 0.0000E+00 0.0000E+00
       24  1    3    3    0    0 -.19105195E+03 -.18574806E+03 0.12482022E+03 0.30504179E+03 0.80419002E+02 0.0000E+00 0.9000E+01
      -13  1    4    4    0    0 0.13160529E+03 0.14834418E+03 -.98840075E+02 0.22157463E+03 0.10565837E+00 0.0000E+00 0.9000E+01
       13  1    4    4    0    0 0.30994093E+02 0.25348261E+01 0.13376669E+02 0.33852704E+02 0.10565837E+00 0.0000E+00 0.9000E+01
      -24  1    3    3    0    0 0.28452575E+02 0.34869049E+02 0.72982051E+02 0.11755422E+03 0.80419002E+02 0.0000E+00 0.9000E+01
#aMCatNLO 1  0  0  1  2 0.15211668D+03 0.00000000D+00  -5  7  0 0.00000000D+00 0.00000000D+00 0.00000000D+00 0.00000000D+00 0.00000000D+00
  <mgrwgt>
 0.7844068932D-03    9    2    0
 0.334326054694399D+03 0.000000000000000D+00 0.000000000000000D+00 0.334326054694399D+03
 0.334326054694399D+03 0.000000000000000D+00 0.000000000000000D+00 -.334326054694399D+03
 0.288346198401675D+03 -.191051954092988D+03 -.185748055350842D+03 0.753201496875783D+02
 0.241286216369233D+03 0.131605415752701D+03 0.148344366454604D+03 -.137451815904779D+03
 0.320794994257044D+02 0.309939640973135D+02 0.253464040477666D+01 0.787680588542610D+01
 0.106940195192185D+03 0.284525742429732D+02 0.348690484914610D+02 0.542548603317745D+02
 0.000000000000000D+00 -.000000000000000D+00 -.000000000000000D+00 0.000000000000000D+00
 0.468548848161392D+03 0.000000000000000D+00 0.000000000000000D+00 0.468548848161392D+03
 0.388896890658697D+03 0.000000000000000D+00 0.000000000000000D+00 -.388896890658697D+03
 0.235251647724682D+03 -.146041370090406D+03 -.147901707481575D+03 0.753201496875783D+02
 0.292086112504463D+03 0.177456253740351D+03 0.186897226921344D+03 -.137451815904779D+03
 0.386670722270407D+02 0.370756249174042D+02 0.764829658410649D+01 0.787680588542610D+01
 0.119732089914566D+03 0.479382386805469D+02 0.512532223721182D+02 0.542548603317745D+02
 0.171708816449337D+03 -.116428747247896D+03 -.978970383959945D+02 0.796519575026943D+02
0.146911386847D-04 0.000000000000D+00 0.000000000000D+00 0.420126827771D-06 0.000000000000D+00  7 2 -2 24 -13 13 -24 21 0 0.60797094D-01 0.43514191D-01 0.89968746D+05 0.89968746D+05 0.89968746D+05 0.11255089D+01  1  2  2  1  7  1        2 0.722643734836D-03 0.100000000000D+01
-.804490485576D-06 0.000000000000D+00 -.564178408148D-07 0.420126827771D-06 0.000000000000D+00  7 2 -2 24 -13 13 -24 21 2 0.60797094D-01 0.43514191D-01 0.89968746D+05 0.89968746D+05 0.89968746D+05 0.11255089D+01  1  2  3  1  7  1        2 -.501288323070D-04 0.100000000000D+01
0.939030261331D-06 0.000000000000D+00 0.000000000000D+00 0.420126827771D-06 0.000000000000D+00  7 2 -2 24 -13 13 -24 21 2 0.60797094D-01 0.43514191D-01 0.89968746D+05 0.89968746D+05 0.89968746D+05 0.11255089D+01  1  2 15  1  7  1        2 0.585121780126D-04 0.100000000000D+01
0.610158402031D-05 0.000000000000D+00 0.000000000000D+00 0.420126827771D-06 0.000000000000D+00  7 2 -2 24 -13 13 -24 21 2 0.88583716D-01 0.43514191D-01 0.15104827D+06 0.15104827D+06 0.15104827D+06 0.11073133D+01  1  2 12  1  7  1        2 0.240511693766D-03 0.100000000000D+01
-.980976252141D-05 0.000000000000D+00 0.000000000000D+00 0.420126827771D-06 0.000000000000D+00  7 2 -2 24 -13 13 -24 21 2 0.60797094D-01 0.43514191D-01 0.89968746D+05 0.89968746D+05 0.89968746D+05 0.11255089D+01  1  2  4  1  7  1        2 -.611258864119D-03 0.100000000000D+01
-.129974879624D-04 0.000000000000D+00 -.595897686901D-05 0.420126827771D-06 0.000000000000D+00  7 2 -2 24 -13 13 -24 21 2 0.95910754D-01 0.43514191D-01 0.89968746D+05 0.89968746D+05 0.89968746D+05 0.11255089D+01  1  2  5  1  7  1        2 -.486742131130D-03 0.100000000000D+01
0.147268355377D-04 0.000000000000D+00 0.538921000277D-05 0.420126827771D-06 0.000000000000D+00  7 2 -2 24 -13 13 -24 21 2 0.60797094D-01 0.43514191D-01 0.89968746D+05 0.89968746D+05 0.89968746D+05 0.11255089D+01  1  2  6  1  7  1        2 0.917647980080D-03 0.100000000000D+01
0.277826602233D-06 0.000000000000D+00 0.000000000000D+00 0.420126827771D-06 0.000000000000D+00  7 21 -2 24 -13 13 -24 -2 2 0.88583716D-01 0.43514191D-01 0.15104827D+06 0.15104827D+06 0.15104827D+06 0.11073133D+01  1  2 12  3  7  1        2 0.175805291533D-04 0.100000000000D+01
-.441132824162D-06 0.000000000000D+00 -.312727737100D-06 0.420126827771D-06 0.000000000000D+00  7 21 -2 24 -13 13 -24 -2 2 0.95910754D-01 0.43514191D-01 0.89968746D+05 0.89968746D+05 0.89968746D+05 0.11255089D+01  1  2  5  3  7  1        2 -.243593951140D-04 0.100000000000D+01
  </mgrwgt>
  </event>
  <event>
  8     66 0.26993063E-05 0.16898297E+03 0.75467711E-02 0.97535144E-01
        2 -1    0    0  501    0 0.00000000E+00 0.00000000E+00 0.28335494E+03 0.28335512E+03 0.32000000E+00 0.0000E+00 0.9000E+01
       -2 -1    0    0    0  501 0.00000000E+00 0.00000000E+00 -.43945202E+03 0.43945213E+03 0.32000000E+00 0.0000E+00 0.9000E+01
       25  2    1    2    0    0 0.26018728E+03 -.10867921E+03 -.11973425E+03 0.42562012E+03 0.29547860E+03 0.0000E+00 0.0000E+00
       23  2    1    2    0    0 -.26018728E+03 0.10867921E+03 -.36362833E+02 0.29718713E+03 0.86540992E+02 0.0000E+00 0.0000E+00
       24  1    3    3    0    0 0.14667393E+03 0.53780546E+02 0.90830360E+01 0.17594120E+03 0.80419002E+02 0.0000E+00 0.9000E+01
      -13  1    4    4    0    0 -.16101980E+03 0.56747864E+02 0.19932410E+02 0.17188661E+03 0.10565837E+00 0.0000E+00 0.9000E+01
       13  1    4    4    0    0 -.99167484E+02 0.51931344E+02 -.56295243E+02 0.12530052E+03 0.10565837E+00 0.0000E+00 0.9000E+01
      -24  1    3    3    0    0 0.11351336E+03 -.16245975E+03 -.12881728E+03 0.24967892E+03 0.80419002E+02 0.0000E+00 0.9000E+01
#aMCatNLO 1  0  0  2  1 0.10055917D+03 0.00000000D+00  -5  7  0 0.00000000D+00 0.00000000D+00 0.00000000D+00 0.00000000D+00 0.00000000D+00
  <mgrwgt>
 0.2313408882D-02    9    2    0
 0.352875338857756D+03 0.000000000000000D+00 0.000000000000000D+00 0.352875338857756D+03
 0.352875338857756D+03 0.000000000000000D+00 0.000000000000000D+00 -.352875338857756D+03
 0.182202317028357D+03 0.146673926339645D+03 0.537805457603598D+02 0.482170157305657D+02
 0.180449488502420D+03 -.161019891337630D+03 0.567478710638643D+02 0.584319401023260D+02
 0.115877369110335D+03 -.991673920980744D+02 0.519313364395299D+02 -.299420993252642D+02
 0.227221503074400D+03 0.113513357096059D+03 -.162459753263754D+03 -.767068565076275D+02
 0.000000000000000D+00 -.000000000000000D+00 -.000000000000000D+00 -.000000000000000D+00
 0.386346055375294D+03 0.000000000000000D+00 0.000000000000000D+00 0.386346055375294D+03
 0.440970272932825D+03 0.000000000000000D+00 0.000000000000000D+00 -.440970272932825D+03
 0.198405075590545D+03 0.155922019232397D+03 0.791252259285858D+02 0.482170157305657D+02
 0.182003374409982D+03 -.152212921713647D+03 0.808836394822428D+02 0.584319401023260D+02
 0.119155361929178D+03 -.934565084640639D+02 0.675821869295141D+02 -.299420993252642D+02
 0.213314974984589D+03 0.124217621781256D+03 -.133124389959286D+03 -.767068565076275D+02
 0.114437541393825D+03 -.344702108359425D+02 -.944666623810565D+02 -.546242175575307D+02
0.549436790190D-04 0.000000000000D+00 0.000000000000D+00 0.199343337567D-08 0.000000000000D+00  7 2 -2 24 -13 13 -24 21 0 0.43593090D-01 0.67608025D-01 0.11298274D+06 0.11298274D+06 0.11298274D+06 0.11173976D+01  1  2  2  2  7  2       -2 0.160422071050D-02 0.100000000000D+01
-.304365356349D-05 0.000000000000D+00 -.210998194436D-06 0.199343337567D-08 0.000000000000D+00  7 2 -2 24 -13 13 -24 21 2 0.43593090D-01 0.67608025D-01 0.11298274D+06 0.11298274D+06 0.11298274D+06 0.11173976D+01  1  2  3  2  7  2       -2 -.110957598700D-03 0.100000000000D+01
0.356654234416D-05 0.000000000000D+00 0.000000000000D+00 0.199343337567D-08 0.000000000000D+00  7 2 -2 24 -13 13 -24 21 2 0.43593090D-01 0.67608025D-01 0.11298274D+06 0.11298274D+06 0.11298274D+06 0.11173976D+01  1  2 15  2  7  2       -2 0.130019716737D-03 0.100000000000D+01
0.477184043694D-04 0.000000000000D+00 0.000000000000D+00 0.199343337567D-08 0.000000000000D+00  7 2 -2 24 -13 13 -24 21 2 0.43593090D-01 0.87080294D-01 0.15200752D+06 0.15200752D+06 0.15200752D+06 0.11070966D+01  1  2 12  2  7  2       -2 0.972385093681D-03 0.100000000000D+01
-.501948420501D-04 0.000000000000D+00 0.000000000000D+00 0.199343337567D-08 0.000000000000D+00  7 2 -2 24 -13 13 -24 21 2 0.43593090D-01 0.67608025D-01 0.11298274D+06 0.11298274D+06 0.11298274D+06 0.11173976D+01  1  2  4  2  7  2       -2 -.182987288954D-02 0.100000000000D+01
-.905165348317D-04 0.000000000000D+00 -.269644883883D-04 0.199343337567D-08 0.000000000000D+00  7 2 -2 24 -13 13 -24 21 2 0.43593090D-01 0.90592915D-01 0.11298274D+06 0.11298274D+06 0.11298274D+06 0.11173976D+01  1  2  5  2  7  2       -2 -.172460209456D-02 0.100000000000D+01
0.954077505438D-04 0.000000000000D+00 0.258496374050D-04 0.199343337567D-08 0.000000000000D+00  7 2 -2 24 -13 13 -24 21 2 0.43593090D-01 0.67608025D-01 0.11298274D+06 0.11298274D+06 0.11298274D+06 0.11173976D+01  1  2  6  2  7  2       -2 0.347812741393D-02 0.100000000000D+01
0.162969906654D-05 0.000000000000D+00 0.000000000000D+00 0.199343337567D-08 0.000000000000D+00  7 2 21 24 -13 13 -24 2 2 0.43593090D-01 0.87080294D-01 0.15200752D+06 0.15200752D+06 0.15200752D+06 0.11070966D+01  1  2 12  4  7  2       -2 0.320254310306D-03 0.100000000000D+01
-.285505869747D-05 0.000000000000D+00 -.102378612559D-05 0.199343337567D-08 0.000000000000D+00  7 2 21 24 -13 13 -24 2 2 0.43593090D-01 0.90592915D-01 0.11298274D+06 0.11298274D+06 0.11298274D+06 0.11173976D+01  1  2  5  4  7  2       -2 -.526165780724D-03 0.100000000000D+01
  </mgrwgt>
  </event>
  <event>
  8     66 0.26993063E-05 0.92836189E+02 0.75467711E-02 0.10919456E+00
        2 -1    0    0  501    0 0.00000000E+00 0.00000000E+00 0.35270394E+03 0.35270408E+03 0.32000000E+00 0.0000E+00 0.9000E+01
       -2 -1    0    0    0  501 0.00000000E+00 0.00000000E+00 -.15160924E+03 0.15160958E+03 0.32000000E+00 0.0000E+00 0.9000E+01
       25  2    1    2    0    0 -.35141986E+02 0.14862610E+02 0.23306147E+03 0.38156793E+03 0.29970082E+03 0.0000E+00 0.0000E+00
       23  2    1    2    0    0 0.35141986E+02 -.14862610E+02 -.31966776E+02 0.12274573E+03 0.11219975E+03 0.0000E+00 0.0000E+00
       24  1    3    3    0    0 -.73168485E+02 0.45925871E+02 -.12369090E+02 0.11867191E+03 0.80419002E+02 0.0000E+00 0.9000E+01
      -11  1    4    4    0    0 0.46533144E+02 0.64539498E+01 0.30334139E+02 0.55920899E+02 0.51099893E-03 0.0000E+00 0.9000E+01
       11  1    4    4    0    0 -.11391158E+02 -.21316560E+02 -.62300915E+02 0.66824832E+02 0.51099893E-03 0.0000E+00 0.9000E+01
      -24  1    3    3    0    0 0.38026499E+02 -.31063260E+02 0.24543056E+03 0.26289602E+03 0.80419002E+02 0.0000E+00 0.9000E+01
#aMCatNLO 1  0  0  2  1 0.42280713D+02 0.00000000D+00  -5  7  0 0.00000000D+00 0.00000000D+00 0.00000000D+00 0.00000000D+00 0.00000000D+00
  <mgrwgt>
 0.4468750155D-03    9    2    0
 0.231242943627032D+03 0.000000000000000D+00 0.000000000000000D+00 0.231242943627032D+03
 0.231242943627032D+03 0.000000000000000D+00 0.000000000000000D+00 -.231242943627032D+03
 0.134782980111064D+03 -.731684861989890D+02 0.459258712074744D+02 -.650878080321642D+02
 0.477887833558804D+02 0.465331422644374D+02 0.645394878373403D+01 0.876247857228972D+01
 0.999577736871549D+02 -.113911538890051D+02 -.213165600537615D+02 -.969917646042377D+02
 0.179956350099964D+03 0.380264978235567D+02 -.310632599374470D+02 0.153317094064112D+03
 0.000000000000000D+00 -.000000000000000D+00 0.000000000000000D+00 -.000000000000000D+00
 0.244881011123861D+03 0.000000000000000D+00 0.000000000000000D+00 0.244881011123861D+03
 0.267470290828337D+03 0.000000000000000D+00 0.000000000000000D+00 -.267470290828337D+03
 0.128135169241212D+03 -.612929487683869D+02 0.442510713875659D+02 -.650878080321642D+02
 0.521180757978037D+02 0.510457544533501D+02 0.581753783176881D+01 0.876247857228972D+01
 0.996155736760206D+02 -.237678663212016D+01 -.225878507845301D+02 -.969917646042377D+02
 0.184545710096021D+03 0.544903968356753D+02 -.333851536000810D+02 0.153317094064112D+03
 0.479367731411403D+02 -.418664158885184D+02 0.590439516527637D+01 -.225892797044755D+02
0.220650862092D-05 0.000000000000D+00 0.000000000000D+00 0.264734941692D-08 0.000000000000D+00  7 2 -2 24 -11 11 -24 21 0 0.54262182D-01 0.23324536D-01 0.20078518D+05 0.20078518D+05 0.20078518D+05 0.11838704D+01  1  2  2  2  7  2       -2 0.366657891479D-03 0.100000000000D+01
-.868325100730D-07 0.000000000000D+00 -.847357409141D-08 0.264734941692D-08 0.000000000000D+00  7 2 -2 24 -11 11 -24 21 2 0.54262182D-01 0.23324536D-01 0.20078518D+05 0.20078518D+05 0.20078518D+05 0.11838704D+01  1  2  3  2  7  2       -2 -.202230221954D-04 0.100000000000D+01
0.133219154422D-06 0.000000000000D+00 0.000000000000D+00 0.264734941692D-08 0.000000000000D+00  7 2 -2 24 -11 11 -24 21 2 0.54262182D-01 0.23324536D-01 0.20078518D+05 0.20078518D+05 0.20078518D+05 0.11838704D+01  1  2 15  2  7  2       -2 0.310263277482D-04 0.100000000000D+01
0.288638792909D-05 0.000000000000D+00 0.000000000000D+00 0.264734941692D-08 0.000000000000D+00  7 2 -2 24 -11 11 -24 21 2 0.54262182D-01 0.27586617D-01 0.27136048D+05 0.27136048D+05 0.27136048D+05 0.11714006D+01  1  2 12  2  7  2       -2 0.498265029840D-03 0.100000000000D+01
-.304594801554D-05 0.000000000000D+00 0.000000000000D+00 0.264734941692D-08 0.000000000000D+00  7 2 -2 24 -11 11 -24 21 2 0.54262182D-01 0.23324536D-01 0.20078518D+05 0.20078518D+05 0.20078518D+05 0.11838704D+01  1  2  4  2  7  2       -2 -.709391842669D-03 0.100000000000D+01
-.519879901229D-05 0.000000000000D+00 -.156669443709D-05 0.264734941692D-08 0.000000000000D+00  7 2 -2 24 -11 11 -24 21 2 0.54262182D-01 0.28429288D-01 0.20078518D+05 0.20078518D+05 0.20078518D+05 0.11838704D+01  1  2  5  2  7  2       -2 -.868647144787D-03 0.100000000000D+01
0.543232093819D-05 0.000000000000D+00 0.153650368390D-05 0.264734941692D-08 0.000000000000D+00  7 2 -2 24 -11 11 -24 21 2 0.54262182D-01 0.23324536D-01 0.20078518D+05 0.20078518D+05 0.20078518D+05 0.11838704D+01  1  2  6  2  7  2       -2 0.126517069256D-02 0.100000000000D+01
0.720394834363D-07 0.000000000000D+00 0.000000000000D+00 0.264734941692D-08 0.000000000000D+00  7 2 21 24 -11 11 -24 2 2 0.54262182D-01 0.27586617D-01 0.27136048D+05 0.27136048D+05 0.27136048D+05 0.11714006D+01  1  2 12  4  7  2       -2 0.155247909011D-03 0.100000000000D+01
-.129860122214D-06 0.000000000000D+00 -.444743765317D-07 0.264734941692D-08 0.000000000000D+00  7 2 21 24 -11 11 -24 2 2 0.54262182D-01 0.28429288D-01 0.20078518D+05 0.20078518D+05 0.20078518D+05 0.11838704D+01  1  2  5  4  7  2       -2 -.271230825454D-03 0.100000000000D+01
  </mgrwgt>
  </event>
  <event>
  8     66 0.26993063E-05 0.42184381E+03 0.75467711E-02 0.84470496E-01
        2 -1    0    0  501    0 0.00000000E+00 0.00000000E+00 0.15887163E+04 0.15887164E+04 0.32000000E+00 0.0000E+00 0.9000E+01
       -2 -1    0    0    0  501 0.00000000E+00 0.00000000E+00 -.18847700E+04 0.18847700E+04 0.32000000E+00 0.0000E+00 0.9000E+01
       25  2    1    2    0    0 0.31292932E+03 0.80469844E+03 0.13399120E+04 0.16214116E+04 0.29689563E+03 0.0000E+00 0.0000E+00
       23  2    1    2    0    0 -.31292932E+03 -.80469844E+03 -.16359656E+04 0.18520748E+04 0.91287111E+02 0.0000E+00 0.0000E+00
       24  1    3    3    0    0 0.10906223E+03 0.32068669E+03 0.32711220E+03 0.47770716E+03 0.80419002E+02 0.0000E+00 0.9000E+01
      -13  1    4    4    0    0 -.27356416E+03 -.65783597E+03 -.14090902E+04 0.15789619E+04 0.10565837E+00 0.0000E+00 0.9000E+01
       13  1    4    4    0    0 -.39365162E+02 -.14686247E+03 -.22687543E+03 0.27311293E+03 0.10565837E+00 0.0000E+00 0.9000E+01
      -24  1    3    3    0    0 0.20386710E+03 0.48401176E+03 0.10127998E+04 0.11437044E+04 0.80419002E+02 0.0000E+00 0.9000E+01
#aMCatNLO 1  0  0  1  2 0.81622888D+03 0.00000000D+00  -5  7  0 0.00000000D+00 0.00000000D+00 0.00000000D+00 0.00000000D+00 0.00000000D+00
  <mgrwgt>
 0.6911969310D-03    9    2    0
 0.173042336173537D+04 0.000000000000000D+00 0.000000000000000D+00 0.173042336173537D+04
 0.173042336173537D+04 0.000000000000000D+00 0.000000000000000D+00 -.173042336173537D+04
 0.507434227020749D+03 0.109062228117750D+03 0.320686685884230D+03 0.369171719789525D+03
 0.146419140856590D+04 -.273564475552766D+03 -.657836658499103D+03 -.127916765491021D+04
 0.254701006491242D+03 -.393648486873641D+02 -.146861785716328D+03 -.204339490289283D+03
 0.123452008139285D+04 0.203867096122380D+03 0.484011758331201D+03 0.111433542540997D+04
 0.000000000000000D+00 0.000000000000000D+00 -.000000000000000D+00 0.000000000000000D+00
 0.225301280630311D+04 0.000000000000000D+00 0.000000000000000D+00 0.225301280630311D+04
 0.212846096179716D+04 0.000000000000000D+00 0.000000000000000D+00 -.212846096179716D+04
 0.497511951188983D+03 -.780494930124213D+01 0.323577270053921D+03 0.369171719789525D+03
 0.156502542611226D+04 -.625838088742275D+03 -.649123548863242D+03 -.127916765491021D+04
 0.270113627368682D+03 -.100396579796242D+03 -.145352231368493D+03 -.204339490289283D+03
 0.122314561892246D+04 -.819397059364050D+02 0.491080882749763D+03 0.111433542540997D+04
 0.825677144507873D+03 0.815979323776165D+03 -.201823725719484D+02 0.124551844505953D+03
0.163291432046D-01 0.000000000000D+00 0.000000000000D+00 0.376062784199D-05 0.000000000000D+00  7 2 -2 24 -13 13 -24 21 0 0.24441790D+00 0.28996462D+00 0.76034319D+06 0.76034319D+06 0.76034319D+06 0.10558778D+01  1  2  2  1  7  1        2 0.716393788878D-03 0.100000000000D+01
-.389080855187D-03 0.000000000000D+00 -.627082094679D-04 0.376062784199D-05 0.000000000000D+00  7 2 -2 24 -13 13 -24 21 2 0.24441790D+00 0.28996462D+00 0.76034319D+06 0.76034319D+06 0.76034319D+06 0.10558778D+01  1  2  3  1  7  1        2 -.190307362026D-04 0.100000000000D+01
0.100261584338D-02 0.000000000000D+00 0.000000000000D+00 0.376062784199D-05 0.000000000000D+00  7 2 -2 24 -13 13 -24 21 2 0.24441790D+00 0.28996462D+00 0.76034319D+06 0.76034319D+06 0.76034319D+06 0.10558778D+01  1  2 15  1  7  1        2 0.490399806969D-04 0.100000000000D+01
0.454453249614D-04 0.000000000000D+00 0.000000000000D+00 0.376062784199D-05 0.000000000000D+00  7 2 -2 24 -13 13 -24 21 2 0.33917189D+00 0.28996462D+00 0.18665063D+07 0.18665063D+07 0.18665063D+07 0.10302852D+01  1  2 12  1  7  1        2 0.877886210146D-06 0.100000000000D+01
-.691716535163D-02 0.000000000000D+00 0.000000000000D+00 0.376062784199D-05 0.000000000000D+00  7 2 -2 24 -13 13 -24 21 2 0.24441790D+00 0.28996462D+00 0.76034319D+06 0.76034319D+06 0.76034319D+06 0.10558778D+01  1  2  4  1  7  1        2 -.338332630151D-03 0.100000000000D+01
-.622424671798D-02 0.000000000000D+00 -.614719872187D-02 0.376062784199D-05 0.000000000000D+00  7 2 -2 24 -13 13 -24 21 2 0.35240631D+00 0.28996462D+00 0.76034319D+06 0.76034319D+06 0.76034319D+06 0.10558778D+01  1  2  5  1  7  1        2 -.123537528804D-03 0.100000000000D+01
0.830133511064D-02 0.000000000000D+00 0.575745583411D-02 0.376062784199D-05 0.000000000000D+00  7 2 -2 24 -13 13 -24 21 2 0.24441790D+00 0.28996462D+00 0.76034319D+06 0.76034319D+06 0.76034319D+06 0.10558778D+01  1  2  6  1  7  1        2 0.406035189124D-03 0.100000000000D+01
0.187191176777D-05 0.000000000000D+00 0.000000000000D+00 0.376062784199D-05 0.000000000000D+00  7 21 -2 24 -13 13 -24 -2 2 0.33917189D+00 0.28996462D+00 0.18665063D+07 0.18665063D+07 0.18665063D+07 0.10302852D+01  1  2 12  3  7  1        2 0.526665751175D-08 0.100000000000D+01
-.923063268997D-04 0.000000000000D+00 -.274218432756D-03 0.376062784199D-05 0.000000000000D+00  7 21 -2 24 -13 13 -24 -2 2 0.35240631D+00 0.28996462D+00 0.76034319D+06 0.76034319D+06 0.76034319D+06 0.10558778D+01  1  2  5  3  7  1        2 -.254285428908D-06 0.100000000000D+01
  </mgrwgt>
  </event>
  <event>
  8     66 0.26993063E-05 0.39315956E+03 0.75467711E-02 0.88920770E-01
        2 -1    0    0  501    0 0.00000000E+00 0.00000000E+00 0.14484758E+04 0.14484758E+04 0.32000000E+00 0.0000E+00 0.9000E+01
       -2 -1    0    0    0  501 0.00000000E+00 0.00000000E+00 -.48159701E+03 0.48159711E+03 0.32000000E+00 0.0000E+00 0.9000E+01
       25  2    1    2    0    0 -.36717717E+03 0.11456272E+02 0.13259855E+04 0.14082765E+04 0.30009131E+03 0.0000E+00 0.0000E+00
       23  2    1    2    0    0 0.36717717E+03 -.11456272E+02 -.35910675E+03 0.52179642E+03 0.91452312E+02 0.0000E+00 0.0000E+00
       24  1    3    3    0    0 -.91788772E+02 0.40885724E+02 0.78250056E+03 0.79301398E+03 0.80419002E+02 0.0000E+00 0.9000E+01
      -11  1    4    4    0    0 0.77532492E+02 -.17629805E+02 -.13023531E+03 0.15258877E+03 0.51099893E-03 0.0000E+00 0.9000E+01
       11  1    4    4    0    0 0.28964467E+03 0.61735328E+01 -.22887145E+03 0.36920765E+03 0.51099893E-03 0.0000E+00 0.9000E+01
      -24  1    3    3    0    0 -.27538839E+03 -.29429452E+02 0.54348495E+03 0.61526252E+03 0.80419002E+02 0.0000E+00 0.9000E+01
#aMCatNLO 1  0  0  1  1 0.66516395D+03 0.00000000D+00  -5  7  0 0.00000000D+00 0.00000000D+00 0.00000000D+00 0.00000000D+00 0.00000000D+00
  <mgrwgt>
 0.1128193871D-02    6    2    0
 0.835213584248724D+03 0.000000000000000D+00 0.000000000000000D+00 0.835213584248724D+03
 0.835213584248724D+03 0.000000000000000D+00 0.000000000000000D+00 -.835213584248724D+03
 0.463349519823651D+03 -.917887718010071D+02 0.408857242278199D+02 0.445116547088588D+03
 0.251689635248891D+03 0.775324921778800D+02 -.176298046929496D+02 -.238800282945593D+03
 0.559071740630533D+03 0.289644673876069D+03 0.617353276018392D+01 -.478151713957127D+03
 0.396316272794372D+03 -.275388394252942D+03 -.294294522950542D+02 0.271835449814132D+03
 0.000000000000000D+00 -.000000000000000D+00 -.000000000000000D+00 0.000000000000000D+00
 0.125743737329749D+04 0.000000000000000D+00 0.000000000000000D+00 0.125743737329749D+04
 0.120758282268968D+04 0.000000000000000D+00 0.000000000000000D+00 -.120758282268968D+04
 0.481690488264564D+03 0.454488354098061D+02 0.159261336795873D+03 0.445116547088588D+03
 0.289703013426715D+03 0.156152900869434D+03 0.501849818539851D+02 -.238800282945593D+03
 0.690707110964785D+03 0.471136100342333D+03 0.162720700992224D+03 -.478151713957127D+03
 0.335889933241448D+03 -.169058263421186D+03 0.622866204889561D+02 0.271835449814132D+03
 0.667029650089664D+03 -.503679573200386D+03 -.434453640131038D+03 0.498545506078069D+02
0.307491978417D-03 0.000000000000D+00 0.000000000000D+00 0.181468884174D-04 0.000000000000D+00  7 2 -2 24 -11 11 -24 21 0 0.22284244D+00 0.74091858D-01 0.15457444D+06 0.15457444D+06 0.15457444D+06 0.11065238D+01  1  2  2  1  7  1        2 0.923849751481D-03 0.100000000000D+01
-.529117295923D-05 0.000000000000D+00 -.118085016162D-05 0.181468884174D-04 0.000000000000D+00  7 2 -2 24 -11 11 -24 21 2 0.22284244D+00 0.74091858D-01 0.15457444D+06 0.15457444D+06 0.15457444D+06 0.11065238D+01  1  2  3  1  7  1        2 -.194644012440D-04 0.100000000000D+01
0.184182879764D-04 0.000000000000D+00 0.000000000000D+00 0.181468884174D-04 0.000000000000D+00  7 2 -2 24 -11 11 -24 21 2 0.22284244D+00 0.74091858D-01 0.15457444D+06 0.15457444D+06 0.15457444D+06 0.11065238D+01  1  2 15  1  7  1        2 0.677545319652D-04 0.100000000000D+01
0.234903557583D-04 0.000000000000D+00 -.905505779114D-04 0.181468884174D-04 0.000000000000D+00  7 2 -2 24 -11 11 -24 21 2 0.40113755D+00 0.74091858D-01 0.15457444D+06 0.15457444D+06 0.15457444D+06 0.11065238D+01  1  2  5  1  7  1        2 0.198950538862D-04 0.100000000000D+01
0.368556694267D-04 0.000000000000D+00 0.768804232326D-04 0.181468884174D-04 0.000000000000D+00  7 2 -2 24 -11 11 -24 21 2 0.22284244D+00 0.74091858D-01 0.15457444D+06 0.15457444D+06 0.15457444D+06 0.11065238D+01  1  2  6  1  7  1        2 0.135579302239D-03 0.100000000000D+01
0.632870992328D-05 0.000000000000D+00 -.583783514508D-05 0.181468884174D-04 0.000000000000D+00  7 21 -2 24 -11 11 -24 -2 2 0.40113755D+00 0.74091858D-01 0.15457444D+06 0.15457444D+06 0.15457444D+06 0.11065238D+01  1  2  5  3  7  1        2 0.579633160932D-06 0.100000000000D+01
  </mgrwgt>
  </event>
  <event>
  8     66 0.26993063E-05 0.21561069E+03 0.75467711E-02 0.88132317E-01
        2 -1    0    0  501    0 0.00000000E+00 0.00000000E+00 0.13862781E+04 0.13862782E+04 0.32000000E+00 0.0000E+00 0.9000E+01
       -2 -1    0    0    0  501 0.00000000E+00 0.00000000E+00 -.83595097E+02 0.83595710E+02 0.32000000E+00 0.0000E+00 0.9000E+01
       25  2    1    2    0    0 -.16151228E+03 0.62012323E+01 0.12200351E+04 0.12666918E+04 0.29982995E+03 0.0000E+00 0.0000E+00
       23  2    1    2    0    0 0.16151228E+03 -.62012323E+01 0.82647963E+02 0.20318203E+03 0.91255568E+02 0.0000E+00 0.0000E+00
       24  1    3    3    0    0 -.14653603E+03 -.11862034E+02 0.11350724E+04 0.11473753E+04 0.80419002E+02 0.0000E+00 0.9000E+01
      -11  1    4    4    0    0 0.16353045E+03 0.97279799E+01 0.88372154E+02 0.18613564E+03 0.51099893E-03 0.0000E+00 0.9000E+01
       11  1    4    4    0    0 -.20181665E+01 -.15929212E+02 -.57241917E+01 0.17046383E+02 0.51099893E-03 0.0000E+00 0.9000E+01
      -24  1    3    3    0    0 -.14976254E+02 0.18063267E+02 0.84962709E+02 0.11931659E+03 0.80419002E+02 0.0000E+00 0.9000E+01
#aMCatNLO 1  0  0  1  1 0.88978854D+03 0.00000000D+00  -5  7  0 0.00000000D+00 0.00000000D+00 0.00000000D+00 0.00000000D+00 0.00000000D+00
  <mgrwgt>
 0.1324778229D-02    5    2    0
 0.340421109740788D+03 0.000000000000000D+00 0.000000000000000D+00 0.340421109740788D+03
 0.340421109740788D+03 0.000000000000000D+00 0.000000000000000D+00 -.340421109740788D+03
 0.305294551820236D+03 -.146536025708180D+03 -.118620344676471D+02 0.255194107934897D+03
 0.232763201101432D+03 0.163530445884755D+03 0.972797989782695D+01 -.165353764586193D+03
 0.477538542359312D+02 -.201816648513092D+01 -.159292122160105D+02 -.449735232842854D+02
 0.950306123239772D+02 -.149762536914442D+02 0.180632667858307D+02 -.448668200644186D+02
 0.000000000000000D+00 -.000000000000000D+00 0.000000000000000D+00 0.000000000000000D+00
 0.110058835718154D+04 0.000000000000000D+00 0.000000000000000D+00 0.110058835718154D+04
 0.926465424179701D+03 0.000000000000000D+00 0.000000000000000D+00 -.926465424179701D+03
 0.342790117631255D+03 0.132916027576817D+03 -.168068871834703D+03 0.255194107934897D+03
 0.563380732656910D+03 0.506825184190267D+03 -.182165351087170D+03 -.165353764586193D+03
 0.864385414205176D+02 0.558451687688352D+02 -.482733961047355D+02 -.449735232842854D+02
 0.127778830431164D+03 0.810984711155911D+02 -.356401457910377D+02 -.448668200644186D+02
 0.906665559221398D+03 -.776684851651511D+03 0.434147764817646D+03 0.174122933001842D+03
0.163669271731D-04 0.000000000000D+00 0.000000000000D+00 0.280396958031D-05 0.000000000000D+00  7 2 -2 24 -11 11 -24 21 0 0.21327361D+00 0.12860834D-01 0.46487968D+05 0.46487968D+05 0.46487968D+05 0.11500879D+01  1  2  2  1  7  1        2 0.129048446724D-02 0.100000000000D+01
-.678675856960D-06 0.000000000000D+00 -.628533098555D-07 0.280396958031D-05 0.000000000000D+00  7 2 -2 24 -11 11 -24 21 2 0.21327361D+00 0.12860834D-01 0.46487968D+05 0.46487968D+05 0.46487968D+05 0.11500879D+01  1  2  3  1  7  1        2 -.707799293817D-04 0.100000000000D+01
0.998557862152D-06 0.000000000000D+00 0.000000000000D+00 0.280396958031D-05 0.000000000000D+00  7 2 -2 24 -11 11 -24 21 2 0.21327361D+00 0.12860834D-01 0.46487968D+05 0.46487968D+05 0.46487968D+05 0.11500879D+01  1  2 15  1  7  1        2 0.104140812203D-03 0.100000000000D+01
0.879119792850D-05 0.000000000000D+00 -.508876540279D-05 0.280396958031D-05 0.000000000000D+00  7 2 -2 24 -11 11 -24 21 2 0.81422875D+00 0.12860834D-01 0.46487968D+05 0.46487968D+05 0.46487968D+05 0.11500879D+01  1  2  5  1  7  1        2 0.932078389486D-06 0.100000000000D+01
0.149408805078D-05 0.000000000000D+00 -.808406733537D-06 0.280396958031D-05 0.000000000000D+00  7 21 -2 24 -11 11 -24 -2 2 0.81422875D+00 0.12860834D-01 0.46487968D+05 0.46487968D+05 0.46487968D+05 0.11500879D+01  1  2  5  3  7  1        2 0.800264227879D-09 0.100000000000D+01
  </mgrwgt>
  </event>
  <event>
  8     66 0.26993063E-05 0.20328608E+03 0.75467711E-02 0.93432472E-01
        2 -1    0    0  501    0 0.00000000E+00 0.00000000E+00 0.13415613E+03 0.13415652E+03 0.32000000E+00 0.0000E+00 0.9000E+01
       -2 -1    0    0    0  501 0.00000000E+00 0.00000000E+00 -.56986699E+03 0.56986708E+03 0.32000000E+00 0.0000E+00 0.9000E+01
       25  2    1    2    0    0 0.12534780E+03 -.20001685E+01 -.11368307E+03 0.34543429E+03 0.30113939E+03 0.0000E+00 0.0000E+00
       23  2    1    2    0    0 -.12534780E+03 0.20001685E+01 -.32202779E+03 0.35858931E+03 0.95751365E+02 0.0000E+00 0.0000E+00
       24  1    3    3    0    0 -.26602129E+02 0.52717091E+02 0.40922552E+02 0.10783615E+03 0.80419002E+02 0.0000E+00 0.9000E+01
      -11  1    4    4    0    0 -.23166973E+02 0.66416402E+01 -.19026040E+03 0.19178071E+03 0.51099893E-03 0.0000E+00 0.9000E+01
       11  1    4    4    0    0 -.10218083E+03 -.46414717E+01 -.13176739E+03 0.16680860E+03 0.51099893E-03 0.0000E+00 0.9000E+01
      -24  1    3    3    0    0 0.15194993E+03 -.54717260E+02 -.15460562E+03 0.23759813E+03 0.80419002E+02 0.0000E+00 0.9000E+01
#aMCatNLO 1  0  0  2  1 0.48930442D+03 0.00000000D+00  -5  7  0 0.00000000D+00 0.00000000D+00 0.00000000D+00 0.00000000D+00 0.00000000D+00
  <mgrwgt>
 0.7045832872D-03    3    2    0
 0.276498315514461D+03 0.000000000000000D+00 0.000000000000000D+00 0.276498315514461D+03
 0.276498315514461D+03 0.000000000000000D+00 0.000000000000000D+00 -.276498315514461D+03
 0.169530141783826D+03 -.266021291850756D+02 0.527170912800693D+02 0.137063810061821D+03
 0.942494378825125D+02 -.231669728139767D+02 0.664164018084610D+01 -.911160607550294D+02
 0.108544440153296D+03 -.102180826788792D+03 -.464147167632155D+01 -.363239709507261D+02
 0.180672611209289D+03 0.151949928787844D+03 -.547172597845938D+02 -.962377835606581D+01
 0.000000000000000D+00 -.000000000000000D+00 0.000000000000000D+00 0.000000000000000D+00
 0.667733095739879D+03 0.000000000000000D+00 0.000000000000000D+00 0.667733095739879D+03
 0.569690117857625D+03 0.000000000000000D+00 0.000000000000000D+00 -.569690117857625D+03
 0.175895952105022D+03 0.137821508994612D+00 -.754033353979142D+02 0.137063810061821D+03
 0.115906521708088D+03 -.689848558346096D+01 -.713063541601164D+02 -.911160607550294D+02
 0.130483217764338D+03 -.836773381979928D+02 -.932981367692042D+02 -.363239709507261D+02
 0.316107219548953D+03 0.190406398681975D+03 -.238975614922764D+03 -.962377835606581D+01
 0.499030302471104D+03 -.999683964095164D+02 0.478983441249999D+03 0.980429778822547D+02
0.178454900365D-04 0.000000000000D+00 0.000000000000D+00 0.181507877640D-07 0.000000000000D+00  7 2 -2 24 -11 11 -24 21 0 0.20639442D-01 0.87671881D-01 0.41325229D+05 0.41325229D+05 0.41325229D+05 0.11546464D+01  1  2  2  2  7  2       -2 0.691045236742D-03 0.100000000000D+01
-.877369262636D-06 0.000000000000D+00 -.685313805657D-07 0.181507877640D-07 0.000000000000D+00  7 2 -2 24 -11 11 -24 21 2 0.20639442D-01 0.87671881D-01 0.41325229D+05 0.41325229D+05 0.41325229D+05 0.11546464D+01  1  2  3  2  7  2       -2 -.452958498369D-04 0.100000000000D+01
0.113959790825D-05 0.000000000000D+00 0.000000000000D+00 0.181507877640D-07 0.000000000000D+00  7 2 -2 24 -11 11 -24 21 2 0.20639442D-01 0.87671881D-01 0.41325229D+05 0.41325229D+05 0.41325229D+05 0.11546464D+01  1  2 15  2  7  2       -2 0.588339003027D-04 0.100000000000D+01
  </mgrwgt>
  </event>
  <event>
  8     66 0.26993063E-05 0.16173557E+03 0.75467711E-02 0.10119057E+00
        2 -1    0    0  501    0 0.00000000E+00 0.00000000E+00 0.16679577E+03 0.16679608E+03 0.32000000E+00 0.0000E+00 0.9000E+01
       -2 -1    0    0    0  501 0.00000000E+00 0.00000000E+00 -.54977221E+03 0.54977230E+03 0.32000000E+00 0.0000E+00 0.9000E+01
       25  2    1    2    0    0 -.45181149E+02 -.19020348E+03 -.12075713E+03 0.37803915E+03 0.30018764E+03 0.0000E+00 0.0000E+00
       23  2    1    2    0    0 0.45181149E+02 0.19020348E+03 -.26221931E+03 0.33852923E+03 0.87317642E+02 0.0000E+00 0.0000E+00
       24  1    3    3    0    0 -.10168926E+03 0.10532684E+02 -.74153702E+02 0.14972518E+03 0.80419002E+02 0.0000E+00 0.9000E+01
      -11  1    4    4    0    0 0.35180895E+02 0.18527519E+03 -.19834162E+03 0.27368593E+03 0.51099893E-03 0.0000E+00 0.9000E+01
       11  1    4    4    0    0 0.10000254E+02 0.49282874E+01 -.63877697E+02 0.64843298E+02 0.51099893E-03 0.0000E+00 0.9000E+01
      -24  1    3    3    0    0 0.56508109E+02 -.20073616E+03 -.46603426E+02 0.22831397E+03 0.80419002E+02 0.0000E+00 0.9000E+01
#aMCatNLO 1  0  0  1  2 0.27438816D+02 0.00000000D+00  -5  7  0 0.00000000D+00 0.00000000D+00 0.00000000D+00 0.00000000D+00 0.00000000D+00
  <mgrwgt>
 0.1039910252D-02    9    2    0
 0.302819784061599D+03 0.000000000000000D+00 0.000000000000000D+00 0.302819784061599D+03
 0.302819784061599D+03 0.000000000000000D+00 0.000000000000000D+00 -.302819784061599D+03
 0.130257687901489D+03 -.101689257759571D+03 0.105326843914284D+02 0.694310585324044D+01
 0.198392778443618D+03 0.351808948356510D+02 0.185275189997380D+03 -.616044085157560D+02
 0.363268929966446D+02 0.100002541760731D+02 0.492828743940260D+01 -.345738348193865D+02
 0.240662208781447D+03 0.565081087478465D+02 -.200736161828211D+03 0.892351374819021D+02
 0.000000000000000D+00 -.000000000000000D+00 0.000000000000000D+00 0.000000000000000D+00
 0.319415374188228D+03 0.000000000000000D+00 0.000000000000000D+00 0.319415374188228D+03
 0.314688438721944D+03 0.000000000000000D+00 0.000000000000000D+00 -.314688438721944D+03
 0.126328555562733D+03 -.969080371974796D+02 0.723281437882904D+01 0.694310585324044D+01
 0.195140106709303D+03 0.425139751167634D+02 0.180214094947407D+03 -.616044085157560D+02
 0.366102088998987D+02 0.113593620012583D+02 0.399026772289402D+01 -.345738348193865D+02
 0.248181943264840D+03 0.656172163908196D+02 -.207023023260816D+03 0.892351374819021D+02
 0.278429984733977D+02 -.225825163113617D+02 0.155858462116852D+02 0.472693546628379D+01
0.178251084391D-04 0.000000000000D+00 0.000000000000D+00 0.134184353215D-06 0.000000000000D+00  7 2 -2 24 -11 11 -24 21 0 0.25660918D-01 0.84580371D-01 0.76539091D+05 0.76539091D+05 0.76539091D+05 0.11313772D+01  1  2  2  1  7  1        2 0.579489884353D-03 0.100000000000D+01
-.980453021640D-06 0.000000000000D+00 -.684531098649D-07 0.134184353215D-06 0.000000000000D+00  7 2 -2 24 -11 11 -24 21 2 0.25660918D-01 0.84580371D-01 0.76539091D+05 0.76539091D+05 0.76539091D+05 0.11313772D+01  1  2  3  1  7  1        2 -.407995417271D-04 0.100000000000D+01
0.114230371419D-05 0.000000000000D+00 0.000000000000D+00 0.134184353215D-06 0.000000000000D+00  7 2 -2 24 -11 11 -24 21 2 0.25660918D-01 0.84580371D-01 0.76539091D+05 0.76539091D+05 0.76539091D+05 0.11313772D+01  1  2 15  1  7  1        2 0.475346263648D-04 0.100000000000D+01
0.419179706450D-04 0.000000000000D+00 0.000000000000D+00 0.134184353215D-06 0.000000000000D+00  7 2 -2 24 -11 11 -24 21 2 0.27546534D-01 0.84580371D-01 0.84786264D+05 0.84786264D+05 0.84786264D+05 0.11276517D+01  1  2 12  1  7  1        2 0.159626316172D-02 0.100000000000D+01
-.361441910817D-04 0.000000000000D+00 0.000000000000D+00 0.134184353215D-06 0.000000000000D+00  7 2 -2 24 -11 11 -24 21 2 0.25660918D-01 0.84580371D-01 0.76539091D+05 0.76539091D+05 0.76539091D+05 0.11313772D+01  1  2  4  1  7  1        2 -.150406638532D-02 0.100000000000D+01
-.149059829536D-03 0.000000000000D+00 -.290261385726D-04 0.134184353215D-06 0.000000000000D+00  7 2 -2 24 -11 11 -24 21 2 0.28072504D-01 0.84580371D-01 0.76539091D+05 0.76539091D+05 0.76539091D+05 0.11313772D+01  1  2  5  1  7  1        2 -.559791354792D-02 0.100000000000D+01
0.151173461438D-03 0.000000000000D+00 0.289094409741D-04 0.134184353215D-06 0.000000000000D+00  7 2 -2 24 -11 11 -24 21 2 0.25660918D-01 0.84580371D-01 0.76539091D+05 0.76539091D+05 0.76539091D+05 0.11313772D+01  1  2  6  1  7  1        2 0.629077356268D-02 0.100000000000D+01
0.512485614874D-06 0.000000000000D+00 0.000000000000D+00 0.134184353215D-06 0.000000000000D+00  7 21 -2 24 -11 11 -24 -2 2 0.27546534D-01 0.84580371D-01 0.84786264D+05 0.84786264D+05 0.84786264D+05 0.11276517D+01  1  2 12  3  7  1        2 0.108847485341D-03 0.100000000000D+01
-.212690096803D-05 0.000000000000D+00 -.429410337513D-06 0.134184353215D-06 0.000000000000D+00  7 21 -2 24 -11 11 -24 -2 2 0.28072504D-01 0.84580371D-01 0.76539091D+05 0.76539091D+05 0.76539091D+05 0.11313772D+01  1  2  5  3  7  1        2 -.440218993079D-03 0.100000000000D+01
  </mgrwgt>
  </event>
  <event>
  8     66 0.26993063E-05 0.33536228E+03 0.75467711E-02 0.93614753E-01
        2 -1    0    0  501    0 0.00000000E+00 0.00000000E+00 0.20586414E+04 0.20586414E+04 0.32000000E+00 0.0000E+00 0.9000E+01
       -2 -1    0    0    0  501 0.00000000E+00 0.00000000E+00 -.82723681E+02 0.82724300E+02 0.32000000E+00 0.0000E+00 0.9000E+01
       25  2    1    2    0    0 0.10157554E+03 0.29330061E+03 0.15360470E+04 0.15955171E+04 0.29981935E+03 0.0000E+00 0.0000E+00
       23  2    1    2    0    0 -.10157554E+03 -.29330061E+03 0.43987067E+03 0.54584856E+03 0.90119954E+02 0.0000E+00 0.0000E+00
       24  1    3    3    0    0 0.84160021E+02 0.17243662E+03 0.40749931E+03 0.45753710E+03 0.80419002E+02 0.0000E+00 0.9000E+01
      -13  1    4    4    0    0 -.10215985E+03 -.21375466E+03 0.27632120E+03 0.36397954E+03 0.10565837E+00 0.0000E+00 0.9000E+01
       13  1    4    4    0    0 0.58430992E+00 -.79545946E+02 0.16354947E+03 0.18186902E+03 0.10565837E+00 0.0000E+00 0.9000E+01
      -24  1    3    3    0    0 0.17415515E+02 0.12086399E+03 0.11285477E+04 0.11379800E+04 0.80419002E+02 0.0000E+00 0.9000E+01
#aMCatNLO 1  0  0  1  2 0.33529841D+03 0.00000000D+00  -5  7  0 0.00000000D+00 0.00000000D+00 0.00000000D+00 0.00000000D+00 0.00000000D+00
  <mgrwgt>
 0.1130828018D-02    6    2    0
 0.412673091125498D+03 0.000000000000000D+00 0.000000000000000D+00 0.412673091125498D+03
 0.412673091125498D+03 0.000000000000000D+00 0.000000000000000D+00 -.412673091125498D+03
 0.211510231847749D+03 0.841600207624282D+02 0.172436621709067D+03 -.381059656845182D+02
 0.282821430857454D+03 -.102159987293403D+03 -.213754848238804D+03 -.154467354489146D+03
 0.803148473822151D+02 0.584451042838591D+00 -.795457617218272D+02 -.110727105580031D+02
 0.250699672163578D+03 0.174155154881357D+02 0.120863988251564D+03 0.203646030731667D+03
 0.000000000000000D+00 0.000000000000000D+00 -.000000000000000D+00 0.000000000000000D+00
 0.623678111520102D+03 0.000000000000000D+00 0.000000000000000D+00 0.623678111520102D+03
 0.603105127637880D+03 0.000000000000000D+00 0.000000000000000D+00 -.603105127637880D+03
 0.223283579243829D+03 0.558172188302501D+01 0.204707402322524D+03 -.381059656845182D+02
 0.310670953203942D+03 -.209419154162278D+03 -.169705319397261D+03 -.154467354489146D+03
 0.741933256839421D+02 -.273391051182354D+02 -.680780286750157D+02 -.110727105580031D+02
 0.282706417913685D+03 -.789845300068931D+02 0.160453859293082D+03 0.203646030731667D+03
 0.335928963112583D+03 0.310161067404382D+03 -.127377913543329D+03 0.205729838822216D+02
0.224819051447D-04 0.000000000000D+00 0.000000000000D+00 0.201084770124D-05 0.000000000000D+00  7 2 -2 24 -13 13 -24 21 0 0.31671411D+00 0.12726770D-01 0.11246786D+06 0.11246786D+06 0.11246786D+06 0.11175585D+01  1  2  2  1  7  1        2 0.775171107953D-03 0.100000000000D+01
-.118364477673D-05 0.000000000000D+00 -.863364353773D-07 0.201084770124D-05 0.000000000000D+00  7 2 -2 24 -13 13 -24 21 2 0.31671411D+00 0.12726770D-01 0.11246786D+06 0.11246786D+06 0.11246786D+06 0.11175585D+01  1  2  3  1  7  1        2 -.509713764282D-04 0.100000000000D+01
0.140530283223D-05 0.000000000000D+00 0.000000000000D+00 0.201084770124D-05 0.000000000000D+00  7 2 -2 24 -13 13 -24 21 2 0.31671411D+00 0.12726770D-01 0.11246786D+06 0.11246786D+06 0.11246786D+06 0.11175585D+01  1  2 15  1  7  1        2 0.605166525174D-04 0.100000000000D+01
-.605420204863D-05 0.000000000000D+00 -.603373228688D-05 0.201084770124D-05 0.000000000000D+00  7 2 -2 24 -13 13 -24 21 2 0.54520628D+00 0.12726770D-01 0.11246786D+06 0.11246786D+06 0.11246786D+06 0.11175585D+01  1  2  5  1  7  1        2 -.325886793934D-04 0.100000000000D+01
0.879437957033D-05 0.000000000000D+00 0.524136140677D-05 0.201084770124D-05 0.000000000000D+00  7 2 -2 24 -13 13 -24 21 2 0.31671411D+00 0.12726770D-01 0.11246786D+06 0.11246786D+06 0.11246786D+06 0.11175585D+01  1  2  6  1  7  1        2 0.378712972292D-03 0.100000000000D+01
-.675720340265D-07 0.000000000000D+00 -.363784695812D-06 0.201084770124D-05 0.000000000000D+00  7 21 -2 24 -13 13 -24 -2 2 0.54520628D+00 0.12726770D-01 0.11246786D+06 0.11246786D+06 0.11246786D+06 0.11175585D+01  1  2  5  3  7  1        2 -.126584954471D-07 0.100000000000D+01
  </mgrwgt>
  </event>
  <event>
  8     66 0.26993063E-05 0.22258759E+03 0.75467711E-02 0.10023744E+00
        2 -1    0    0  501    0 0.00000000E+00 0.00000000E+00 0.20394686E+03 0.20394711E+03 0.32000000E+00 0.0000E+00 0.9000E+01
       -2 -1    0    0    0  501 0.00000000E+00 0.00000000E+00 -.24798017E+03 0.24798038E+03 0.32000000E+00 0.0000E+00 0.9000E+01
       25  2    1    2    0    0 0.86932069E+02 0.43515502E+02 -.26708634E+02 0.31687349E+03 0.30040751E+03 0.0000E+00 0.0000E+00
       23  2    1    2    0    0 -.86932069E+02 -.43515502E+02 -.17324682E+02 0.13505400E+03 0.92133894E+02 0.0000E+00 0.0000E+00
       24  1    3    3    0    0 0.79913141E+02 -.98432018E+02 0.63085115E+01 0.15027304E+03 0.80419002E+02 0.0000E+00 0.9000E+01
      -11  1    4    4    0    0 -.34756257E+01 -.48034363E+02 0.53444273E+01 0.48455577E+02 0.51099893E-03 0.0000E+00 0.9000E+01
       11  1    4    4    0    0 -.83456444E+02 0.45188618E+01 -.22669110E+02 0.86598422E+02 0.51099893E-03 0.0000E+00 0.9000E+01
      -24  1    3    3    0    0 0.70189287E+01 0.14194752E+03 -.33017146E+02 0.16660045E+03 0.80419002E+02 0.0000E+00 0.9000E+01
#aMCatNLO 1  0  0  2  2 0.15599126D+03 0.00000000D+00  -5  7  0 0.00000000D+00 0.00000000D+00 0.00000000D+00 0.00000000D+00 0.00000000D+00
  <mgrwgt>
 0.6576578148D-03    3    2    0
 0.224888596528291D+03 0.000000000000000D+00 0.000000000000000D+00 0.224888596528291D+03
 0.224888596528291D+03 0.000000000000000D+00 0.000000000000000D+00 -.224888596528291D+03
 0.151609067659142D+03 0.799131408263046D+02 -.984320178613706D+02 0.210504447724486D+02
 0.492104547442724D+02 -.347562573735564D+01 -.480343634741228D+02 0.101137929337993D+02
 0.847931196132180D+02 -.834564438277452D+02 0.451886178735615D+01 -.142994757076851D+02
 0.164164551039948D+03 0.701892873879620D+01 0.141947519548137D+03 -.168647619985627D+02
 0.000000000000000D+00 0.000000000000000D+00 -.000000000000000D+00 0.000000000000000D+00
 0.339651213062649D+03 0.000000000000000D+00 0.000000000000000D+00 0.339651213062649D+03
 0.297892403576845D+03 0.000000000000000D+00 0.000000000000000D+00 -.297892403576845D+03
 0.118314425462903D+03 0.624820147014655D+02 -.564266243184394D+02 0.210504447724486D+02
 0.371610700003279D+02 -.905332823373322D+01 -.345932589380329D+02 0.101137929337993D+02
 0.102289328683467D+03 -.955378588771893D+02 0.336325627653000D+02 -.142994757076851D+02
 0.218294830831541D+03 -.176795428389097D+02 0.201465706216069D+03 -.168647619985627D+02
 0.161483961661256D+03 0.597887152483667D+02 -.144078385724897D+03 0.417588094858040D+02
0.500976503950D-05 0.000000000000D+00 0.000000000000D+00 0.115407593940D-06 0.000000000000D+00  7 2 -2 24 -11 11 -24 21 0 0.31376475D-01 0.38150831D-01 0.49545236D+05 0.49545236D+05 0.49545236D+05 0.11476446D+01  1  2  2  2  7  2       -2 0.649207015856D-03 0.100000000000D+01
-.278284487743D-06 0.000000000000D+00 -.192388168531D-07 0.115407593940D-06 0.000000000000D+00  7 2 -2 24 -11 11 -24 21 2 0.31376475D-01 0.38150831D-01 0.49545236D+05 0.49545236D+05 0.49545236D+05 0.11476446D+01  1  2  3  2  7  2       -2 -.474973814922D-04 0.100000000000D+01
0.327797243632D-06 0.000000000000D+00 0.000000000000D+00 0.115407593940D-06 0.000000000000D+00  7 2 -2 24 -11 11 -24 21 2 0.31376475D-01 0.38150831D-01 0.49545236D+05 0.49545236D+05 0.49545236D+05 0.11476446D+01  1  2 15  2  7  2       -2 0.559481804364D-04 0.100000000000D+01
  </mgrwgt>
  </event>
  <event>
  8     66 0.26993063E-05 0.26263804E+03 0.75467711E-02 0.89819178E-01
        2 -1    0    0  501    0 0.00000000E+00 0.00000000E+00 0.12475630E+04 0.12475631E+04 0.32000000E+00 0.0000E+00 0.9000E+01
       -2 -1    0    0    0  501 0.00000000E+00 0.00000000E+00 -.47250565E+03 0.47250576E+03 0.32000000E+00 0.0000E+00 0.9000E+01
       25  2    1    2    0    0 0.50938731E+03 -.52212655E+03 0.51420792E+03 0.94009944E+03 0.29544137E+03 0.0000E+00 0.0000E+00
       23  2    1    2    0    0 -.50938731E+03 0.52212655E+03 0.26084947E+03 0.77996940E+03 0.90654581E+02 0.0000E+00 0.0000E+00
       24  1    3    3    0    0 0.42405363E+03 -.27044610E+03 0.33076264E+03 0.60731682E+03 0.80419002E+02 0.0000E+00 0.9000E+01
      -11  1    4    4    0    0 -.68140936E+02 0.11475598E+03 0.31540371E+02 0.13713831E+03 0.51099893E-03 0.0000E+00 0.9000E+01
       11  1    4    4    0    0 -.44124637E+03 0.40737058E+03 0.22930910E+03 0.64283109E+03 0.51099893E-03 0.0000E+00 0.9000E+01
      -24  1    3    3    0    0 0.85333675E+02 -.25168045E+03 0.18344528E+03 0.33278262E+03 0.80419002E+02 0.0000E+00 0.9000E+01
#aMCatNLO 1  0  0  1  2 0.41921122D+02 0.00000000D+00  -5  7  0 0.00000000D+00 0.00000000D+00 0.00000000D+00 0.00000000D+00 0.00000000D+00
  <mgrwgt>
 0.2536529431D-02    9    2    0
 0.767776472929878D+03 0.000000000000000D+00 0.000000000000000D+00 0.767776472929878D+03
 0.767776472929878D+03 0.000000000000000D+00 0.000000000000000D+00 -.767776472929878D+03
 0.513343879101393D+03 0.424053631780844D+03 -.270446103741113D+03 0.639698726059540D+02
 0.137697458075856D+03 -.681409362173662D+02 0.114755976492932D+03 -.338890635917620D+02
 0.604333452769148D+03 -.441246370951380D+03 0.407370576928543D+03 -.676001132471222D+02
 0.280178155913359D+03 0.853336753879025D+02 -.251680449680362D+03 0.375193042329302D+02
 0.000000000000000D+00 0.000000000000000D+00 0.000000000000000D+00 0.000000000000000D+00
 0.790572824223864D+03 0.000000000000000D+00 0.000000000000000D+00 0.790572824223864D+03
 0.787580059541052D+03 0.000000000000000D+00 0.000000000000000D+00 -.787580059541052D+03
 0.502555153290291D+03 0.410229400357939D+03 -.271503518623611D+03 0.639698726059540D+02
 0.139364679111356D+03 -.719111643413005D+02 0.114467591901652D+03 -.338890635917620D+02
 0.615721515761557D+03 -.457848731713479D+03 0.406100663049254D+03 -.676001132471222D+02
 0.278483721629428D+03 0.777314719837669D+02 -.252261941900319D+03 0.375193042329302D+02
 0.420278139722845D+02 0.417990237130736D+02 0.319720557302423D+01 0.299276468281251D+01
0.239012061451D-03 0.000000000000D+00 0.000000000000D+00 0.918041621743D-07 0.000000000000D+00  7 2 -2 24 -11 11 -24 21 0 0.19193279D+00 0.72693189D-01 0.57836019D+06 0.57836019D+06 0.57836019D+06 0.10640702D+01  1  2  2  1  7  1        2 0.912707295267D-03 0.100000000000D+01
-.132769838695D-04 0.000000000000D+00 -.917869249294D-06 0.918041621743D-07 0.000000000000D+00  7 2 -2 24 -11 11 -24 21 2 0.19193279D+00 0.72693189D-01 0.57836019D+06 0.57836019D+06 0.57836019D+06 0.10640702D+01  1  2  3  1  7  1        2 -.574052650728D-04 0.100000000000D+01
0.151542622699D-04 0.000000000000D+00 0.000000000000D+00 0.918041621743D-07 0.000000000000D+00  7 2 -2 24 -11 11 -24 21 2 0.19193279D+00 0.72693189D-01 0.57836019D+06 0.57836019D+06 0.57836019D+06 0.10640702D+01  1  2 15  1  7  1        2 0.655219928816D-04 0.100000000000D+01
0.478843079136D-03 0.000000000000D+00 0.000000000000D+00 0.918041621743D-07 0.000000000000D+00  7 2 -2 24 -11 11 -24 21 2 0.20003876D+00 0.72693189D-01 0.61114393D+06 0.61114393D+06 0.61114393D+06 0.10624034D+01  1  2 12  1  7  1        2 0.191966830366D-02 0.100000000000D+01
-.385209251636D-03 0.000000000000D+00 0.000000000000D+00 0.918041621743D-07 0.000000000000D+00  7 2 -2 24 -11 11 -24 21 2 0.19193279D+00 0.72693189D-01 0.57836019D+06 0.57836019D+06 0.57836019D+06 0.10640702D+01  1  2  4  1  7  1        2 -.166551676315D-02 0.100000000000D+01
-.401423893720D-02 0.000000000000D+00 -.615556323544D-03 0.918041621743D-07 0.000000000000D+00  7 2 -2 24 -11 11 -24 21 2 0.20095854D+00 0.72693189D-01 0.57836019D+06 0.57836019D+06 0.57836019D+06 0.10640702D+01  1  2  5  1  7  1        2 -.160568184367D-01 0.100000000000D+01
0.403890993325D-02 0.000000000000D+00 0.614906956064D-03 0.918041621743D-07 0.000000000000D+00  7 2 -2 24 -11 11 -24 21 2 0.19193279D+00 0.72693189D-01 0.57836019D+06 0.57836019D+06 0.57836019D+06 0.10640702D+01  1  2  6  1  7  1        2 0.174629040453D-01 0.100000000000D+01
0.618597740822D-05 0.000000000000D+00 0.000000000000D+00 0.918041621743D-07 0.000000000000D+00  7 21 -2 24 -11 11 -24 -2 2 0.20003876D+00 0.72693189D-01 0.61114393D+06 0.61114393D+06 0.61114393D+06 0.10624034D+01  1  2 12  3  7  1        2 0.108315031967D-04 0.100000000000D+01
-.318640746718D-04 0.000000000000D+00 -.495666582661D-05 0.918041621743D-07 0.000000000000D+00  7 21 -2 24 -11 11 -24 -2 2 0.20095854D+00 0.72693189D-01 0.57836019D+06 0.57836019D+06 0.57836019D+06 0.10640702D+01  1  2  5  3  7  1        2 -.553632441536D-04 0.100000000000D+01
  </mgrwgt>
  </event>
  <event>
  8     66 0.26993063E-05 0.20484132E+03 0.75467711E-02 0.10586259E+00
        2 -1    0    0  501    0 0.00000000E+00 0.00000000E+00 0.65837068E+02 0.65837846E+02 0.32000000E+00 0.0000E+00 0.9000E+01
       -2 -1    0    0    0  501 0.00000000E+00 0.00000000E+00 -.87439961E+03 0.87439967E+03 0.32000000E+00 0.0000E+00 0.9000E+01
       25  2    1    2    0    0 0.63969442E+00 0.58377348E+02 -.33126033E+03 0.45080620E+03 0.30014079E+03 0.0000E+00 0.0000E+00
       23  2    1    2    0    0 -.63969442E+00 -.58377348E+02 -.47730221E+03 0.48943131E+03 0.91199187E+02 0.0000E+00 0.0000E+00
       24  1    3    3    0    0 -.66462209E+02 -.80187996E+02 -.13028110E+03 0.18516944E+03 0.80419002E+02 0.0000E+00 0.9000E+01
      -13  1    4    4    0    0 0.71690937E+00 0.23000976E+02 -.16930346E+03 0.17086027E+03 0.10565837E+00 0.0000E+00 0.9000E+01
       13  1    4    4    0    0 -.13566038E+01 -.81378324E+02 -.30799874E+03 0.31857104E+03 0.10565837E+00 0.0000E+00 0.9000E+01
      -24  1    3    3    0    0 0.67101904E+02 0.13856534E+03 -.20097923E+03 0.26563676E+03 0.80419002E+02 0.0000E+00 0.9000E+01
#aMCatNLO 1  0  0  1  1 0.35161054D+01 0.00000000D+00  -5  7  0 0.00000000D+00 0.00000000D+00 0.00000000D+00 0.00000000D+00 0.00000000D+00
  <mgrwgt>
 0.5104579483D-03    6    2    0
 0.239933949202647D+03 0.000000000000000D+00 0.000000000000000D+00 0.239933949202647D+03
 0.239933949202647D+03 0.000000000000000D+00 0.000000000000000D+00 -.239933949202647D+03
 0.143295343637101D+03 -.664622093296757D+02 -.801879943687828D+02 0.567362304337775D+02
 0.495068787686442D+02 0.716911958050573D+00 0.230011070171130D+02 -.438333909097272D+02
 0.105229448300650D+03 -.135660642805912D+01 -.813784587891720D+02 -.667003962039031D+02
 0.181836227698899D+03 0.671019037996843D+02 0.138565346140842D+03 0.537975566798528D+02
 0.000000000000000D+00 -.000000000000000D+00 0.000000000000000D+00 -.000000000000000D+00
 0.240771642618295D+03 0.000000000000000D+00 0.000000000000000D+00 0.240771642618295D+03
 0.243658572616536D+03 0.000000000000000D+00 0.000000000000000D+00 -.243658572616536D+03
 0.143725399687293D+03 -.661654080579345D+02 -.811967579007547D+02 0.567362304337775D+02
 0.493480088059218D+02 0.819135428069295D+00 0.226536714820106D+02 -.438333909097272D+02
 0.105801500739061D+03 -.113838438136556D+01 -.821201484769730D+02 -.667003962039031D+02
 0.181005870667243D+03 0.674771101174891D+02 0.137290100761513D+03 0.537975566798528D+02
 0.454943533531358D+01 -.992453106258369D+00 0.337313413420428D+01 -.288692999824101D+01
0.147636585634D-04 0.000000000000D+00 0.000000000000D+00 0.672572699203D-06 0.000000000000D+00  7 2 -2 24 -13 13 -24 21 0 0.10128844D-01 0.13452308D+00 0.41959967D+05 0.41959967D+05 0.41959967D+05 0.11540530D+01  1  2  2  1  7  1        2 0.478629524375D-03 0.100000000000D+01
-.795267601385D-06 0.000000000000D+00 -.566963362440D-07 0.672572699203D-06 0.000000000000D+00  7 2 -2 24 -13 13 -24 21 2 0.10128844D-01 0.13452308D+00 0.41959967D+05 0.41959967D+05 0.41959967D+05 0.11540530D+01  1  2  3  1  7  1        2 -.343376278442D-04 0.100000000000D+01
0.905121034365D-06 0.000000000000D+00 0.000000000000D+00 0.672572699203D-06 0.000000000000D+00  7 2 -2 24 -13 13 -24 21 2 0.10128844D-01 0.13452308D+00 0.41959967D+05 0.41959967D+05 0.41959967D+05 0.11540530D+01  1  2 15  1  7  1        2 0.390808190575D-04 0.100000000000D+01
-.326682461334D-04 0.000000000000D+00 0.000000000000D+00 0.672572699203D-06 0.000000000000D+00  7 2 -2 24 -13 13 -24 21 2 0.10128844D-01 0.13452308D+00 0.41959967D+05 0.41959967D+05 0.41959967D+05 0.11540530D+01  1  2  4  1  7  1        2 -.141053159477D-02 0.100000000000D+01
0.325960792145D-04 0.000000000000D+00 0.000000000000D+00 0.672572699203D-06 0.386036374916D-06  7 2 -2 24 -13 13 -24 21 2 0.10164207D-01 0.13661136D+00 0.42681898D+05 0.42681898D+05 0.42681898D+05 0.11533900D+01  1  2 11  1  7  1        2 0.134439681991D-02 0.100000000000D+01
0.219826246972D-06 0.000000000000D+00 0.000000000000D+00 0.672572699203D-06 0.252942659615D-09  7 21 -2 24 -13 13 -24 -2 2 0.10164207D-01 0.13661136D+00 0.42681898D+05 0.42681898D+05 0.42681898D+05 0.11533900D+01  1  2 11  3  7  1        2 0.932200075530D-04 0.100000000000D+01
  </mgrwgt>
  </event>
  <event>
  8     66 0.26993063E-05 0.28854807E+03 0.75467711E-02 0.96727612E-01
        2 -1    0    0  501    0 0.00000000E+00 0.00000000E+00 0.68534491E+03 0.68534498E+03 0.32000000E+00 0.0000E+00 0.9000E+01
       -2 -1    0    0    0  501 0.00000000E+00 0.00000000E+00 -.23530694E+03 0.23530716E+03 0.32000000E+00 0.0000E+00 0.9000E+01
       25  2    1    2    0    0 0.21245682E+03 -.11262113E+03 -.23469815E+02 0.38216483E+03 0.29610422E+03 0.0000E+00 0.0000E+00
       23  2    1    2    0    0 -.21245682E+03 0.11262113E+03 0.47350778E+03 0.53848731E+03 0.89092877E+02 0.0000E+00 0.0000E+00
       24  1    3    3    0    0 0.21575699E+03 -.83150001E+02 0.70712976E+02 0.25481864E+03 0.80419002E+02 0.0000E+00 0.9000E+01
      -13  1    4    4    0    0 -.35988426E+02 -.21707406E+01 0.13607079E+03 0.14076630E+03 0.10565837E+00 0.0000E+00 0.9000E+01
       13  1    4    4    0    0 -.17646839E+03 0.11479187E+03 0.33743699E+03 0.39772101E+03 0.10565837E+00 0.0000E+00 0.9000E+01
      -24  1    3    3    0    0 -.33001660E+01 -.29471130E+02 -.94182791E+02 0.12734619E+03 0.80419002E+02 0.0000E+00 0.9000E+01
#aMCatNLO 1  0  0  1  1 0.21359366D+03 0.00000000D+00  -5  7  0 0.00000000D+00 0.00000000D+00 0.00000000D+00 0.00000000D+00 0.00000000D+00
  <mgrwgt>
 0.2752071473D-02    4    2    0
 0.401580064974602D+03 0.000000000000000D+00 0.000000000000000D+00 0.401580064974602D+03
 0.401580064974602D+03 0.000000000000000D+00 0.000000000000000D+00 -.401580064974602D+03
 0.252472449205175D+03 0.215756986084368D+03 -.831500009281356D+02 -.617261853246274D+02
 0.851132456271049D+02 -.359882280737535D+02 -.217090493391333D+01 0.770999299160465D+02
 0.266825305939316D+03 -.176468591988274D+03 0.114792035956603D+03 0.163943186537969D+03
 0.198749129177608D+03 -.330016602234022D+01 -.294711300945539D+02 -.179316931129388D+03
 0.000000000000000D+00 0.000000000000000D+00 -.000000000000000D+00 -.000000000000000D+00
 0.482538406653133D+03 0.000000000000000D+00 0.000000000000000D+00 0.482538406653133D+03
 0.585770457201259D+03 0.000000000000000D+00 0.000000000000000D+00 -.585770457201259D+03
 0.222296669966869D+03 0.196347299559886D+03 -.242117641818742D+02 -.617261853246274D+02
 0.905169889474894D+02 -.431684082069076D+02 0.196319797254990D+02 0.770999299160465D+02
 0.319775473459900D+03 -.200450221760260D+03 0.187613148821031D+03 0.163943186537969D+03
 0.198487547202715D+03 -.195401425777138D+02 0.198421641602004D+02 -.179316931129388D+03
 0.237232184277419D+03 0.668114729849963D+02 -.202875528524856D+03 -.103232050548125D+03
0.945443477659D-04 0.000000000000D+00 0.000000000000D+00 0.172296653548D-07 0.000000000000D+00  7 2 -2 24 -13 13 -24 21 0 0.10543770D+00 0.36201090D-01 0.83259990D+05 0.83259990D+05 0.83259990D+05 0.11283102D+01  1  2  2  1  7  1        2 0.352109745639D-02 0.100000000000D+01
-.455470331404D-05 0.000000000000D+00 -.363075189519D-06 0.172296653548D-07 0.000000000000D+00  7 2 -2 24 -13 13 -24 21 2 0.10543770D+00 0.36201090D-01 0.83259990D+05 0.83259990D+05 0.83259990D+05 0.11283102D+01  1  2  3  1  7  1        2 -.215953187360D-03 0.100000000000D+01
0.610020542276D-05 0.000000000000D+00 0.000000000000D+00 0.172296653548D-07 0.000000000000D+00  7 2 -2 24 -13 13 -24 21 2 0.10543770D+00 0.36201090D-01 0.83259990D+05 0.83259990D+05 0.83259990D+05 0.11283102D+01  1  2 15  1  7  1        2 0.289230431438D-03 0.100000000000D+01
-.177651524817D-04 0.000000000000D+00 0.000000000000D+00 0.172296653548D-07 0.000000000000D+00  7 2 -2 24 -13 13 -24 21 2 0.10543770D+00 0.36201090D-01 0.83259990D+05 0.83259990D+05 0.83259990D+05 0.11283102D+01  1  2  4  1  7  1        2 -.842303227636D-03 0.100000000000D+01
  </mgrwgt>
  </event>
  <event>
  8     66 0.26993063E-05 0.12268193E+03 0.75467711E-02 0.10045642E+00
        2 -1    0    0  501    0 0.00000000E+00 0.00000000E+00 0.17139883E+03 0.17139912E+03 0.32000000E+00 0.0000E+00 0.9000E+01
       -2 -1    0    0    0  501 0.00000000E+00 0.00000000E+00 -.89497315E+03 0.89497321E+03 0.32000000E+00 0.0000E+00 0.9000E+01
       25  2    1    2    0    0 0.24003952E+03 -.98907886E+02 -.67812689E+03 0.78726631E+03 0.30418815E+03 0.0000E+00 0.0000E+00
       23  2    1    2    0    0 -.24003952E+03 0.98907886E+02 -.45447436E+02 0.27910602E+03 0.91831143E+02 0.0000E+00 0.0000E+00
       24  1    3    3    0    0 0.85920576E+02 -.95224191E+02 -.55220848E+03 0.57258310E+03 0.80419002E+02 0.0000E+00 0.9000E+01
      -13  1    4    4    0    0 -.19100674E+03 0.38396763E+02 -.14729784E+02 0.19538389E+03 0.10565837E+00 0.0000E+00 0.9000E+01
       13  1    4    4    0    0 -.49032777E+02 0.60511123E+02 -.30717651E+02 0.83722126E+02 0.10565837E+00 0.0000E+00 0.9000E+01
      -24  1    3    3    0    0 0.15411894E+03 -.36836951E+01 -.12591841E+03 0.21468321E+03 0.80419002E+02 0.0000E+00 0.9000E+01
#aMCatNLO 1  0  0  2  1 0.19636497D+02 0.00000000D+00  -5  7  0 0.00000000D+00 0.00000000D+00 0.00000000D+00 0.00000000D+00 0.00000000D+00
  <mgrwgt>
 0.6303865382D-03    9    2    0
 0.391659976052086D+03 0.000000000000000D+00 0.000000000000000D+00 0.391659976052086D+03
 0.391659976052086D+03 0.000000000000000D+00 0.000000000000000D+00 -.391659976052086D+03
 0.269395541474121D+03 0.859205761261353D+02 -.952241908610093D+02 -.222837945343210D+03
 0.252379702093642D+03 -.191006931773636D+03 0.383967345227323D+02 0.160429289162821D+03
 0.856001203497315D+02 -.490325890067439D+02 0.605111514695090D+02 0.355188170836020D+02
 0.175944588186677D+03 0.154118944654244D+03 -.368369513123199D+01 0.268898390967869D+02
 0.000000000000000D+00 0.000000000000000D+00 -.000000000000000D+00 -.000000000000000D+00
 0.394206996425138D+03 0.000000000000000D+00 0.000000000000000D+00 0.394206996425138D+03
 0.431551562450909D+03 0.000000000000000D+00 0.000000000000000D+00 -.431551562450909D+03
 0.266815160360015D+03 0.849802647744172D+02 -.885704158150817D+02 -.222837945343210D+03
 0.254082074022386D+03 -.191895074728754D+03 0.446813586753466D+02 0.160429289162821D+03
 0.873009961792265D+02 -.493357923595320D+02 0.626566609318123D+02 0.355188170836020D+02
 0.175367809656750D+03 0.153502875197664D+03 0.675698775118435D+00 0.268898390967869D+02
 0.421925186576704D+02 0.274772711620509D+01 -.194433025671957D+02 -.373445660257717D+02
0.446967716943D-04 0.000000000000D+00 0.000000000000D+00 0.286574298832D-07 0.000000000000D+00  7 2 -2 24 -13 13 -24 21 0 0.26369077D-01 0.13768820D+00 0.89392980D+05 0.89392980D+05 0.89392980D+05 0.11257402D+01  1  2  2  2  7  2       -2 0.426366413367D-03 0.100000000000D+01
-.226306531442D-05 0.000000000000D+00 -.171647372237D-06 0.286574298832D-07 0.000000000000D+00  7 2 -2 24 -13 13 -24 21 2 0.26369077D-01 0.13768820D+00 0.89392980D+05 0.89392980D+05 0.89392980D+05 0.11257402D+01  1  2  3  2  7  2       -2 -.273577431679D-04 0.100000000000D+01
0.281774354816D-05 0.000000000000D+00 0.000000000000D+00 0.286574298832D-07 0.000000000000D+00  7 2 -2 24 -13 13 -24 21 2 0.26369077D-01 0.13768820D+00 0.89392980D+05 0.89392980D+05 0.89392980D+05 0.11257402D+01  1  2 15  2  7  2       -2 0.340631372026D-04 0.100000000000D+01
0.428694657317D-03 0.000000000000D+00 0.000000000000D+00 0.286574298832D-07 0.000000000000D+00  7 2 -2 24 -13 13 -24 21 2 0.26369077D-01 0.15213249D+00 0.95002912D+05 0.95002912D+05 0.95002912D+05 0.11235536D+01  1  2 12  2  7  2       -2 0.393914268600D-02 0.100000000000D+01
-.434718272654D-03 0.000000000000D+00 0.000000000000D+00 0.286574298832D-07 0.000000000000D+00  7 2 -2 24 -13 13 -24 21 2 0.26369077D-01 0.13768820D+00 0.89392980D+05 0.89392980D+05 0.89392980D+05 0.11257402D+01  1  2  4  2  7  2       -2 -.525522209982D-02 0.100000000000D+01
-.592306934756D-03 0.000000000000D+00 -.521369986481D-04 0.286574298832D-07 0.000000000000D+00  7 2 -2 24 -13 13 -24 21 2 0.26369077D-01 0.15216090D+00 0.89392980D+05 0.89392980D+05 0.89392980D+05 0.11257402D+01  1  2  5  2  7  2       -2 -.546888186859D-02 0.100000000000D+01
0.594803859491D-03 0.000000000000D+00 0.518776705327D-04 0.286574298832D-07 0.000000000000D+00  7 2 -2 24 -13 13 -24 21 2 0.26369077D-01 0.13768820D+00 0.89392980D+05 0.89392980D+05 0.89392980D+05 0.11257402D+01  1  2  6  2  7  2       -2 0.719046468502D-02 0.100000000000D+01
0.695062180548D-05 0.000000000000D+00 0.000000000000D+00 0.286574298832D-07 0.000000000000D+00  7 2 21 24 -13 13 -24 2 2 0.26369077D-01 0.15213249D+00 0.95002912D+05 0.95002912D+05 0.95002912D+05 0.11235536D+01  1  2 12  4  7  2       -2 0.565002301172D-03 0.100000000000D+01
-.944421676110D-05 0.000000000000D+00 -.846435390907D-06 0.286574298832D-07 0.000000000000D+00  7 2 21 24 -13 13 -24 2 2 0.26369077D-01 0.15216090D+00 0.89392980D+05 0.89392980D+05 0.89392980D+05 0.11257402D+01  1  2  5  4  7  2       -2 -.773190972929D-03 0.100000000000D+01
  </mgrwgt>
  </event>
  <event>
  8     66 0.26993063E-05 0.21562012E+03 0.75467711E-02 0.10149142E+00
        2 -1    0    0  501    0 0.00000000E+00 0.00000000E+00 0.90626238E+03 0.90626243E+03 0.32000000E+00 0.0000E+00 0.9000E+01
       -2 -1    0    0    0  501 0.00000000E+00 0.00000000E+00 -.10857546E+03 0.10857593E+03 0.32000000E+00 0.0000E+00 0.9000E+01
       25  2    1    2    0    0 -.11977076E+03 0.18248428E+03 0.60257375E+03 0.70834389E+03 0.30167929E+03 0.0000E+00 0.0000E+00
       23  2    1    2    0    0 0.11977076E+03 -.18248428E+03 0.19511317E+03 0.30649448E+03 0.90687210E+02 0.0000E+00 0.0000E+00
       24  1    3    3    0    0 -.32554333E+02 0.17034949E+03 0.15787300E+03 0.24793111E+03 0.80419002E+02 0.0000E+00 0.9000E+01
      -11  1    4    4    0    0 0.11861299E+02 -.66558737E-01 -.68792022E+01 0.13711976E+02 0.51099893E-03 0.0000E+00 0.9000E+01
       11  1    4    4    0    0 0.10790946E+03 -.18241772E+03 0.20199237E+03 0.29278250E+03 0.51099893E-03 0.0000E+00 0.9000E+01
      -24  1    3    3    0    0 -.87216423E+02 0.12134792E+02 0.44470075E+03 0.46041278E+03 0.80419002E+02 0.0000E+00 0.9000E+01
#aMCatNLO 1  0  0  1  2 0.32983945D+02 0.00000000D+00  -5  7  0 0.00000000D+00 0.00000000D+00 0.00000000D+00 0.00000000D+00 0.00000000D+00
  <mgrwgt>
 0.7273156838D-03    9    2    0
 0.313684753395212D+03 0.000000000000000D+00 0.000000000000000D+00 0.313684753395212D+03
 0.313684753395212D+03 0.000000000000000D+00 0.000000000000000D+00 -.313684753395212D+03
 0.200323369843307D+03 -.325543333906496D+02 0.170349490979036D+03 -.598623659044776D+02
 0.309273694562304D+02 0.118612993686534D+02 -.665587337878790D-01 -.285623410928501D+02
 0.216778543697060D+03 0.107909457152234D+03 -.182417724241131D+03 -.455220819736415D+02
 0.179340223793827D+03 -.872164231302382D+02 0.121347919958829D+02 0.133946788970969D+03
 0.000000000000000D+00 0.000000000000000D+00 -.000000000000000D+00 0.000000000000000D+00
 0.544497880876250D+03 0.000000000000000D+00 0.000000000000000D+00 0.544497880876250D+03
 0.315298580995703D+03 0.000000000000000D+00 0.000000000000000D+00 -.315298580995703D+03
 0.209684193298435D+03 -.354818070451926D+02 0.180714646561841D+03 -.598623659044776D+02
 0.307972185403941D+02 0.114205828515896D+02 0.149386359834450D+01 -.285623410928501D+02
 0.206306361880467D+03 0.104888610645838D+03 -.171721968198379D+03 -.455220819736415D+02
 0.181448199990226D+03 -.897924697704480D+02 0.212556680020259D+02 0.133946788970969D+03
 0.231560488162431D+03 0.896508331821332D+01 -.317422099638326D+02 0.229199299880547D+03
0.725192618275D-05 0.000000000000D+00 0.000000000000D+00 0.139134586455D-06 0.000000000000D+00  7 2 -2 24 -11 11 -24 21 0 0.13942502D+00 0.16703958D-01 0.71350152D+05 0.71350152D+05 0.71350152D+05 0.11339550D+01  1  2  2  1  7  1        2 0.711266283130D-03 0.100000000000D+01
-.390232929803D-06 0.000000000000D+00 -.278493060178D-07 0.139134586455D-06 0.000000000000D+00  7 2 -2 24 -11 11 -24 21 2 0.13942502D+00 0.16703958D-01 0.71350152D+05 0.71350152D+05 0.71350152D+05 0.11339550D+01  1  2  3  1  7  1        2 -.492146483341D-04 0.100000000000D+01
0.468907796297D-06 0.000000000000D+00 0.000000000000D+00 0.139134586455D-06 0.000000000000D+00  7 2 -2 24 -11 11 -24 21 2 0.13942502D+00 0.16703958D-01 0.71350152D+05 0.71350152D+05 0.71350152D+05 0.11339550D+01  1  2 15  1  7  1        2 0.591368142804D-04 0.100000000000D+01
0.138716039042D-03 0.000000000000D+00 0.000000000000D+00 0.139134586455D-06 0.000000000000D+00  7 2 -2 24 -11 11 -24 21 2 0.24213646D+00 0.16703958D-01 0.80963185D+05 0.80963185D+05 0.80963185D+05 0.11293267D+01  1  2 12  1  7  1        2 0.724348508871D-02 0.100000000000D+01
-.120716827331D-03 0.000000000000D+00 0.000000000000D+00 0.139134586455D-06 0.000000000000D+00  7 2 -2 24 -11 11 -24 21 2 0.13942502D+00 0.16703958D-01 0.71350152D+05 0.71350152D+05 0.71350152D+05 0.11339550D+01  1  2  4  1  7  1        2 -.152243333439D-01 0.100000000000D+01
-.138558996635D-03 0.000000000000D+00 -.243050280959D-05 0.139134586455D-06 0.000000000000D+00  7 2 -2 24 -11 11 -24 21 2 0.24236931D+00 0.16703958D-01 0.71350152D+05 0.71350152D+05 0.71350152D+05 0.11339550D+01  1  2  5  1  7  1        2 -.730134792113D-02 0.100000000000D+01
0.121223995571D-03 0.000000000000D+00 0.210105043065D-05 0.139134586455D-06 0.000000000000D+00  7 2 -2 24 -11 11 -24 21 2 0.13942502D+00 0.16703958D-01 0.71350152D+05 0.71350152D+05 0.71350152D+05 0.11339550D+01  1  2  6  1  7  1        2 0.152882954155D-01 0.100000000000D+01
0.847612530913D-05 0.000000000000D+00 0.000000000000D+00 0.139134586455D-06 0.000000000000D+00  7 21 -2 24 -11 11 -24 -2 2 0.24213646D+00 0.16703958D-01 0.80963185D+05 0.80963185D+05 0.80963185D+05 0.11293267D+01  1  2 12  3  7  1        2 0.151479371400D-03 0.100000000000D+01
-.835687503445D-05 0.000000000000D+00 -.148730010439D-06 0.139134586455D-06 0.000000000000D+00  7 21 -2 24 -11 11 -24 -2 2 0.24236931D+00 0.16703958D-01 0.71350152D+05 0.71350152D+05 0.71350152D+05 0.11339550D+01  1  2  5  3  7  1        2 -.151451375758D-03 0.100000000000D+01
  </mgrwgt>
  </event>
  <event>
  8     66 0.26993063E-05 0.40586178E+03 0.75467711E-02 0.94855126E-01
        2 -1    0    0  501    0 0.00000000E+00 0.00000000E+00 0.20109739E+04 0.20109739E+04 0.32000000E+00 0.0000E+00 0.9000E+01
       -2 -1    0    0    0  501 0.00000000E+00 0.00000000E+00 -.97431054E+02 0.97431580E+02 0.32000000E+00 0.0000E+00 0.9000E+01
       25  2    1    2    0    0 0.84457537E+02 -.34515945E+03 0.69990192E+03 0.84054778E+03 0.30064887E+03 0.0000E+00 0.0000E+00
       23  2    1    2    0    0 -.84457537E+02 0.34515945E+03 0.12136409E+04 0.12678577E+04 0.90943918E+02 0.0000E+00 0.0000E+00
       24  1    3    3    0    0 0.15363547E+03 -.13087456E+03 0.25120616E+03 0.33212009E+03 0.80419002E+02 0.0000E+00 0.9000E+01
      -13  1    4    4    0    0 -.26183140E+02 0.99250314E+02 0.22300227E+03 0.24549176E+03 0.10565837E+00 0.0000E+00 0.9000E+01
       13  1    4    4    0    0 -.58274397E+02 0.24590914E+03 0.99063862E+03 0.10223659E+04 0.10565837E+00 0.0000E+00 0.9000E+01
      -24  1    3    3    0    0 -.69177936E+02 -.21428489E+03 0.44869577E+03 0.50842768E+03 0.80419002E+02 0.0000E+00 0.9000E+01
#aMCatNLO 1  0  0  1  1 0.15237844D+03 0.00000000D+00  -5  7  0 0.00000000D+00 0.00000000D+00 0.00000000D+00 0.00000000D+00 0.00000000D+00
  <mgrwgt>
 0.1219890303D-02    3    2    0
 0.442641937488177D+03 0.000000000000000D+00 0.000000000000000D+00 0.442641937488177D+03
 0.442641937488177D+03 0.000000000000000D+00 0.000000000000000D+00 -.442641937488177D+03
 0.247999650750552D+03 0.153635472759766D+03 -.130874559187053D+03 -.119601848169262D+03
 0.102646798294509D+03 -.261830963313920D+02 0.992501161442369D+02 0.474459661226085D+00
 0.293615130787093D+03 -.582744407248323D+02 0.245909337184523D+03 0.149474186637019D+03
 0.241022295144199D+03 -.691779357035413D+02 -.214284894141707D+03 -.303467981289841D+02
 0.000000000000000D+00 0.000000000000000D+00 -.000000000000000D+00 -.000000000000000D+00
 0.456385815096603D+03 0.000000000000000D+00 0.000000000000000D+00 0.456385815096603D+03
 0.125150077792458D+04 0.000000000000000D+00 0.000000000000000D+00 -.125150077792458D+04
 0.227959978932023D+03 0.151817230782623D+03 -.902522154426720D+02 -.119601848169262D+03
 0.121423978155516D+03 -.270390825667456D+02 0.118374175279449D+03 0.474459661226085D+00
 0.340665821718515D+03 -.606974954992818D+02 0.300044136180774D+03 0.149474186637019D+03
 0.208252357395464D+03 -.708942367962589D+02 -.175940067746923D+03 -.303467981289841D+02
 0.809584456819668D+03 0.681358407966313D+01 -.152226028270628D+03 -.795114962827977D+03
0.432240013678D-04 0.000000000000D+00 0.000000000000D+00 0.228345964397D-05 0.000000000000D+00  7 2 -2 24 -13 13 -24 21 0 0.30938064D+00 0.14989435D-01 0.16472378D+06 0.16472378D+06 0.16472378D+06 0.11043571D+01  1  2  2  1  7  1        2 0.120521413516D-02 0.100000000000D+01
-.237936198990D-05 0.000000000000D+00 -.165991546393D-06 0.228345964397D-05 0.000000000000D+00  7 2 -2 24 -13 13 -24 21 2 0.30938064D+00 0.14989435D-01 0.16472378D+06 0.16472378D+06 0.16472378D+06 0.11043571D+01  1  2  3  1  7  1        2 -.809130934990D-04 0.100000000000D+01
0.281093511309D-05 0.000000000000D+00 0.000000000000D+00 0.228345964397D-05 0.000000000000D+00  7 2 -2 24 -13 13 -24 21 2 0.30938064D+00 0.14989435D-01 0.16472378D+06 0.16472378D+06 0.16472378D+06 0.11043571D+01  1  2 15  1  7  1        2 0.955892615713D-04 0.100000000000D+01
  </mgrwgt>
  </event>
  <event>
  8     66 0.26993063E-05 0.30602093E+03 0.75467711E-02 0.85994143E-01
        2 -1    0    0  501    0 0.00000000E+00 0.00000000E+00 0.84569241E+03 0.84569247E+03 0.32000000E+00 0.0000E+00 0.9000E+01
       -2 -1    0    0    0  501 0.00000000E+00 0.00000000E+00 -.36900599E+03 0.36900613E+03 0.32000000E+00 0.0000E+00 0.9000E+01
       25  2    1    2    0    0 0.15352585E+03 -.17408138E+03 -.24506080E+03 0.45107307E+03 0.29922835E+03 0.0000E+00 0.0000E+00
       23  2    1    2    0    0 -.15352585E+03 0.17408138E+03 0.72174722E+03 0.76362552E+03 0.91270920E+02 0.0000E+00 0.0000E+00
       24  1    3    3    0    0 0.52006706E+02 -.21966855E+03 -.17639551E+03 0.29755934E+03 0.80419002E+02 0.0000E+00 0.9000E+01
      -13  1    4    4    0    0 -.54084205E+02 0.89420907E+02 0.19853110E+03 0.22435644E+03 0.10565837E+00 0.0000E+00 0.9000E+01
       13  1    4    4    0    0 -.99441646E+02 0.84660473E+02 0.52321611E+03 0.53926909E+03 0.10565837E+00 0.0000E+00 0.9000E+01
      -24  1    3    3    0    0 0.10151914E+03 0.45587173E+02 -.68665289E+02 0.15351373E+03 0.80419002E+02 0.0000E+00 0.9000E+01
#aMCatNLO 1  0  0  1  1 0.11311077D+04 0.00000000D+00  -5  7  0 0.00000000D+00 0.00000000D+00 0.00000000D+00 0.00000000D+00 0.00000000D+00
  <mgrwgt>
 0.9966063572D-03    5    2    0
 0.558628395869537D+03 0.000000000000000D+00 0.000000000000000D+00 0.558628395869537D+03
 0.558628395869537D+03 0.000000000000000D+00 0.000000000000000D+00 -.558628395869537D+03
 0.398771584202212D+03 0.520067064798705D+02 -.219668552961226D+03 -.318735924761877D+03
 0.159218599350398D+03 -.540841447040405D+02 0.894209134103944D+02 0.120122303988833D+03
 0.363067557632059D+03 -.994417066058190D+02 0.846604663807857D+02 0.338765411198396D+03
 0.196199050554406D+03 0.101519144829989D+03 0.455871731700457D+02 -.140151790425352D+03
 0.000000000000000D+00 -.000000000000000D+00 0.000000000000000D+00 0.000000000000000D+00
 0.233991884902428D+04 0.000000000000000D+00 0.000000000000000D+00 0.233991884902428D+04
 0.100195715285867D+04 0.000000000000000D+00 0.000000000000000D+00 -.100195715285867D+04
 0.778749262983457D+03 0.339248555004317D+03 -.619113096967413D+03 -.318735924761877D+03
 0.121102977398412D+03 0.142968848794801D+02 -.567118170379746D+01 0.120122303988833D+03
 0.388285071638541D+03 0.838416031047565D+02 -.170217151373630D+03 0.338765411198396D+03
 0.301726651252706D+03 0.222982046617880D+03 -.123321687664705D+03 -.140151790425352D+03
 0.175201203860983D+04 -.660369089606434D+03 0.918323117709546D+03 0.133796169616562D+04
0.786393956361D-04 0.000000000000D+00 0.000000000000D+00 0.331548386139D-05 0.000000000000D+00  7 2 -2 24 -13 13 -24 21 0 0.13010654D+00 0.56770168D-01 0.93648809D+05 0.93648809D+05 0.93648809D+05 0.11240681D+01  1  2  2  1  7  1        2 0.952580349980D-03 0.100000000000D+01
-.244488549571D-05 0.000000000000D+00 -.301995985471D-06 0.331548386139D-05 0.000000000000D+00  7 2 -2 24 -13 13 -24 21 2 0.13010654D+00 0.56770168D-01 0.93648809D+05 0.93648809D+05 0.93648809D+05 0.11240681D+01  1  2  3  1  7  1        2 -.374201266605D-04 0.100000000000D+01
0.482736160888D-05 0.000000000000D+00 0.000000000000D+00 0.331548386139D-05 0.000000000000D+00  7 2 -2 24 -13 13 -24 21 2 0.13010654D+00 0.56770168D-01 0.93648809D+05 0.93648809D+05 0.93648809D+05 0.11240681D+01  1  2 15  1  7  1        2 0.738850482599D-04 0.100000000000D+01
0.465171401409D-04 0.000000000000D+00 -.309580551497D-04 0.331548386139D-05 0.000000000000D+00  7 2 -2 24 -13 13 -24 21 2 0.62501203D+00 0.56770168D-01 0.93648809D+05 0.93648809D+05 0.93648809D+05 0.11240681D+01  1  2  5  1  7  1        2 0.753605715163D-05 0.100000000000D+01
0.822980085358D-05 0.000000000000D+00 -.590618147363D-05 0.331548386139D-05 0.000000000000D+00  7 21 -2 24 -13 13 -24 -2 2 0.62501203D+00 0.56770168D-01 0.93648809D+05 0.93648809D+05 0.93648809D+05 0.11240681D+01  1  2  5  3  7  1        2 0.250284974840D-07 0.100000000000D+01
  </mgrwgt>
  </event>
  <event>
  8     66 0.26993063E-05 0.77257785E+02 0.75467711E-02 0.10436625E+00
        2 -1    0    0  501    0 0.00000000E+00 0.00000000E+00 0.50285844E+03 0.50285855E+03 0.32000000E+00 0.0000E+00 0.9000E+01
       -2 -1    0    0    0  501 0.00000000E+00 0.00000000E+00 -.11153073E+03 0.11153119E+03 0.32000000E+00 0.0000E+00 0.9000E+01
       25  2    1    2    0    0 0.93943284E+02 -.47712989E+02 0.19035933E+03 0.36978436E+03 0.29900156E+03 0.0000E+00 0.0000E+00
       23  2    1    2    0    0 -.93943284E+02 0.47712989E+02 0.20096838E+03 0.24460538E+03 0.91332516E+02 0.0000E+00 0.0000E+00
       24  1    3    3    0    0 -.69826517E+02 0.32402693E+02 0.10492388E+03 0.15297684E+03 0.80419002E+02 0.0000E+00 0.9000E+01
      -11  1    4    4    0    0 -.13102707E+02 0.33304465E+02 0.10669217E+02 0.37345689E+02 0.51099893E-03 0.0000E+00 0.9000E+01
       11  1    4    4    0    0 -.80840577E+02 0.14408524E+02 0.19029917E+03 0.20725969E+03 0.51099893E-03 0.0000E+00 0.9000E+01
      -24  1    3    3    0    0 0.16376980E+03 -.80115682E+02 0.85435443E+02 0.21680752E+03 0.80419002E+02 0.0000E+00 0.9000E+01
#aMCatNLO 1  0  0  2  1 0.29391398D+02 0.00000000D+00  -5  7  0 0.00000000D+00 0.00000000D+00 0.00000000D+00 0.00000000D+00 0.00000000D+00
  <mgrwgt>
 0.9647386109D-03    6    2    0
 0.236821332364837D+03 0.000000000000000D+00 0.000000000000000D+00 0.236821332364837D+03
 0.236821332364837D+03 0.000000000000000D+00 0.000000000000000D+00 -.236821332364837D+03
 0.111746223525590D+03 -.698265171239759D+02 0.324026930201480D+02 0.971213206446917D+01
 0.396282885340551D+02 -.131027070963492D+02 0.333044651627141D+02 -.170156668723610D+02
 0.111621884494216D+03 -.808405766115046D+02 0.144085239999866D+02 0.756084698119296D+02
 0.210646268175814D+03 0.163769800831830D+03 -.801156821828488D+02 -.683049350040377D+02
 0.000000000000000D+00 0.000000000000000D+00 -.000000000000000D+00 0.000000000000000D+00
 0.254746302988666D+03 0.000000000000000D+00 0.000000000000000D+00 0.254746302988666D+03
 0.249639216862048D+03 0.000000000000000D+00 0.000000000000000D+00 -.249639216862048D+03
 0.115639750334530D+03 -.728574136132312D+02 0.387660634500699D+02 0.971213206446917D+01
 0.419199852673344D+02 -.141896887275095D+02 0.355865842631568D+02 -.170156668723610D+02
 0.114800975870197D+03 -.838586354693821D+02 0.207449418090621D+02 0.756084698119296D+02
 0.202193003214559D+03 0.158266941191712D+03 -.685624224664334D+02 -.683049350040377D+02
 0.298318051640929D+02 0.126387966184110D+02 -.265351670558554D+02 0.510708612661745D+01
0.321474910514D-05 0.000000000000D+00 0.000000000000D+00 0.211316056261D-06 0.000000000000D+00  7 2 -2 24 -11 11 -24 21 0 0.77362881D-01 0.17158618D-01 0.45901249D+05 0.45901249D+05 0.45901249D+05 0.11505771D+01  1  2  2  2  7  2       -2 0.607028312768D-03 0.100000000000D+01
-.176417771987D-06 0.000000000000D+00 -.123454830266D-07 0.211316056261D-06 0.000000000000D+00  7 2 -2 24 -11 11 -24 21 2 0.77362881D-01 0.17158618D-01 0.45901249D+05 0.45901249D+05 0.45901249D+05 0.11505771D+01  1  2  3  2  7  2       -2 -.440997006439D-04 0.100000000000D+01
0.209523263372D-06 0.000000000000D+00 0.000000000000D+00 0.211316056261D-06 0.000000000000D+00  7 2 -2 24 -11 11 -24 21 2 0.77362881D-01 0.17158618D-01 0.45901249D+05 0.45901249D+05 0.45901249D+05 0.11505771D+01  1  2 15  2  7  2       -2 0.523751835689D-04 0.100000000000D+01
0.399492305885D-05 0.000000000000D+00 0.000000000000D+00 0.211316056261D-06 0.000000000000D+00  7 2 -2 24 -11 11 -24 21 2 0.77362881D-01 0.18696733D-01 0.52814132D+05 0.52814132D+05 0.52814132D+05 0.11452096D+01  1  2 12  2  7  2       -2 0.862274841345D-03 0.100000000000D+01
-.269899133181D-05 0.000000000000D+00 0.000000000000D+00 0.211316056261D-06 0.000000000000D+00  7 2 -2 24 -11 11 -24 21 2 0.77362881D-01 0.17158618D-01 0.45901249D+05 0.45901249D+05 0.45901249D+05 0.11505771D+01  1  2  4  2  7  2       -2 -.674675280347D-03 0.100000000000D+01
0.567971991469D-07 0.000000000000D+00 0.000000000000D+00 0.211316056261D-06 0.000000000000D+00  7 2 21 24 -11 11 -24 2 2 0.77362881D-01 0.18696733D-01 0.52814132D+05 0.52814132D+05 0.52814132D+05 0.11452096D+01  1  2 12  4  7  2       -2 0.161835254202D-03 0.100000000000D+01
  </mgrwgt>
  </event>
  <event>
  8     66 0.26993063E-05 0.53631581E+03 0.75467711E-02 0.85543922E-01
        2 -1    0    0  501    0 0.00000000E+00 0.00000000E+00 0.16474884E+04 0.16474884E+04 0.32000000E+00 0.0000E+00 0.9000E+01
       -2 -1    0    0    0  501 0.00000000E+00 0.00000000E+00 -.71823466E+03 0.71823473E+03 0.32000000E+00 0.0000E+00 0.9000E+01
       25  2    1    2    0    0 0.10277437E+04 0.49281652E+02 0.17461398E+03 0.10862072E+04 0.30111519E+03 0.0000E+00 0.0000E+00
       23  2    1    2    0    0 -.10277437E+04 -.49281652E+02 0.75463977E+03 0.12795160E+04 0.94837915E+02 0.0000E+00 0.0000E+00
       24  1    3    3    0    0 0.67198116E+03 -.10987638E+02 -.11513400E+01 0.67686627E+03 0.80419002E+02 0.0000E+00 0.9000E+01
      -13  1    4    4    0    0 -.72655629E+02 -.17125890E+02 0.31054160E+02 0.80848676E+02 0.10565837E+00 0.0000E+00 0.9000E+01
       13  1    4    4    0    0 -.95508802E+03 -.32155762E+02 0.72358561E+03 0.11986673E+04 0.10565837E+00 0.0000E+00 0.9000E+01
      -24  1    3    3    0    0 0.35576249E+03 0.60269290E+02 0.17576532E+03 0.40934094E+03 0.80419002E+02 0.0000E+00 0.9000E+01
#aMCatNLO 1  0  0  2  1 0.32584641D+03 0.00000000D+00  -5  7  0 0.00000000D+00 0.00000000D+00 0.00000000D+00 0.00000000D+00 0.00000000D+00
  <mgrwgt>
 0.1082254058D-02    6    2    0
 0.108778830521893D+04 0.000000000000000D+00 0.000000000000000D+00 0.108778830521893D+04
 0.108778830521893D+04 0.000000000000000D+00 0.000000000000000D+00 -.108778830521893D+04
 0.736516513086853D+03 0.671981155682450D+03 -.109876381574153D+02 -.290361767990634D+03
 0.746495932960747D+02 -.726545333792506D+02 -.171258711105921D+02 -.764916607285851D+00
 0.994367566532928D+03 -.955089117111374D+03 -.321557809577567D+02 0.274841120466041D+03
 0.370042937522010D+03 0.355762494808175D+03 0.602692902257641D+02 0.162855641318787D+02
 0.000000000000000D+00 -.000000000000000D+00 -.000000000000000D+00 0.000000000000000D+00
 0.127063342346231D+04 0.000000000000000D+00 0.000000000000000D+00 0.127063342346231D+04
 0.125541140312933D+04 0.000000000000000D+00 0.000000000000000D+00 -.125541140312933D+04
 0.843639477100788D+03 0.787952940792608D+03 0.897541944164860D+01 -.290361767990634D+03
 0.643230114384933D+02 -.624549700750211D+02 -.153701469097943D+02 -.764916607285851D+00
 0.863666914117558D+03 -.818723102075305D+03 -.868211785828781D+01 0.274841120466041D+03
 0.428213653756257D+03 0.414348635949530D+03 0.703541441322624D+02 0.162855641318787D+02
 0.326201770178542D+03 -.321123504591812D+03 -.552772988058289D+02 0.152220203329742D+02
0.143366243557D-02 0.000000000000D+00 0.000000000000D+00 0.722962549673D-06 0.000000000000D+00  7 2 -2 24 -13 13 -24 21 0 0.25345976D+00 0.11049765D+00 0.10783012D+07 0.10783012D+07 0.10783012D+07 0.10456915D+01  1  2  2  2  7  2       -2 0.117477837160D-02 0.100000000000D+01
-.794389420078D-04 0.000000000000D+00 -.550564124459D-05 0.722962549673D-06 0.000000000000D+00  7 2 -2 24 -13 13 -24 21 2 0.25345976D+00 0.11049765D+00 0.10783012D+07 0.10783012D+07 0.10783012D+07 0.10456915D+01  1  2  3  2  7  2       -2 -.711786315555D-04 0.100000000000D+01
0.902584689224D-04 0.000000000000D+00 0.000000000000D+00 0.722962549673D-06 0.000000000000D+00  7 2 -2 24 -13 13 -24 21 2 0.25345976D+00 0.11049765D+00 0.10783012D+07 0.10783012D+07 0.10783012D+07 0.10456915D+01  1  2 15  2  7  2       -2 0.808731101122D-04 0.100000000000D+01
0.722946312137D-03 0.000000000000D+00 0.000000000000D+00 0.722962549673D-06 0.000000000000D+00  7 2 -2 24 -13 13 -24 21 2 0.25345976D+00 0.13543618D+00 0.14749311D+07 0.14749311D+07 0.14749311D+07 0.10368108D+01  1  2 12  2  7  2       -2 0.367417646395D-03 0.100000000000D+01
-.622513339368D-03 0.000000000000D+00 0.000000000000D+00 0.722962549673D-06 0.000000000000D+00  7 2 -2 24 -13 13 -24 21 2 0.25345976D+00 0.11049765D+00 0.10783012D+07 0.10783012D+07 0.10783012D+07 0.10456915D+01  1  2  4  2  7  2       -2 -.557782449027D-03 0.100000000000D+01
0.209655838117D-04 0.000000000000D+00 0.000000000000D+00 0.722962549673D-06 0.000000000000D+00  7 2 21 24 -13 13 -24 2 2 0.25345976D+00 0.13543618D+00 0.14749311D+07 0.14749311D+07 0.14749311D+07 0.10368108D+01  1  2 12  4  7  2       -2 0.881460102517D-04 0.100000000000D+01
  </mgrwgt>
  </event>
  <event>
  8     66 0.26993063E-05 0.21399611E+03 0.75467711E-02 0.98628137E-01
        2 -1    0    0  501    0 0.00000000E+00 0.00000000E+00 0.63192818E+03 0.63192826E+03 0.32000000E+00 0.0000E+00 0.9000E+01
       -2 -1    0    0    0  501 0.00000000E+00 0.00000000E+00 -.21912916E+03 0.21912939E+03 0.32000000E+00 0.0000E+00 0.9000E+01
       25  2    1    2    0    0 -.27538228E+03 -.86266387E+02 0.34444840E+03 0.53991901E+03 0.29931680E+03 0.0000E+00 0.0000E+00
       23  2    1    2    0    0 0.27538228E+03 0.86266387E+02 0.68350623E+02 0.31113865E+03 0.94117810E+02 0.0000E+00 0.0000E+00
       24  1    3    3    0    0 -.20093036E+02 0.65291421E+02 0.62365765E+02 0.12257000E+03 0.80419002E+02 0.0000E+00 0.9000E+01
      -13  1    4    4    0    0 0.25824476E+03 0.61839280E+02 0.82566770E+02 0.27808584E+03 0.10565837E+00 0.0000E+00 0.9000E+01
       13  1    4    4    0    0 0.17137520E+02 0.24427107E+02 -.14216147E+02 0.33052809E+02 0.10565837E+00 0.0000E+00 0.9000E+01
      -24  1    3    3    0    0 -.25528924E+03 -.15155781E+03 0.28208264E+03 0.41734901E+03 0.80419002E+02 0.0000E+00 0.9000E+01
#aMCatNLO 1  0  0  1  2 0.43892310D+01 0.00000000D+00  -5  7  0 0.00000000D+00 0.00000000D+00 0.00000000D+00 0.00000000D+00 0.00000000D+00
  <mgrwgt>
 0.1336170251D-02   11    2    0
 0.372120979526655D+03 0.000000000000000D+00 0.000000000000000D+00 0.372120979526655D+03
 0.372120979526655D+03 0.000000000000000D+00 0.000000000000000D+00 -.372120979526655D+03
 0.105569978321640D+03 -.200930359845575D+02 0.652914206949004D+02 0.333236507990035D+01
 0.272201544329141D+03 0.258245058527614D+03 0.618393289248357D+02 -.598253113603634D+02
 0.456814395277357D+02 0.171372183324442D+02 0.244270589752329D+02 -.345894269246082D+02
 0.320788996874795D+03 -.255289240875501D+03 -.151557808594969D+03 0.910823732050712D+02
 0.000000000000000D+00 -.000000000000000D+00 -.000000000000000D+00 0.000000000000000D+00
 0.380791749839584D+03 0.000000000000000D+00 0.000000000000000D+00 0.380791749839584D+03
 0.372683334015629D+03 0.000000000000000D+00 0.000000000000000D+00 -.372683334015629D+03
 0.105722198153245D+03 -.196089901661603D+02 0.656837124074240D+02 0.333236507990035D+01
 0.273619134886102D+03 0.259495470264464D+03 0.628527167963247D+02 -.598253113603634D+02
 0.458514582727698D+02 0.173469095626890D+02 0.245970018374320D+02 -.345894269246082D+02
 0.319062110562298D+03 -.253823416356491D+03 -.150369840867605D+03 0.910823732050712D+02
 0.922018198079935D+01 -.340997330450197D+01 -.276359017357560D+01 0.810841582395460D+01
0.129528817720D-04 0.000000000000D+00 0.000000000000D+00 0.161152084603D-06 0.000000000000D+00  7 2 -2 24 -13 13 -24 21 0 0.97219745D-01 0.33712202D-01 0.12548915D+06 0.12548915D+06 0.12548915D+06 0.11137190D+01  1  2  2  1  7  1        2 0.600723643397D-03 0.100000000000D+01
-.717483908890D-06 0.000000000000D+00 -.497424765767D-07 0.161152084603D-06 0.000000000000D+00  7 2 -2 24 -13 13 -24 21 2 0.97219745D-01 0.33712202D-01 0.12548915D+06 0.12548915D+06 0.12548915D+06 0.11137190D+01  1  2  3  1  7  1        2 -.412735408086D-04 0.100000000000D+01
0.830692214765D-06 0.000000000000D+00 0.000000000000D+00 0.161152084603D-06 0.000000000000D+00  7 2 -2 24 -13 13 -24 21 2 0.97219745D-01 0.33712202D-01 0.12548915D+06 0.12548915D+06 0.12548915D+06 0.11137190D+01  1  2 15  1  7  1        2 0.477858926182D-04 0.100000000000D+01
0.103767198362D-04 0.000000000000D+00 0.000000000000D+00 0.161152084603D-06 0.000000000000D+00  7 2 -2 24 -13 13 -24 21 2 0.99557578D-01 0.33712202D-01 0.12707143D+06 0.12707143D+06 0.12707143D+06 0.11132824D+01  1  2 12  1  7  1        2 0.579936930005D-03 0.100000000000D+01
-.502149094716D-03 0.000000000000D+00 0.000000000000D+00 0.161152084603D-06 0.000000000000D+00  7 2 -2 24 -13 13 -24 21 2 0.97219745D-01 0.33712202D-01 0.12548915D+06 0.12548915D+06 0.12548915D+06 0.11137190D+01  1  2  4  1  7  1        2 -.288863219035D-01 0.100000000000D+01
-.105247702783D-02 0.000000000000D+00 -.710650314442D-04 0.161152084603D-06 0.000000000000D+00  7 2 -2 24 -13 13 -24 21 2 0.99563072D-01 0.33712202D-01 0.12548915D+06 0.12548915D+06 0.12548915D+06 0.11137190D+01  1  2  5  1  7  1        2 -.588721140108D-01 0.100000000000D+01
0.105389083530D-02 0.000000000000D+00 0.710448795452D-04 0.161152084603D-06 0.000000000000D+00  7 2 -2 24 -13 13 -24 21 2 0.97219745D-01 0.33712202D-01 0.12548915D+06 0.12548915D+06 0.12548915D+06 0.11137190D+01  1  2  6  1  7  1        2 0.606254800419D-01 0.100000000000D+01
0.491780365463D-03 0.000000000000D+00 0.000000000000D+00 0.161152084603D-06 0.553126214887D-07  7 2 -2 24 -13 13 -24 21 2 0.99485057D-01 0.33763148D-01 0.12707143D+06 0.12707143D+06 0.12707143D+06 0.11132824D+01  1  2 11  1  7  1        2 0.274337386824D-01 0.100000000000D+01
0.480330432454D-06 0.000000000000D+00 0.000000000000D+00 0.161152084603D-06 0.000000000000D+00  7 21 -2 24 -13 13 -24 -2 2 0.99557578D-01 0.33712202D-01 0.12707143D+06 0.12707143D+06 0.12707143D+06 0.11132824D+01  1  2 12  3  7  1        2 0.370518408458D-04 0.100000000000D+01
-.452196371590D-05 0.000000000000D+00 -.306321282285D-06 0.161152084603D-06 0.000000000000D+00  7 21 -2 24 -13 13 -24 -2 2 0.99563072D-01 0.33712202D-01 0.12548915D+06 0.12548915D+06 0.12548915D+06 0.11137190D+01  1  2  5  3  7  1        2 -.349279605265D-03 0.100000000000D+01
0.208170041631D-05 0.000000000000D+00 0.000000000000D+00 0.161152084603D-06 0.230272760367D-09  7 21 -2 24 -13 13 -24 -2 2 0.99485057D-01 0.33763148D-01 0.12707143D+06 0.12707143D+06 0.12707143D+06 0.11132824D+01  1  2 11  3  7  1        2 0.160442280082D-03 0.100000000000D+01
  </mgrwgt>
  </event>
  <event>
  8     66 0.26993063E-05 0.84940418E+03 0.75467711E-02 0.83357250E-01
        2 -1    0    0  501    0 0.00000000E+00 0.00000000E+00 0.12334454E+04 0.12334455E+04 0.32000000E+00 0.0000E+00 0.9000E+01
       -2 -1    0    0    0  501 0.00000000E+00 0.00000000E+00 -.92245736E+03 0.92245742E+03 0.32000000E+00 0.0000E+00 0.9000E+01
       25  2    1    2    0    0 -.82751295E+03 0.91023576E+01 -.48299403E+03 0.10048002E+04 0.30245617E+03 0.0000E+00 0.0000E+00
       23  2    1    2    0    0 0.82751295E+03 -.91023576E+01 0.79398207E+03 0.11511026E+04 0.98839326E+02 0.0000E+00 0.0000E+00
       24  1    3    3    0    0 -.26314123E+03 0.10213090E+03 -.93097137E+02 0.30790960E+03 0.80419002E+02 0.0000E+00 0.9000E+01
      -11  1    4    4    0    0 0.86165008E+02 -.54973998E+01 0.45418270E+02 0.97557415E+02 0.51099893E-03 0.0000E+00 0.9000E+01
       11  1    4    4    0    0 0.74134794E+03 -.36049579E+01 0.74856380E+03 0.10535452E+04 0.51099893E-03 0.0000E+00 0.9000E+01
      -24  1    3    3    0    0 -.56437172E+03 -.93028545E+02 -.38989689E+03 0.69689063E+03 0.80419002E+02 0.0000E+00 0.9000E+01
#aMCatNLO 1  0  0  2  1 0.11435644D+04 0.00000000D+00  -5  7  0 0.00000000D+00 0.00000000D+00 0.00000000D+00 0.00000000D+00 0.00000000D+00
  <mgrwgt>
 0.8953973636D-03    5    2    0
 0.106667750641450D+04 0.000000000000000D+00 0.000000000000000D+00 0.106667750641450D+04
 0.106667750641450D+04 0.000000000000000D+00 0.000000000000000D+00 -.106667750641450D+04
 0.324735116194787D+03 -.263141232197236D+03 0.102130903000443D+03 -.138966363936406D+03
 0.919677084070175D+02 0.861650076425629D+02 -.549739977045290D+01 0.316769544520788D+02
 0.955559089182138D+03 0.741347944709006D+03 -.360495785970962D+01 0.602895846787122D+03
 0.761093099045058D+03 -.564371720154333D+03 -.930285453702809D+02 -.495606437302795D+03
 0.000000000000000D+00 0.000000000000000D+00 -.000000000000000D+00 -.000000000000000D+00
 0.168014218357678D+04 0.000000000000000D+00 0.000000000000000D+00 0.168014218357678D+04
 0.190604714659073D+04 0.000000000000000D+00 0.000000000000000D+00 -.190604714659073D+04
 0.519354760696489D+03 -.454661075926144D+03 0.192960636492814D+03 -.138966363936406D+03
 0.613522039390653D+02 0.513774732141243D+02 0.110008513740304D+02 0.316769544520788D+02
 0.724299721091706D+03 0.360196238429607D+03 0.177159119780848D+03 0.602895846787122D+03
 0.111551867864951D+04 -.990165707552414D+03 0.108907471519773D+03 -.495606437302795D+03
 0.116566396579074D+04 0.103325307183483D+04 -.490028079167466D+03 -.225904963013953D+03
0.117736520528D-02 0.000000000000D+00 0.000000000000D+00 0.594802362496D-07 0.000000000000D+00  7 2 -2 24 -11 11 -24 21 0 0.18976084D+00 0.14191652D+00 0.72148746D+06 0.72148746D+06 0.72148746D+06 0.10574336D+01  1  2  2  2  7  2       -2 0.879916389276D-03 0.100000000000D+01
-.612833725613D-04 0.000000000000D+00 -.452139239565D-05 0.594802362496D-07 0.000000000000D+00  7 2 -2 24 -11 11 -24 21 2 0.18976084D+00 0.14191652D+00 0.72148746D+06 0.72148746D+06 0.72148746D+06 0.10574336D+01  1  2  3  2  7  2       -2 -.512128674988D-04 0.100000000000D+01
0.731424680732D-04 0.000000000000D+00 0.000000000000D+00 0.594802362496D-07 0.000000000000D+00  7 2 -2 24 -11 11 -24 21 2 0.18976084D+00 0.14191652D+00 0.72148746D+06 0.72148746D+06 0.72148746D+06 0.10574336D+01  1  2 15  2  7  2       -2 0.611231949126D-04 0.100000000000D+01
-.500056919300D-05 0.000000000000D+00 -.312675888450D-03 0.594802362496D-07 0.000000000000D+00  7 2 -2 24 -11 11 -24 21 2 0.18976084D+00 0.32938410D+00 0.72148746D+06 0.72148746D+06 0.72148746D+06 0.10574336D+01  1  2  5  2  7  2       -2 -.216194153305D-06 0.100000000000D+01
0.193099952897D-04 0.000000000000D+00 -.286810679643D-04 0.594802362496D-07 0.000000000000D+00  7 2 21 24 -11 11 -24 2 2 0.18976084D+00 0.32938410D+00 0.72148746D+06 0.72148746D+06 0.72148746D+06 0.10574336D+01  1  2  5  4  7  2       -2 0.578684104101D-05 0.100000000000D+01
  </mgrwgt>
  </event>
  <event>
  8     66 0.26993063E-05 0.38036735E+03 0.75467711E-02 0.89929852E-01
        2 -1    0    0  501    0 0.00000000E+00 0.00000000E+00 0.61704480E+03 0.61704488E+03 0.32000000E+00 0.0000E+00 0.9000E+01
       -2 -1    0    0    0  501 0.00000000E+00 0.00000000E+00 -.33355275E+03 0.33355291E+03 0.32000000E+00 0.0000E+00 0.9000E+01
       25  2    1    2    0    0 -.34843466E+03 -.94997000E+02 0.33276435E+03 0.57534588E+03 0.29976596E+03 0.0000E+00 0.0000E+00
       23  2    1    2    0    0 0.34843466E+03 0.94997000E+02 -.49272300E+02 0.37525191E+03 0.89191348E+02 0.0000E+00 0.0000E+00
       24  1    3    3    0    0 -.14923159E+03 -.43629136E+02 0.30642956E+03 0.35290205E+03 0.80419002E+02 0.0000E+00 0.9000E+01
      -13  1    4    4    0    0 0.12181234E+03 0.80400995E+01 0.17932539E+02 0.12338750E+03 0.10565837E+00 0.0000E+00 0.9000E+01
       13  1    4    4    0    0 0.22662232E+03 0.86956900E+02 -.67204839E+02 0.25186441E+03 0.10565837E+00 0.0000E+00 0.9000E+01
      -24  1    3    3    0    0 -.19920307E+03 -.51367863E+02 0.26334790E+02 0.22244383E+03 0.80419002E+02 0.0000E+00 0.9000E+01
#aMCatNLO 1  0  0  1  1 0.61406457D+03 0.00000000D+00  -5  7  0 0.00000000D+00 0.00000000D+00 0.00000000D+00 0.00000000D+00 0.00000000D+00
  <mgrwgt>
 0.8803616505D-03    3    2    0
 0.453670701088894D+03 0.000000000000000D+00 0.000000000000000D+00 0.453670701088894D+03
 0.453670701088894D+03 0.000000000000000D+00 0.000000000000000D+00 -.453670701088894D+03
 0.273984598858353D+03 -.149231593643520D+03 -.436291364413105D+02 0.210776598248484D+03
 0.123666735069086D+03 0.121812188805965D+03 0.803998875725508D+01 -.197638711220947D+02
 0.284869614231578D+03 0.226622470087142D+03 0.869570108859999D+02 -.149102083894969D+03
 0.224820454018771D+03 -.199203065249586D+03 -.513678632019444D+02 -.419106432314201D+02
 0.000000000000000D+00 -.000000000000000D+00 0.000000000000000D+00 -.000000000000000D+00
 0.667415295720491D+03 0.000000000000000D+00 0.000000000000000D+00 0.667415295720491D+03
 0.133590764129317D+04 0.000000000000000D+00 0.000000000000000D+00 -.133590764129317D+04
 0.233856141040058D+03 0.544990656220011D+01 -.613596194336107D+02 0.210776598248484D+03
 0.230609142072615D+03 0.229719884777615D+03 -.432901183828536D+01 -.197638711220947D+02
 0.489648502361584D+03 0.462530334105898D+03 0.599158950113056D+02 -.149102083894969D+03
 0.141488204818285D+03 -.876303448361044D+02 -.641569699733743D+02 -.419106432314201D+02
 0.907720946721122D+03 -.610069780609609D+03 0.699297062339647D+02 -.668492345572681D+03
0.403497554802D-04 0.000000000000D+00 0.000000000000D+00 0.857517931800D-06 0.000000000000D+00  7 2 -2 24 -13 13 -24 21 0 0.94929988D-01 0.51315826D-01 0.14467932D+06 0.14467932D+06 0.14467932D+06 0.11087918D+01  1  2  2  1  7  1        2 0.869780412769D-03 0.100000000000D+01
-.215700251678D-05 0.000000000000D+00 -.154953685378D-06 0.857517931800D-06 0.000000000000D+00  7 2 -2 24 -13 13 -24 21 2 0.94929988D-01 0.51315826D-01 0.14467932D+06 0.14467932D+06 0.14467932D+06 0.11087918D+01  1  2  3  1  7  1        2 -.571635726311D-04 0.100000000000D+01
0.255627351075D-05 0.000000000000D+00 0.000000000000D+00 0.857517931800D-06 0.000000000000D+00  7 2 -2 24 -13 13 -24 21 2 0.94929988D-01 0.51315826D-01 0.14467932D+06 0.14467932D+06 0.14467932D+06 0.11087918D+01  1  2 15  1  7  1        2 0.677448103837D-04 0.100000000000D+01
  </mgrwgt>
  </event>
  <event>
  8     66 0.26993063E-05 0.24601627E+03 0.75467711E-02 0.96227565E-01
        2 -1    0    0  501    0 0.00000000E+00 0.00000000E+00 0.82077573E+02 0.82078197E+02 0.32000000E+00 0.0000E+00 0.9000E+01
       -2 -1    0    0    0  501 0.00000000E+00 0.00000000E+00 -.16084575E+04 0.16084576E+04 0.32000000E+00 0.0000E+00 0.9000E+01
       25  2    1    2    0    0 0.12762236E+03 0.26358368E+03 -.88168835E+03 0.97664184E+03 0.30114963E+03 0.0000E+00 0.0000E+00
       23  2    1    2    0    0 -.12762236E+03 -.26358368E+03 -.64469162E+03 0.71389394E+03 0.90848497E+02 0.0000E+00 0.0000E+00
       24  1    3    3    0    0 0.88449777E+02 0.29942146E+03 -.70966366E+03 0.77946539E+03 0.80419002E+02 0.0000E+00 0.9000E+01
      -11  1    4    4    0    0 -.10561429E+03 -.25263309E+03 -.52952442E+03 0.59613251E+03 0.51099893E-03 0.0000E+00 0.9000E+01
       11  1    4    4    0    0 -.22008067E+02 -.10950588E+02 -.11516720E+03 0.11776143E+03 0.51099893E-03 0.0000E+00 0.9000E+01
      -24  1    3    3    0    0 0.39172584E+02 -.35837783E+02 -.17202469E+03 0.19717644E+03 0.80419002E+02 0.0000E+00 0.9000E+01
#aMCatNLO 1  0  0  1  2 0.14110043D+03 0.00000000D+00  -5  7  0 0.00000000D+00 0.00000000D+00 0.00000000D+00 0.00000000D+00 0.00000000D+00
  <mgrwgt>
 0.8378964145D-03    7    2    0
 0.363343977351158D+03 0.000000000000000D+00 0.000000000000000D+00 0.363343977351158D+03
 0.363343977351158D+03 0.000000000000000D+00 0.000000000000000D+00 -.363343977351158D+03
 0.322693852385509D+03 0.884497765510764D+02 0.299421460895917D+03 -.136942395206644D+02
 0.274571585207410D+03 -.105614293959311D+03 -.252633090125927D+03 0.202903447041064D+02
 0.320508993412774D+02 -.220080670301855D+02 -.109505878313418D+02 -.205667148647426D+02
 0.973716177681187D+02 0.391725844384202D+02 -.358377829386481D+02 0.139706096813007D+02
 0.000000000000000D+00 -.000000000000000D+00 -.000000000000000D+00 0.000000000000000D+00
 0.697369473675478D+03 0.000000000000000D+00 0.000000000000000D+00 0.697369473675478D+03
 0.385340008724338D+03 0.000000000000000D+00 0.000000000000000D+00 -.385340008724338D+03
 0.357891124954649D+03 0.152408750683570D+03 0.313373390519932D+03 -.136942395206644D+02
 0.249209083841513D+03 -.563912352992068D+02 -.241895634442509D+03 0.202903447041064D+02
 0.280212229781912D+02 -.163627009915011D+02 -.971911483256661D+01 -.205667148647426D+02
 0.105138465200615D+03 0.582037673022947D+02 -.316863448085040D+02 0.139706096813007D+02
 0.342449585424848D+03 -.137858581695157D+03 -.300722964363522D+02 0.312029464951139D+03
0.268408706788D-03 0.000000000000D+00 0.000000000000D+00 0.413006244781D-06 0.000000000000D+00  7 2 -2 24 -11 11 -24 21 0 0.12627369D-01 0.24745506D+00 0.12858323D+06 0.12858323D+06 0.12858323D+06 0.11128708D+01  1  2  2  1  7  1        2 0.103712521123D-02 0.100000000000D+01
-.149084433829D-04 0.000000000000D+00 -.103076010770D-05 0.413006244781D-06 0.000000000000D+00  7 2 -2 24 -11 11 -24 21 2 0.12627369D-01 0.24745506D+00 0.12858323D+06 0.12858323D+06 0.12858323D+06 0.11128708D+01  1  2  3  1  7  1        2 -.713438276228D-04 0.100000000000D+01
0.175370367252D-04 0.000000000000D+00 0.000000000000D+00 0.413006244781D-06 0.000000000000D+00  7 2 -2 24 -11 11 -24 21 2 0.12627369D-01 0.24745506D+00 0.12858323D+06 0.12858323D+06 0.12858323D+06 0.11128708D+01  1  2 15  1  7  1        2 0.839228679348D-04 0.100000000000D+01
0.486816199305D-03 0.000000000000D+00 0.000000000000D+00 0.413006244781D-06 0.000000000000D+00  7 2 -2 24 -11 11 -24 21 2 0.24288381D-01 0.24745506D+00 0.18937677D+06 0.18937677D+06 0.18937677D+06 0.10996505D+01  1  2 12  1  7  1        2 0.101664208458D-02 0.100000000000D+01
-.583430897302D-03 0.000000000000D+00 -.943683760306D-04 0.413006244781D-06 0.000000000000D+00  7 2 -2 24 -11 11 -24 21 2 0.25513252D-01 0.24745506D+00 0.12858323D+06 0.12858323D+06 0.12858323D+06 0.11128708D+01  1  2  5  1  7  1        2 -.119750309439D-02 0.100000000000D+01
0.345532029058D-04 0.000000000000D+00 0.000000000000D+00 0.413006244781D-06 0.000000000000D+00  7 21 -2 24 -11 11 -24 -2 2 0.24288381D-01 0.24745506D+00 0.18937677D+06 0.18937677D+06 0.18937677D+06 0.10996505D+01  1  2 12  3  7  1        2 0.433254777239D-03 0.100000000000D+01
-.386776336907D-04 0.000000000000D+00 -.717902550912D-05 0.413006244781D-06 0.000000000000D+00  7 21 -2 24 -11 11 -24 -2 2 0.25513252D-01 0.24745506D+00 0.12858323D+06 0.12858323D+06 0.12858323D+06 0.11128708D+01  1  2  5  3  7  1        2 -.464201604467D-03 0.100000000000D+01
  </mgrwgt>
  </event>
  <event>
  8     66 0.26993063E-05 0.18540505E+03 0.75467711E-02 0.94327207E-01
        2 -1    0    0  501    0 0.00000000E+00 0.00000000E+00 0.36795848E+04 0.36795848E+04 0.32000000E+00 0.0000E+00 0.9000E+01
       -2 -1    0    0    0  501 0.00000000E+00 0.00000000E+00 -.12030302E+03 0.12030344E+03 0.32000000E+00 0.0000E+00 0.9000E+01
       25  2    1    2    0    0 -.10495154E+02 0.31160107E+03 0.34187536E+04 0.34460440E+04 0.30022852E+03 0.0000E+00 0.0000E+00
       23  2    1    2    0    0 0.10495154E+02 -.31160107E+03 0.14052815E+03 0.35384430E+03 0.90841921E+02 0.0000E+00 0.0000E+00
       24  1    3    3    0    0 0.97800768E+02 0.24072909E+03 0.18468035E+04 0.18667260E+04 0.80419002E+02 0.0000E+00 0.9000E+01
      -11  1    4    4    0    0 -.20375434E+02 -.13024854E+03 0.18583850E+02 0.13313602E+03 0.51099893E-03 0.0000E+00 0.9000E+01
       11  1    4    4    0    0 0.30870588E+02 -.18135253E+03 0.12194430E+03 0.22070828E+03 0.51099893E-03 0.0000E+00 0.9000E+01
      -24  1    3    3    0    0 -.10829592E+03 0.70871980E+02 0.15719501E+04 0.15793180E+04 0.80419002E+02 0.0000E+00 0.9000E+01
#aMCatNLO 1  0  0  2  1 0.24138004D+03 0.00000000D+00  -5  7  0 0.00000000D+00 0.00000000D+00 0.00000000D+00 0.00000000D+00 0.00000000D+00
  <mgrwgt>
 0.3876066527D-03    9    2    0
 0.665331491453584D+03 0.000000000000000D+00 0.000000000000000D+00 0.665331491453584D+03
 0.665331491453584D+03 0.000000000000000D+00 0.000000000000000D+00 -.665331491453584D+03
 0.390824782057487D+03 0.978007684599089D+02 0.240729091134638D+03 0.280644452441258D+03
 0.330479515768390D+03 -.203754335428945D+02 -.130248544097425D+03 -.303045984647462D+03
 0.304083512582286D+03 0.308705878326476D+02 -.181352526654264D+03 -.242126104555792D+03
 0.305275172499006D+03 -.108295922749662D+03 0.708719796170507D+02 0.264527636761997D+03
 0.000000000000000D+00 -.000000000000000D+00 0.000000000000000D+00 -.000000000000000D+00
 0.727970084928238D+03 0.000000000000000D+00 0.000000000000000D+00 0.727970084928238D+03
 0.957492627092259D+03 0.000000000000000D+00 0.000000000000000D+00 -.957492627092259D+03
 0.354101842639096D+03 0.998638787186098D+02 0.173743477711406D+03 0.280644452441258D+03
 0.359374668391375D+03 -.184648490676417D+02 -.192281909755885D+03 -.303045984647462D+03
 0.342099851482131D+03 0.326602238628354D+02 -.239458905981722D+03 -.242126104555792D+03
 0.296802393130262D+03 -.106628439858056D+03 0.167317009305827D+02 0.264527636761997D+03
 0.333083956377632D+03 -.743081365574760D+01 0.241265637095618D+03 -.229522542164021D+03
0.311688289323D-03 0.000000000000D+00 0.000000000000D+00 0.914940435629D-05 0.000000000000D+00  7 2 -2 24 -11 11 -24 21 0 0.56609000D+00 0.18508190D-01 0.13696150D+06 0.13696150D+06 0.13696150D+06 0.11106820D+01  1  2  2  2  7  2       -2 0.579164274058D-03 0.100000000000D+01
-.100724713804D-04 0.000000000000D+00 -.119696510041D-05 0.914940435629D-05 0.000000000000D+00  7 2 -2 24 -11 11 -24 21 2 0.56609000D+00 0.18508190D-01 0.13696150D+06 0.13696150D+06 0.13696150D+06 0.11106820D+01  1  2  3  2  7  2       -2 -.230885561802D-04 0.100000000000D+01
0.189267067370D-04 0.000000000000D+00 0.000000000000D+00 0.914940435629D-05 0.000000000000D+00  7 2 -2 24 -11 11 -24 21 2 0.56609000D+00 0.18508190D-01 0.13696150D+06 0.13696150D+06 0.13696150D+06 0.11106820D+01  1  2 15  2  7  2       -2 0.433846188587D-04 0.100000000000D+01
0.808456334808D-04 0.000000000000D+00 0.000000000000D+00 0.914940435629D-05 0.000000000000D+00  7 2 -2 24 -11 11 -24 21 2 0.56609000D+00 0.27206272D-01 0.26355568D+06 0.26355568D+06 0.26355568D+06 0.10887381D+01  1  2 12  2  7  2       -2 0.883737907211D-04 0.100000000000D+01
-.277111134645D-03 0.000000000000D+00 0.000000000000D+00 0.914940435629D-05 0.000000000000D+00  7 2 -2 24 -11 11 -24 21 2 0.56609000D+00 0.18508190D-01 0.13696150D+06 0.13696150D+06 0.13696150D+06 0.11106820D+01  1  2  4  2  7  2       -2 -.635206173220D-03 0.100000000000D+01
-.208383848397D-03 0.000000000000D+00 -.110517454013D-03 0.914940435629D-05 0.000000000000D+00  7 2 -2 24 -11 11 -24 21 2 0.56609000D+00 0.30969755D-01 0.13696150D+06 0.13696150D+06 0.13696150D+06 0.11106820D+01  1  2  5  2  7  2       -2 -.198760000876D-03 0.100000000000D+01
0.245242069544D-03 0.000000000000D+00 0.973326965356D-04 0.914940435629D-05 0.000000000000D+00  7 2 -2 24 -11 11 -24 21 2 0.56609000D+00 0.18508190D-01 0.13696150D+06 0.13696150D+06 0.13696150D+06 0.11106820D+01  1  2  6  2  7  2       -2 0.562154518646D-03 0.100000000000D+01
0.374381612734D-05 0.000000000000D+00 0.000000000000D+00 0.914940435629D-05 0.000000000000D+00  7 2 21 24 -11 11 -24 2 2 0.56609000D+00 0.27206272D-01 0.26355568D+06 0.26355568D+06 0.26355568D+06 0.10887381D+01  1  2 12  4  7  2       -2 0.482947395660D-04 0.100000000000D+01
-.687722603306D-05 0.000000000000D+00 -.637802335977D-05 0.914940435629D-05 0.000000000000D+00  7 2 21 24 -11 11 -24 2 2 0.56609000D+00 0.30969755D-01 0.13696150D+06 0.13696150D+06 0.13696150D+06 0.11106820D+01  1  2  5  4  7  2       -2 -.767105589235D-04 0.100000000000D+01
  </mgrwgt>
  </event>
  <event>
  7     66 0.26993063E-05 0.23275550E+03 0.75467711E-02 0.10230721E+00
        2 -1    0    0  501    0 0.00000000E+00 0.00000000E+00 0.13742675E+04 0.13742676E+04 0.32000000E+00 0.0000E+00 0.9000E+01
       -2 -1    0    0    0  501 0.00000000E+00 0.00000000E+00 -.41680767E+02 0.41681996E+02 0.32000000E+00 0.0000E+00 0.9000E+01
       25  2    1    2    0    0 -.31419561E+01 0.48081160E+02 0.80708415E+03 0.86238860E+03 0.30001266E+03 0.0000E+00 0.0000E+00
       24  1    3    3    0    0 0.10625576E+03 -.29801105E+02 0.26435563E+03 0.29753908E+03 0.80419002E+02 0.0000E+00 0.9000E+01
      -11  1    1    2    0    0 -.81214299E+02 -.25097034E+02 0.22205904E+03 0.23777266E+03 0.51099893E-03 0.0000E+00 0.9000E+01
       11  1    1    2    0    0 0.84356255E+02 -.22984126E+02 0.30344356E+03 0.31578829E+03 0.51099893E-03 0.0000E+00 0.9000E+01
      -24  1    3    3    0    0 -.10939772E+03 0.77882265E+02 0.54272853E+03 0.56484952E+03 0.80419002E+02 0.0000E+00 0.9000E+01
#aMCatNLO 1  0  0  1  1 0.64449867D+02 0.00000000D+00  -5  7  0 0.00000000D+00 0.00000000D+00 0.00000000D+00 0.00000000D+00 0.00000000D+00
  <mgrwgt>
 0.9560214315D-03    4    2    0
 0.239335372904278D+03 0.000000000000000D+00 0.000000000000000D+00 0.239335372904278D+03
 0.239335372904278D+03 0.000000000000000D+00 0.000000000000000D+00 -.239335372904278D+03
 0.144198216331767D+03 0.106255713472130D+03 -.298003736994383D+02 -.463418894823569D+02
 0.851547128351221D+02 -.812138761294723D+02 -.250977797386320D+02 -.507276002290037D+01
 0.893628545703239D+02 0.843559330764311D+02 -.229849231822014D+02 0.184794382509272D+02
 0.159954962071343D+03 -.109397770419089D+03 0.778830766202717D+02 0.329352112543300D+02
 0.000000000000000D+00 -.000000000000000D+00 0.000000000000000D+00 -.000000000000000D+00
 0.247237125577977D+03 0.000000000000000D+00 0.000000000000000D+00 0.247237125577977D+03
 0.422344185356272D+03 0.000000000000000D+00 0.000000000000000D+00 -.422344185356272D+03
 0.160313222546201D+03 0.126274210131013D+03 -.337693130485528D+02 -.463418894823569D+02
 0.758541825292347D+02 -.706291964675913D+02 -.271963365045903D+02 -.507276002290037D+01
 0.101912216176927D+03 0.969303026265216D+02 -.254779630416913D+02 0.184794382509272D+02
 0.144910511461079D+03 -.893559996212336D+02 0.739095228564208D+02 0.329352112543300D+02
 0.186591178220806D+03 -.632193166687096D+02 0.125340897384136D+02 -.175107059778295D+03
0.432586428320D-05 0.000000000000D+00 0.000000000000D+00 0.399071313176D-09 0.000000000000D+00  7 2 -2 24 -11 11 -24 21 0 0.21142587D+00 0.64125231D-02 0.54175125D+05 0.54175125D+05 0.54175125D+05 0.11442443D+01  1  2  2  1  7  1        2 0.997603932999D-03 0.100000000000D+01
-.240098712269D-06 0.000000000000D+00 -.166124578737D-07 0.399071313176D-09 0.000000000000D+00  7 2 -2 24 -11 11 -24 21 2 0.21142587D+00 0.64125231D-02 0.54175125D+05 0.54175125D+05 0.54175125D+05 0.11442443D+01  1  2  3  1  7  1        2 -.724957615390D-04 0.100000000000D+01
0.277063511571D-06 0.000000000000D+00 0.000000000000D+00 0.399071313176D-09 0.000000000000D+00  7 2 -2 24 -11 11 -24 21 2 0.21142587D+00 0.64125231D-02 0.54175125D+05 0.54175125D+05 0.54175125D+05 0.11442443D+01  1  2 15  1  7  1        2 0.836569679037D-04 0.100000000000D+01
-.174681885859D-06 0.000000000000D+00 0.000000000000D+00 0.399071313176D-09 0.000000000000D+00  7 2 -2 24 -11 11 -24 21 2 0.21142587D+00 0.64125231D-02 0.54175125D+05 0.54175125D+05 0.54175125D+05 0.11442443D+01  1  2  4  1  7  1        2 -.527437078805D-04 0.100000000000D+01
  </mgrwgt>
  </event>
  <event>
  7     66 0.26993063E-05 0.38725380E+03 0.75467711E-02 0.91152318E-01
        2 -1    0    0  501    0 0.00000000E+00 0.00000000E+00 0.40470620E+03 0.40470632E+03 0.32000000E+00 0.0000E+00 0.9000E+01
       -2 -1    0    0    0  501 0.00000000E+00 0.00000000E+00 -.47394396E+03 0.47394407E+03 0.32000000E+00 0.0000E+00 0.9000E+01
       25  2    1    2    0    0 0.23645983E+03 0.22362037E+03 0.14201451E+03 0.46466194E+03 0.29970531E+03 0.0000E+00 0.0000E+00
       24  1    3    3    0    0 0.25425912E+03 0.23890579E+03 0.10532418E+03 0.37320782E+03 0.80419002E+02 0.0000E+00 0.9000E+01
      -11  1    1    2    0    0 -.22745346E+03 -.18543152E+03 -.12450664E+03 0.31878179E+03 0.51099893E-03 0.0000E+00 0.9000E+01
       11  1    1    2    0    0 -.90063692E+01 -.38188851E+02 -.86745639E+02 0.95206664E+02 0.51099893E-03 0.0000E+00 0.9000E+01
      -24  1    3    3    0    0 -.17799295E+02 -.15285420E+02 0.36690331E+02 0.91454116E+02 0.80419002E+02 0.0000E+00 0.9000E+01
#aMCatNLO 1  0  0  1  2 0.46277421D+03 0.00000000D+00  -5  7  0 0.00000000D+00 0.00000000D+00 0.00000000D+00 0.00000000D+00 0.00000000D+00
  <mgrwgt>
 0.1330556091D-02    5    2    0
 0.437959085415646D+03 0.000000000000000D+00 0.000000000000000D+00 0.437959085415646D+03
 0.437959085415646D+03 0.000000000000000D+00 0.000000000000000D+00 -.437959085415646D+03
 0.382697405335967D+03 0.254259125143855D+03 0.238905793448791D+03 0.135153273116843D+03
 0.309934410463866D+03 -.227453459342513D+03 -.185431522390406D+03 -.996966053919786D+02
 0.886467485040151D+02 -.900637118559614D+01 -.381888514955791D+02 -.794905209433802D+02
 0.946396065274441D+02 -.177992946157453D+02 -.152854195628061D+02 0.440338532185158D+02
 0.000000000000000D+00 -.000000000000000D+00 0.000000000000000D+00 0.000000000000000D+00
 0.984184815375251D+03 0.000000000000000D+00 0.000000000000000D+00 0.984184815375251D+03
 0.604846735466337D+03 0.000000000000000D+00 0.000000000000000D+00 -.604846735466337D+03
 0.411074385190074D+03 0.371152887890940D+03 0.805857355928825D+02 0.135153273116843D+03
 0.357967454298047D+03 -.129095766300695D+03 -.318646462922746D+03 -.996966053919786D+02
 0.113663491139342D+03 0.207865811924471D+02 -.785402084314971D+02 -.794905209433802D+02
 0.107947287637428D+03 0.120343989279415D+02 -.556919560356832D+02 0.440338532185158D+02
 0.598378932576698D+03 -.274878101710634D+03 0.372292891797043D+03 0.379338079908915D+03
0.826421294572D-04 0.000000000000D+00 0.000000000000D+00 0.280791224118D-08 0.000000000000D+00  7 2 -2 24 -11 11 -24 21 0 0.62262510D-01 0.72914474D-01 0.14996550D+06 0.14996550D+06 0.14996550D+06 0.11075598D+01  1  2  2  1  7  1        2 0.138168027468D-02 0.100000000000D+01
-.450671322644D-05 0.000000000000D+00 -.317367537288D-06 0.280791224118D-08 0.000000000000D+00  7 2 -2 24 -11 11 -24 21 2 0.62262510D-01 0.72914474D-01 0.14996550D+06 0.14996550D+06 0.14996550D+06 0.11075598D+01  1  2  3  1  7  1        2 -.924273145437D-04 0.100000000000D+01
0.522601246159D-05 0.000000000000D+00 0.000000000000D+00 0.280791224118D-08 0.000000000000D+00  7 2 -2 24 -11 11 -24 21 2 0.62262510D-01 0.72914474D-01 0.14996550D+06 0.14996550D+06 0.14996550D+06 0.11075598D+01  1  2 15  1  7  1        2 0.107179284176D-03 0.100000000000D+01
-.115417093814D-04 0.000000000000D+00 -.272014221753D-04 0.280791224118D-08 0.000000000000D+00  7 2 -2 24 -11 11 -24 21 2 0.17403956D+00 0.72914474D-01 0.14996550D+06 0.14996550D+06 0.14996550D+06 0.11075598D+01  1  2  5  1  7  1        2 -.665181041739D-04 0.100000000000D+01
0.189126450611D-06 0.000000000000D+00 -.313903750145D-05 0.280791224118D-08 0.000000000000D+00  7 21 -2 24 -11 11 -24 -2 2 0.17403956D+00 0.72914474D-01 0.14996550D+06 0.14996550D+06 0.14996550D+06 0.11075598D+01  1  2  5  3  7  1        2 0.641950526618D-06 0.100000000000D+01
  </mgrwgt>
  </event>
  <event>
  8     66 0.26993063E-05 0.21451568E+03 0.75467711E-02 0.98614449E-01
        2 -1    0    0  501    0 0.00000000E+00 0.00000000E+00 0.11661843E+04 0.11661843E+04 0.32000000E+00 0.0000E+00 0.9000E+01
       -2 -1    0    0    0  501 0.00000000E+00 0.00000000E+00 -.14281236E+03 0.14281272E+03 0.32000000E+00 0.0000E+00 0.9000E+01
       25  2    1    2    0    0 -.13332648E+03 -.25566520E+03 0.88218122E+03 0.97532807E+03 0.29980074E+03 0.0000E+00 0.0000E+00
       23  2    1    2    0    0 0.13332648E+03 0.25566520E+03 0.14119071E+03 0.33366898E+03 0.90881953E+02 0.0000E+00 0.0000E+00
       24  1    3    3    0    0 -.15697988E+03 -.24562505E+03 0.50331216E+03 0.58716667E+03 0.80419002E+02 0.0000E+00 0.9000E+01
      -11  1    4    4    0    0 0.83462694E+02 0.22541195E+03 0.92004979E+02 0.25737421E+03 0.51099893E-03 0.0000E+00 0.9000E+01
       11  1    4    4    0    0 0.49863782E+02 0.30253249E+02 0.49185728E+02 0.76294768E+02 0.51099893E-03 0.0000E+00 0.9000E+01
      -24  1    3    3    0    0 0.23653404E+02 -.10040150E+02 0.37886907E+03 0.38816140E+03 0.80419002E+02 0.0000E+00 0.9000E+01
#aMCatNLO 1  0  0  1  2 0.27379828D+02 0.00000000D+00  -5  7  0 0.00000000D+00 0.00000000D+00 0.00000000D+00 0.00000000D+00 0.00000000D+00
  <mgrwgt>
 0.1111213864D-02    9    2    0
 0.408100222611567D+03 0.000000000000000D+00 0.000000000000000D+00 0.408100222611567D+03
 0.408100222611567D+03 0.000000000000000D+00 0.000000000000000D+00 -.408100222611567D+03
 0.310614750801331D+03 -.156979880132979D+03 -.245625051847320D+03 0.709926658144288D+02
 0.297410735145361D+03 0.834626940376011D+02 0.225411953575243D+03 -.175147295922839D+03
 0.606889319118845D+02 0.498637821879000D+02 0.302532487585187D+02 -.167776822618085D+02
 0.147486027364558D+03 0.236534039074779D+02 -.100401504864424D+02 0.120932312370218D+03
 0.000000000000000D+00 -.000000000000000D+00 0.000000000000000D+00 0.000000000000000D+00
 0.430339744949327D+03 0.000000000000000D+00 0.000000000000000D+00 0.430339744949327D+03
 0.416844723169706D+03 0.000000000000000D+00 0.000000000000000D+00 -.416844723169706D+03
 0.310639394332662D+03 -.148117137353793D+03 -.251099526840795D+03 0.709926658144288D+02
 0.295986269299098D+03 0.919280299351932D+02 0.220182954964162D+03 -.175147295922839D+03
 0.616128398036008D+02 0.516085257081534D+02 0.291755288009807D+02 -.167776822618085D+02
 0.148421047266719D+03 0.278747814379776D+02 -.126476757531139D+02 0.120932312370218D+03
 0.305249174169534D+02 -.232941997275310D+02 0.143887188287660D+02 0.134950217796205D+02
0.115605731059D-04 0.000000000000D+00 0.000000000000D+00 0.330276025332D-05 0.000000000000D+00  7 2 -2 24 -11 11 -24 21 0 0.17941300D+00 0.21971163D-01 0.11748061D+06 0.11748061D+06 0.11748061D+06 0.11160253D+01  1  2  2  1  7  1        2 0.501792203088D-03 0.100000000000D+01
-.618476260035D-06 0.000000000000D+00 -.443956446953D-07 0.330276025332D-05 0.000000000000D+00  7 2 -2 24 -11 11 -24 21 2 0.17941300D+00 0.21971163D-01 0.11748061D+06 0.11748061D+06 0.11748061D+06 0.11160253D+01  1  2  3  1  7  1        2 -.334361051847D-04 0.100000000000D+01
0.731805504845D-06 0.000000000000D+00 0.000000000000D+00 0.330276025332D-05 0.000000000000D+00  7 2 -2 24 -11 11 -24 21 2 0.17941300D+00 0.21971163D-01 0.11748061D+06 0.11748061D+06 0.11748061D+06 0.11160253D+01  1  2 15  1  7  1        2 0.395629184431D-04 0.100000000000D+01
0.375140123377D-04 0.000000000000D+00 0.000000000000D+00 0.330276025332D-05 0.000000000000D+00  7 2 -2 24 -11 11 -24 21 2 0.19103732D+00 0.21971163D-01 0.12735372D+06 0.12735372D+06 0.12735372D+06 0.11132052D+01  1  2 12  1  7  1        2 0.182461375145D-02 0.100000000000D+01
-.363008799466D-04 0.000000000000D+00 0.000000000000D+00 0.330276025332D-05 0.000000000000D+00  7 2 -2 24 -11 11 -24 21 2 0.17941300D+00 0.21971163D-01 0.11748061D+06 0.11748061D+06 0.11748061D+06 0.11160253D+01  1  2  4  1  7  1        2 -.196250061421D-02 0.100000000000D+01
-.132661447401D-03 0.000000000000D+00 -.215155775571D-04 0.330276025332D-05 0.000000000000D+00  7 2 -2 24 -11 11 -24 21 2 0.19151321D+00 0.21971163D-01 0.11748061D+06 0.11748061D+06 0.11748061D+06 0.11160253D+01  1  2  5  1  7  1        2 -.646948656954D-02 0.100000000000D+01
0.133826304171D-03 0.000000000000D+00 0.214698337622D-04 0.330276025332D-05 0.000000000000D+00  7 2 -2 24 -11 11 -24 21 2 0.17941300D+00 0.21971163D-01 0.11748061D+06 0.11748061D+06 0.11748061D+06 0.11160253D+01  1  2  6  1  7  1        2 0.723492666071D-02 0.100000000000D+01
0.466401312777D-06 0.000000000000D+00 0.000000000000D+00 0.330276025332D-05 0.000000000000D+00  7 21 -2 24 -11 11 -24 -2 2 0.19103732D+00 0.21971163D-01 0.12735372D+06 0.12735372D+06 0.12735372D+06 0.11132052D+01  1  2 12  3  7  1        2 0.115303890472D-04 0.100000000000D+01
-.144421837908D-05 0.000000000000D+00 -.239359354153D-06 0.330276025332D-05 0.000000000000D+00  7 21 -2 24 -11 11 -24 -2 2 0.19151321D+00 0.21971163D-01 0.11748061D+06 0.11748061D+06 0.11748061D+06 0.11160253D+01  1  2  5  3  7  1        2 -.357887693229D-04 0.100000000000D+01
  </mgrwgt>
  </event>
  <event>
  8     66 0.26993063E-05 0.30225708E+03 0.75467711E-02 0.93137289E-01
        2 -1    0    0  501    0 0.00000000E+00 0.00000000E+00 0.31052885E+03 0.31052902E+03 0.32000000E+00 0.0000E+00 0.9000E+01
       -2 -1    0    0    0  501 0.00000000E+00 0.00000000E+00 -.47115404E+03 0.47115415E+03 0.32000000E+00 0.0000E+00 0.9000E+01
       25  2    1    2    0    0 0.16114761E+03 0.20568476E+03 0.89806699E+02 0.40774912E+03 0.29986552E+03 0.0000E+00 0.0000E+00
       23  2    1    2    0    0 -.16114761E+03 -.20568476E+03 -.25043188E+03 0.37393404E+03 0.93998765E+02 0.0000E+00 0.0000E+00
       24  1    3    3    0    0 0.51147522E+02 0.16920833E+03 -.58746217E+02 0.20289372E+03 0.80419002E+02 0.0000E+00 0.9000E+01
      -13  1    4    4    0    0 -.72876622E+02 -.14453715E+03 -.19388518E+03 0.25257368E+03 0.10565837E+00 0.0000E+00 0.9000E+01
       13  1    4    4    0    0 -.88270984E+02 -.61147613E+02 -.56546708E+02 0.12136037E+03 0.10565837E+00 0.0000E+00 0.9000E+01
      -24  1    3    3    0    0 0.11000008E+03 0.36476427E+02 0.14855292E+03 0.20485540E+03 0.80419002E+02 0.0000E+00 0.9000E+01
#aMCatNLO 1  0  0  1  2 0.43203692D+03 0.00000000D+00  -5  7  0 0.00000000D+00 0.00000000D+00 0.00000000D+00 0.00000000D+00 0.00000000D+00
  <mgrwgt>
 0.4710942073D-03    5    2    0
 0.382501017443390D+03 0.000000000000000D+00 0.000000000000000D+00 0.382501017443390D+03
 0.382501017443390D+03 0.000000000000000D+00 0.000000000000000D+00 -.382501017443390D+03
 0.194983121308657D+03 0.511475218908772D+02 0.169208332636601D+03 -.174262104790291D+02
 0.217371772389059D+03 -.728766055583494D+02 -.144537251689046D+03 -.145080910763722D+03
 0.112133593570221D+03 -.882710016417913D+02 -.611475082710632D+02 -.322979149228957D+02
 0.240513547618844D+03 0.110000085309263D+03 0.364764273235088D+02 0.194805036165647D+03
 0.000000000000000D+00 -.000000000000000D+00 -.000000000000000D+00 0.000000000000000D+00
 0.755823081406752D+03 0.000000000000000D+00 0.000000000000000D+00 0.755823081406752D+03
 0.586704271229652D+03 0.000000000000000D+00 0.000000000000000D+00 -.586704271229652D+03
 0.323756996097462D+03 0.895526364570224D+02 0.300046711462763D+03 -.174262104790291D+02
 0.159726199226166D+03 -.449580191282865D+02 -.494243317331310D+02 -.145080910763722D+03
 0.816044666848968D+02 -.739275333996862D+02 -.122822424661826D+02 -.322979149228957D+02
 0.313481638411902D+03 0.151015321792211D+03 0.176206958249487D+03 0.194805036165647D+03
 0.463958052215976D+03 -.121682405721260D+03 -.414547095512936D+03 0.169118810177100D+03
0.193276300341D-04 0.000000000000D+00 0.000000000000D+00 0.468551677163D-06 0.000000000000D+00  7 2 -2 24 -13 13 -24 21 0 0.47773690D-01 0.72485257D-01 0.91359341D+05 0.91359341D+05 0.91359341D+05 0.11249570D+01  1  2  2  1  7  1        2 0.441010569302D-03 0.100000000000D+01
-.100138072695D-05 0.000000000000D+00 -.742231884129D-07 0.468551677163D-06 0.000000000000D+00  7 2 -2 24 -13 13 -24 21 2 0.47773690D-01 0.72485257D-01 0.91359341D+05 0.91359341D+05 0.91359341D+05 0.11249570D+01  1  2  3  1  7  1        2 -.289162172693D-04 0.100000000000D+01
0.121793658656D-05 0.000000000000D+00 0.000000000000D+00 0.468551677163D-06 0.000000000000D+00  7 2 -2 24 -13 13 -24 21 2 0.47773690D-01 0.72485257D-01 0.91359341D+05 0.91359341D+05 0.91359341D+05 0.11249570D+01  1  2 15  1  7  1        2 0.351695593989D-04 0.100000000000D+01
0.210286403084D-05 0.000000000000D+00 -.645314724051D-05 0.468551677163D-06 0.000000000000D+00  7 2 -2 24 -13 13 -24 21 2 0.13288263D+00 0.72485257D-01 0.91359341D+05 0.91359341D+05 0.91359341D+05 0.11249570D+01  1  2  5  1  7  1        2 0.188398579170D-04 0.100000000000D+01
0.604395215990D-06 0.000000000000D+00 -.740433611418D-06 0.468551677163D-06 0.000000000000D+00  7 21 -2 24 -13 13 -24 -2 2 0.13288263D+00 0.72485257D-01 0.91359341D+05 0.91359341D+05 0.91359341D+05 0.11249570D+01  1  2  5  3  7  1        2 0.499043799176D-05 0.100000000000D+01
  </mgrwgt>
  </event>
  <event>
  8     66 0.26993063E-05 0.14249430E+03 0.75467711E-02 0.98194306E-01
        2 -1    0    0  501    0 0.00000000E+00 0.00000000E+00 0.12091415E+04 0.12091415E+04 0.32000000E+00 0.0000E+00 0.9000E+01
       -2 -1    0    0    0  501 0.00000000E+00 0.00000000E+00 -.10036994E+03 0.10037045E+03 0.32000000E+00 0.0000E+00 0.9000E+01
       25  2    1    2    0    0 -.24444890E+03 -.12446436E+03 0.68389326E+03 0.79565417E+03 0.30018149E+03 0.0000E+00 0.0000E+00
       23  2    1    2    0    0 0.24444890E+03 0.12446436E+03 0.42487829E+03 0.51385781E+03 0.91003555E+02 0.0000E+00 0.0000E+00
       24  1    3    3    0    0 -.27228383E+03 -.14527047E+03 0.52865518E+03 0.61740223E+03 0.80419002E+02 0.0000E+00 0.9000E+01
      -13  1    4    4    0    0 0.78864852E+02 0.71876323E+02 0.10420749E+03 0.14914786E+03 0.10565837E+00 0.0000E+00 0.9000E+01
       13  1    4    4    0    0 0.16558405E+03 0.52588035E+02 0.32067080E+03 0.36470996E+03 0.10565837E+00 0.0000E+00 0.9000E+01
      -24  1    3    3    0    0 0.27834931E+02 0.20806112E+02 0.15523809E+03 0.17825195E+03 0.80419002E+02 0.0000E+00 0.9000E+01
#aMCatNLO 1  0  0  2  1 0.49705028D+02 0.00000000D+00  -5  7  0 0.00000000D+00 0.00000000D+00 0.00000000D+00 0.00000000D+00 0.00000000D+00
  <mgrwgt>
 0.5638272430D-03    9    2    0
 0.348370236343828D+03 0.000000000000000D+00 0.000000000000000D+00 0.348370236343828D+03
 0.348370236343828D+03 0.000000000000000D+00 0.000000000000000D+00 -.348370236343828D+03
 0.319111351403858D+03 -.272283835098010D+03 -.145270470555417D+03 0.110834186672501D+02
 0.114488177390823D+03 0.788647353579325D+02 0.718763485901175D+02 -.414932138131978D+02
 0.175160567766725D+03 0.165584169168140D+03 0.525880097409510D+02 0.223071435361879D+02
 0.879803761262501D+02 0.278349305719376D+02 0.208061122243483D+02 0.810265160975985D+01
 0.000000000000000D+00 0.000000000000000D+00 -.000000000000000D+00 -.000000000000000D+00
 0.359496851670610D+03 0.000000000000000D+00 0.000000000000000D+00 0.359496851670610D+03
 0.409565311119448D+03 0.000000000000000D+00 0.000000000000000D+00 -.409565311119448D+03
 0.320359062331417D+03 -.283403780546864D+03 -.125388069073120D+03 0.110834186672501D+02
 0.116508084847742D+03 0.748478711218249D+02 0.790584798163454D+02 -.414932138131978D+02
 0.173113906397611D+03 0.159527918447619D+03 0.634165528175939D+02 0.223071435361879D+02
 0.885301317785117D+02 0.247655356837745D+02 0.262941734522434D+02 0.810265160975985D+01
 0.705509774347758D+02 0.242624552936461D+02 -.433811370130625D+02 -.500684594488383D+02
0.664053317874D-05 0.000000000000D+00 0.000000000000D+00 0.167733575451D-05 0.000000000000D+00  7 2 -2 24 -13 13 -24 21 0 0.18602181D+00 0.15441572D-01 0.11797993D+06 0.11797993D+06 0.11797993D+06 0.11158766D+01  1  2  2  2  7  2       -2 0.485709900342D-03 0.100000000000D+01
-.368828942203D-06 0.000000000000D+00 -.255013958989D-07 0.167733575451D-05 0.000000000000D+00  7 2 -2 24 -13 13 -24 21 2 0.18602181D+00 0.15441572D-01 0.11797993D+06 0.11797993D+06 0.11797993D+06 0.11158766D+01  1  2  3  2  7  2       -2 -.335916476858D-04 0.100000000000D+01
0.427902215299D-06 0.000000000000D+00 0.000000000000D+00 0.167733575451D-05 0.000000000000D+00  7 2 -2 24 -13 13 -24 21 2 0.18602181D+00 0.15441572D-01 0.11797993D+06 0.11797993D+06 0.11797993D+06 0.11158766D+01  1  2 15  2  7  2       -2 0.389718344077D-04 0.100000000000D+01
0.160655934233D-04 0.000000000000D+00 0.000000000000D+00 0.167733575451D-05 0.000000000000D+00  7 2 -2 24 -13 13 -24 21 2 0.18602181D+00 0.18371057D-01 0.13637158D+06 0.13637158D+06 0.13637158D+06 0.11108312D+01  1  2 12  2  7  2       -2 0.109142956620D-02 0.100000000000D+01
-.162976413963D-04 0.000000000000D+00 0.000000000000D+00 0.167733575451D-05 0.000000000000D+00  7 2 -2 24 -13 13 -24 21 2 0.18602181D+00 0.15441572D-01 0.11797993D+06 0.11797993D+06 0.11797993D+06 0.11158766D+01  1  2  4  2  7  2       -2 -.148433207173D-02 0.100000000000D+01
-.276329957023D-04 0.000000000000D+00 -.489225813245D-05 0.167733575451D-05 0.000000000000D+00  7 2 -2 24 -13 13 -24 21 2 0.18602181D+00 0.18699685D-01 0.11797993D+06 0.11797993D+06 0.11797993D+06 0.11158766D+01  1  2  5  2  7  2       -2 -.184420848553D-02 0.100000000000D+01
0.281406272439D-04 0.000000000000D+00 0.480395512332D-05 0.167733575451D-05 0.000000000000D+00  7 2 -2 24 -13 13 -24 21 2 0.18602181D+00 0.15441572D-01 0.11797993D+06 0.11797993D+06 0.11797993D+06 0.11158766D+01  1  2  6  2  7  2       -2 0.256294972512D-02 0.100000000000D+01
0.412048860420D-06 0.000000000000D+00 0.000000000000D+00 0.167733575451D-05 0.000000000000D+00  7 2 21 24 -13 13 -24 2 2 0.18602181D+00 0.18371057D-01 0.13637158D+06 0.13637158D+06 0.13637158D+06 0.11108312D+01  1  2 12  4  7  2       -2 0.362453954478D-03 0.100000000000D+01
-.712337663170D-06 0.000000000000D+00 -.135364824421D-06 0.167733575451D-05 0.000000000000D+00  7 2 21 24 -13 13 -24 2 2 0.18602181D+00 0.18699685D-01 0.11797993D+06 0.11797993D+06 0.11797993D+06 0.11158766D+01  1  2  5  4  7  2       -2 -.615555532647D-03 0.100000000000D+01
  </mgrwgt>
  </event>
  <event>
  8     66 0.26993063E-05 0.12081843E+03 0.75467711E-02 0.10167848E+00
        2 -1    0    0  501    0 0.00000000E+00 0.00000000E+00 0.13138902E+03 0.13138941E+03 0.32000000E+00 0.0000E+00 0.9000E+01
       -2 -1    0    0    0  501 0.00000000E+00 0.00000000E+00 -.65943893E+03 0.65943901E+03 0.32000000E+00 0.0000E+00 0.9000E+01
       25  2    1    2    0    0 -.87588617E+02 0.18718649E+03 -.32915750E+03 0.49080243E+03 0.29971955E+03 0.0000E+00 0.0000E+00
       23  2    1    2    0    0 0.87588617E+02 -.18718649E+03 -.19889240E+03 0.30002600E+03 0.88016252E+02 0.0000E+00 0.0000E+00
       24  1    3    3    0    0 -.10337419E+03 0.92536546E+02 -.25540600E+02 0.16238465E+03 0.80419002E+02 0.0000E+00 0.9000E+01
      -11  1    4    4    0    0 0.99862554E+02 -.18710042E+03 -.19115965E+03 0.28551902E+03 0.51099893E-03 0.0000E+00 0.9000E+01
       11  1    4    4    0    0 -.12273936E+02 -.86069584E-01 -.77327583E+01 0.14506980E+02 0.51099893E-03 0.0000E+00 0.9000E+01
      -24  1    3    3    0    0 0.15785576E+02 0.94649947E+02 -.30361690E+03 0.32841778E+03 0.80419002E+02 0.0000E+00 0.9000E+01
#aMCatNLO 1  0  0  1  2 0.53587946D+02 0.00000000D+00  -5  7  0 0.00000000D+00 0.00000000D+00 0.00000000D+00 0.00000000D+00 0.00000000D+00
  <mgrwgt>
 0.1237798499D-02    9    2    0
 0.294352208288209D+03 0.000000000000000D+00 0.000000000000000D+00 0.294352208288209D+03
 0.294352208288209D+03 0.000000000000000D+00 0.000000000000000D+00 -.294352208288209D+03
 0.195228168261840D+03 -.103374193357090D+03 0.925365464153710D+02 0.111344445096240D+03
 0.212083884931205D+03 0.998625535518169D+02 -.187100423784013D+03 -.689974974818718D+00
 0.125517145733482D+02 -.122739361913928D+02 -.860695784216645D-01 0.262461828235833D+01
 0.168840648810026D+03 0.157855759966656D+02 0.946499469470636D+02 -.113279088403780D+03
 0.000000000000000D+00 -.000000000000000D+00 0.000000000000000D+00 0.000000000000000D+00
 0.331091211408141D+03 0.000000000000000D+00 0.000000000000000D+00 0.331091211408141D+03
 0.315779649588300D+03 0.000000000000000D+00 0.000000000000000D+00 -.315779649588300D+03
 0.186324353861166D+03 -.100835374096280D+03 0.753935724348159D+02 0.111344445096240D+03
 0.231139848790051D+03 0.102811728008215D+03 -.207014256072346D+03 -.689974974818718D+00
 0.124476813471950D+02 -.121075922565696D+02 -.120928058856224D+01 0.262461828235833D+01
 0.161226473818036D+03 0.179818156221447D+02 0.798201875640934D+02 -.113279088403780D+03
 0.557325031799933D+02 -.785057727750971D+01 0.530097766619988D+02 0.153115618198414D+02
0.297249083435D-04 0.000000000000D+00 0.000000000000D+00 0.141766573241D-06 0.000000000000D+00  7 2 -2 24 -11 11 -24 21 0 0.20213732D-01 0.10145218D+00 0.65004702D+05 0.65004702D+05 0.65004702D+05 0.11374031D+01  1  2  2  1  7  1        2 0.836879544851D-03 0.100000000000D+01
-.160994002500D-05 0.000000000000D+00 -.114151474787D-06 0.141766573241D-06 0.000000000000D+00  7 2 -2 24 -11 11 -24 21 2 0.20213732D-01 0.10145218D+00 0.65004702D+05 0.65004702D+05 0.65004702D+05 0.11374031D+01  1  2  3  1  7  1        2 -.586382468779D-04 0.100000000000D+01
0.186309690079D-05 0.000000000000D+00 0.000000000000D+00 0.141766573241D-06 0.000000000000D+00  7 2 -2 24 -11 11 -24 21 2 0.20213732D-01 0.10145218D+00 0.65004702D+05 0.65004702D+05 0.65004702D+05 0.11374031D+01  1  2 15  1  7  1        2 0.678588856291D-04 0.100000000000D+01
0.385999527738D-04 0.000000000000D+00 0.000000000000D+00 0.141766573241D-06 0.000000000000D+00  7 2 -2 24 -11 11 -24 21 2 0.23398415D-01 0.10145218D+00 0.78684637D+05 0.78684637D+05 0.78684637D+05 0.11303669D+01  1  2 12  1  7  1        2 0.116803199651D-02 0.100000000000D+01
-.360686752849D-04 0.000000000000D+00 0.000000000000D+00 0.141766573241D-06 0.000000000000D+00  7 2 -2 24 -11 11 -24 21 2 0.20213732D-01 0.10145218D+00 0.65004702D+05 0.65004702D+05 0.65004702D+05 0.11374031D+01  1  2  4  1  7  1        2 -.131371594785D-02 0.100000000000D+01
-.931403399399D-04 0.000000000000D+00 -.250843875765D-04 0.141766573241D-06 0.000000000000D+00  7 2 -2 24 -11 11 -24 21 2 0.24320810D-01 0.10145218D+00 0.65004702D+05 0.65004702D+05 0.65004702D+05 0.11374031D+01  1  2  5  1  7  1        2 -.273495533627D-02 0.100000000000D+01
0.965469467196D-04 0.000000000000D+00 0.246613029062D-04 0.141766573241D-06 0.000000000000D+00  7 2 -2 24 -11 11 -24 21 2 0.20213732D-01 0.10145218D+00 0.65004702D+05 0.65004702D+05 0.65004702D+05 0.11374031D+01  1  2  6  1  7  1        2 0.351649353961D-02 0.100000000000D+01
0.862868825064D-06 0.000000000000D+00 0.000000000000D+00 0.141766573241D-06 0.000000000000D+00  7 21 -2 24 -11 11 -24 -2 2 0.23398415D-01 0.10145218D+00 0.78684637D+05 0.78684637D+05 0.78684637D+05 0.11303669D+01  1  2 12  3  7  1        2 0.164850019704D-03 0.100000000000D+01
-.225691884525D-05 0.000000000000D+00 -.675786448534D-06 0.141766573241D-06 0.000000000000D+00  7 21 -2 24 -11 11 -24 -2 2 0.24320810D-01 0.10145218D+00 0.65004702D+05 0.65004702D+05 0.65004702D+05 0.11374031D+01  1  2  5  3  7  1        2 -.409005956501D-03 0.100000000000D+01
  </mgrwgt>
  </event>
  <event>
  8     66 0.26993063E-05 0.18815852E+03 0.75467711E-02 0.10623964E+00
        2 -1    0    0  501    0 0.00000000E+00 0.00000000E+00 0.79128723E+02 0.79129370E+02 0.32000000E+00 0.0000E+00 0.9000E+01
       -2 -1    0    0    0  501 0.00000000E+00 0.00000000E+00 -.10126968E+04 0.10126969E+04 0.32000000E+00 0.0000E+00 0.9000E+01
       25  2    1    2    0    0 0.54485492E+02 0.71478857E+02 -.90848843E+03 0.96083681E+03 0.29963018E+03 0.0000E+00 0.0000E+00
       23  2    1    2    0    0 -.54485492E+02 -.71478857E+02 -.25079679E+02 0.13098945E+03 0.91931217E+02 0.0000E+00 0.0000E+00
       24  1    3    3    0    0 -.21283809E+02 -.43048260E+02 -.10072164E+03 0.13754352E+03 0.80419002E+02 0.0000E+00 0.9000E+01
      -13  1    4    4    0    0 -.77306497E+02 -.60623321E+02 -.34345750E+02 0.10407268E+03 0.10565837E+00 0.0000E+00 0.9000E+01
       13  1    4    4    0    0 0.22821004E+02 -.10855536E+02 0.92660713E+01 0.26916763E+02 0.10565837E+00 0.0000E+00 0.9000E+01
      -24  1    3    3    0    0 0.75769301E+02 0.11452712E+03 -.80776679E+03 0.82329329E+03 0.80419002E+02 0.0000E+00 0.9000E+01
#aMCatNLO 1  0  0  2  1 0.24748797D+02 0.00000000D+00  -5  7  0 0.00000000D+00 0.00000000D+00 0.00000000D+00 0.00000000D+00 0.00000000D+00
  <mgrwgt>
 0.3337123193D-03    4    2    0
 0.283079119666481D+03 0.000000000000000D+00 0.000000000000000D+00 0.283079119666481D+03
 0.283079119666481D+03 0.000000000000000D+00 0.000000000000000D+00 -.283079119666481D+03
 0.991650432029795D+02 -.212838090340491D+02 -.430482591539828D+02 0.325628115477137D+02
 0.144067932763730D+03 -.773066283630115D+02 -.606233866270405D+02 0.105375801092216D+03
 0.671877177748630D+02 0.228211358908006D+02 -.108554705977983D+02 0.622538668240663D+02
 0.255737545591389D+03 0.757693015062600D+02 0.114527116378822D+03 -.200192479463996D+03
 0.000000000000000D+00 0.000000000000000D+00 -.000000000000000D+00 0.000000000000000D+00
 0.311775291854058D+03 0.000000000000000D+00 0.000000000000000D+00 0.311775291854058D+03
 0.288736306010990D+03 0.000000000000000D+00 0.000000000000000D+00 -.288736306010990D+03
 0.974842848622068D+02 -.217281934150544D+02 -.387752337936396D+02 0.325628115477137D+02
 0.141919225033165D+03 -.779528966586800D+02 -.544091249765073D+02 0.105375801092216D+03
 0.666767042130865D+02 0.225186316367102D+02 -.794670871373742D+01 0.622538668240663D+02
 0.260618696192445D+03 0.746024495716972D+02 0.125747105472211D+03 -.200192479463996D+03
 0.338126875641440D+02 0.256000886532710D+01 -.246160379883271D+02 0.230389858430684D+02
0.345888711170D-04 0.000000000000D+00 0.000000000000D+00 0.629395172695D-06 0.000000000000D+00  7 2 -2 24 -13 13 -24 21 0 0.12173703D-01 0.15579957D+00 0.35403630D+05 0.35403630D+05 0.35403630D+05 0.11607207D+01  1  2  2  2  7  2       -2 0.602978064319D-03 0.100000000000D+01
-.153183668464D-05 0.000000000000D+00 -.132830372548D-06 0.629395172695D-06 0.000000000000D+00  7 2 -2 24 -13 13 -24 21 2 0.12173703D-01 0.15579957D+00 0.35403630D+05 0.35403630D+05 0.35403630D+05 0.11607207D+01  1  2  3  2  7  2       -2 -.359776716139D-04 0.100000000000D+01
0.211737579101D-05 0.000000000000D+00 0.000000000000D+00 0.629395172695D-06 0.000000000000D+00  7 2 -2 24 -13 13 -24 21 2 0.12173703D-01 0.15579957D+00 0.35403630D+05 0.35403630D+05 0.35403630D+05 0.11607207D+01  1  2 15  2  7  2       -2 0.497300082026D-04 0.100000000000D+01
-.120501816909D-04 0.000000000000D+00 0.000000000000D+00 0.629395172695D-06 0.000000000000D+00  7 2 -2 24 -13 13 -24 21 2 0.12173703D-01 0.15579957D+00 0.35403630D+05 0.35403630D+05 0.35403630D+05 0.11607207D+01  1  2  4  2  7  2       -2 -.283018081570D-03 0.100000000000D+01
  </mgrwgt>
  </event>
  <event>
  8     66 0.26993063E-05 0.63982547E+03 0.75467711E-02 0.85192062E-01
        2 -1    0    0  501    0 0.00000000E+00 0.00000000E+00 0.15020834E+04 0.15020835E+04 0.32000000E+00 0.0000E+00 0.9000E+01
       -2 -1    0    0    0  501 0.00000000E+00 0.00000000E+00 -.33584067E+03 0.33584082E+03 0.32000000E+00 0.0000E+00 0.9000E+01
       25  2    1    2    0    0 -.37743265E+02 -.61693362E+03 0.25534727E+03 0.73312928E+03 0.30040749E+03 0.0000E+00 0.0000E+00
       23  2    1    2    0    0 0.37743265E+02 0.61693362E+03 0.91089550E+03 0.11047950E+04 0.93860315E+02 0.0000E+00 0.0000E+00
       24  1    3    3    0    0 -.55220326E+02 -.13942208E+03 0.17109858E+03 0.24130839E+03 0.80419002E+02 0.0000E+00 0.9000E+01
      -13  1    4    4    0    0 -.29868070E+02 0.13358266E+03 0.18717330E+03 0.23188421E+03 0.10565837E+00 0.0000E+00 0.9000E+01
       13  1    4    4    0    0 0.67611335E+02 0.48335096E+03 0.72372220E+03 0.87291081E+03 0.10565837E+00 0.0000E+00 0.9000E+01
      -24  1    3    3    0    0 0.17477061E+02 -.47751155E+03 0.84248689E+02 0.49182088E+03 0.80419002E+02 0.0000E+00 0.9000E+01
#aMCatNLO 1  0  0  1  1 0.97019390D+03 0.00000000D+00  -5  7  0 0.00000000D+00 0.00000000D+00 0.00000000D+00 0.00000000D+00 0.00000000D+00
  <mgrwgt>
 0.9921006794D-03    3    2    0
 0.710254089399354D+03 0.000000000000000D+00 0.000000000000000D+00 0.710254089399354D+03
 0.710254089399354D+03 0.000000000000000D+00 0.000000000000000D+00 -.710254089399354D+03
 0.171744221741811D+03 -.552203258569522D+02 -.139422076164552D+03 0.232607402622493D+02
 0.146352837971789D+03 -.298681930290935D+02 0.133582217584265D+03 0.517960941852141D+02
 0.535237248595392D+03 0.676114579704412D+02 0.483351403878221D+03 0.219724881167405D+03
 0.567173870489715D+03 0.174770609156045D+02 -.477511545297934D+03 -.294781715614868D+03
 0.000000000000000D+00 0.000000000000000D+00 -.000000000000000D+00 -.000000000000000D+00
 0.985915686132777D+03 0.000000000000000D+00 0.000000000000000D+00 0.985915686132777D+03
 0.273052047864087D+04 0.000000000000000D+00 0.000000000000000D+00 -.273052047864087D+04
 0.141473300093045D+03 -.100497247241242D+03 -.539140050843108D+02 0.232607402622493D+02
 0.267406323543662D+03 -.896788349057699D+02 0.246538056024294D+03 0.517960941852141D+02
 0.918302213060688D+03 -.142503836821605D+03 0.880166227254402D+03 0.219724881167405D+03
 0.393027364260052D+03 -.121324100539805D+03 -.215377565847039D+03 -.294781715614868D+03
 0.199622696381620D+04 0.454004019508421D+03 -.857412712347347D+03 -.174460479250809D+04
0.172313138333D-03 0.000000000000D+00 0.000000000000D+00 0.945274477074D-06 0.000000000000D+00  7 2 -2 24 -13 13 -24 21 0 0.23108977D+00 0.51667809D-01 0.40937663D+06 0.40937663D+06 0.40937663D+06 0.10747029D+01  1  2  2  1  7  1        2 0.982380036477D-03 0.100000000000D+01
-.944602459679D-05 0.000000000000D+00 -.661727822288D-06 0.945274477074D-06 0.000000000000D+00  7 2 -2 24 -13 13 -24 21 2 0.23108977D+00 0.51667809D-01 0.40937663D+06 0.40937663D+06 0.40937663D+06 0.10747029D+01  1  2  3  1  7  1        2 -.621995267053D-04 0.100000000000D+01
0.109222646382D-04 0.000000000000D+00 0.000000000000D+00 0.945274477074D-06 0.000000000000D+00  7 2 -2 24 -13 13 -24 21 2 0.23108977D+00 0.51667809D-01 0.40937663D+06 0.40937663D+06 0.40937663D+06 0.10747029D+01  1  2 15  1  7  1        2 0.719201695999D-04 0.100000000000D+01
  </mgrwgt>
  </event>
  <event>
  8     66 0.26993063E-05 0.39554873E+03 0.75467711E-02 0.91394855E-01
        2 -1    0    0  501    0 0.00000000E+00 0.00000000E+00 0.58540668E+03 0.58540677E+03 0.32000000E+00 0.0000E+00 0.9000E+01
       -2 -1    0    0    0  501 0.00000000E+00 0.00000000E+00 -.66706176E+03 0.66706184E+03 0.32000000E+00 0.0000E+00 0.9000E+01
       25  2    1    2    0    0 -.57734478E+03 -.84732360E+02 -.47450593E+02 0.65941776E+03 0.30343641E+03 0.0000E+00 0.0000E+00
       23  2    1    2    0    0 0.57734478E+03 0.84732360E+02 -.34204488E+02 0.59305085E+03 0.10016386E+03 0.0000E+00 0.0000E+00
       24  1    3    3    0    0 -.31498503E+03 0.70665884E+02 -.80660521E+02 0.34231940E+03 0.80419002E+02 0.0000E+00 0.9000E+01
      -11  1    4    4    0    0 0.22838184E+02 0.73722029E+01 -.22733142E+02 0.33056433E+02 0.51099893E-03 0.0000E+00 0.9000E+01
       11  1    4    4    0    0 0.55450660E+03 0.77360157E+02 -.11471346E+02 0.55999442E+03 0.51099893E-03 0.0000E+00 0.9000E+01
      -24  1    3    3    0    0 -.26235975E+03 -.15539824E+03 0.33209929E+02 0.31709836E+03 0.80419002E+02 0.0000E+00 0.9000E+01
#aMCatNLO 1  0  0  2  1 0.10677160D+03 0.00000000D+00  -5  7  0 0.00000000D+00 0.00000000D+00 0.00000000D+00 0.00000000D+00 0.00000000D+00
  <mgrwgt>
 0.1750863777D-02    9    2    0
 0.624902007133029D+03 0.000000000000000D+00 0.000000000000000D+00 0.624902007133029D+03
 0.624902007133029D+03 0.000000000000000D+00 0.000000000000000D+00 -.624902007133029D+03
 0.337779331170684D+03 -.314985030713277D+03 0.706658836901662D+02 -.584672893213607D+02
 0.316416551790943D+02 0.228381835386810D+02 0.737220287614766D+01 -.206218898231743D+02
 0.560438864962264D+03 0.554506597672816D+03 0.773601575011619D+02 0.250910447949745D+02
 0.319944162954017D+03 -.262359750498220D+03 -.155398244067476D+03 0.539981343495604D+02
 0.000000000000000D+00 0.000000000000000D+00 -.000000000000000D+00 -.000000000000000D+00
 0.673832159859346D+03 0.000000000000000D+00 0.000000000000000D+00 0.673832159859346D+03
 0.688267326633556D+03 0.000000000000000D+00 0.000000000000000D+00 -.688267326633556D+03
 0.366298541418963D+03 -.343020148108301D+03 0.814012258044105D+02 -.584672893213607D+02
 0.301600715632398D+02 0.203773496850849D+02 0.831451722184601D+01 -.206218898231743D+02
 0.520604335278508D+03 0.511461397407722D+03 0.938432328067057D+02 0.250910447949745D+02
 0.337293559845127D+03 -.288529777184815D+03 -.145377091465869D+03 0.539981343495604D+02
 0.107742978387064D+03 0.997111782003096D+02 -.381818843670934D+02 -.144351667742096D+02
0.195311415904D-03 0.000000000000D+00 0.000000000000D+00 0.523534274991D-08 0.000000000000D+00  7 2 -2 24 -11 11 -24 21 0 0.90062579D-01 0.10262490D+00 0.37940100D+06 0.37940100D+06 0.37940100D+06 0.10770868D+01  1  2  2  2  7  2       -2 0.954943097697D-03 0.100000000000D+01
-.108478908202D-04 0.000000000000D+00 -.750047263749D-06 0.523534274991D-08 0.000000000000D+00  7 2 -2 24 -11 11 -24 21 2 0.90062579D-01 0.10262490D+00 0.37940100D+06 0.37940100D+06 0.37940100D+06 0.10770868D+01  1  2  3  2  7  2       -2 -.615313710588D-04 0.100000000000D+01
0.123006979768D-04 0.000000000000D+00 0.000000000000D+00 0.523534274991D-08 0.000000000000D+00  7 2 -2 24 -11 11 -24 21 2 0.90062579D-01 0.10262490D+00 0.37940100D+06 0.37940100D+06 0.37940100D+06 0.10770868D+01  1  2 15  2  7  2       -2 0.697719790914D-04 0.100000000000D+01
0.217811903847D-03 0.000000000000D+00 0.000000000000D+00 0.523534274991D-08 0.000000000000D+00  7 2 -2 24 -11 11 -24 21 2 0.90062579D-01 0.11669298D+00 0.45113033D+06 0.45113033D+06 0.45113033D+06 0.10716817D+01  1  2 12  2  7  2       -2 0.882677732194D-03 0.100000000000D+01
-.187758389923D-03 0.000000000000D+00 0.000000000000D+00 0.523534274991D-08 0.000000000000D+00  7 2 -2 24 -11 11 -24 21 2 0.90062579D-01 0.10262490D+00 0.37940100D+06 0.37940100D+06 0.37940100D+06 0.10770868D+01  1  2  4  2  7  2       -2 -.106500252918D-02 0.100000000000D+01
-.652921493818D-03 0.000000000000D+00 -.158020635400D-03 0.523534274991D-08 0.000000000000D+00  7 2 -2 24 -11 11 -24 21 2 0.90062579D-01 0.11984798D+00 0.37940100D+06 0.37940100D+06 0.37940100D+06 0.10770868D+01  1  2  5  2  7  2       -2 -.251275857739D-02 0.100000000000D+01
0.671225963944D-03 0.000000000000D+00 0.156137784199D-03 0.523534274991D-08 0.000000000000D+00  7 2 -2 24 -11 11 -24 21 2 0.90062579D-01 0.10262490D+00 0.37940100D+06 0.37940100D+06 0.37940100D+06 0.10770868D+01  1  2  6  2  7  2       -2 0.380732573145D-02 0.100000000000D+01
0.437514454454D-05 0.000000000000D+00 0.000000000000D+00 0.523534274991D-08 0.000000000000D+00  7 2 21 24 -11 11 -24 2 2 0.90062579D-01 0.11669298D+00 0.45113033D+06 0.45113033D+06 0.45113033D+06 0.10716817D+01  1  2 12  4  7  2       -2 0.156717104264D-03 0.100000000000D+01
-.141395135951D-04 0.000000000000D+00 -.370402854994D-05 0.523534274991D-08 0.000000000000D+00  7 2 21 24 -11 11 -24 2 2 0.90062579D-01 0.11984798D+00 0.37940100D+06 0.37940100D+06 0.37940100D+06 0.10770868D+01  1  2  5  4  7  2       -2 -.481279389634D-03 0.100000000000D+01
  </mgrwgt>
  </event>
  <event>
  8     66 0.26993063E-05 0.35107577E+03 0.75467711E-02 0.95221690E-01
        4 -1    0    0  501    0 0.00000000E+00 0.00000000E+00 0.24027055E+03 0.24027555E+03 0.15500000E+01 0.0000E+00 0.9000E+01
       -4 -1    0    0    0  501 0.00000000E+00 0.00000000E+00 -.55118131E+03 0.55118349E+03 0.15500000E+01 0.0000E+00 0.9000E+01
       25  2    1    2    0    0 -.25194181E+03 -.12990900E+03 -.99509943E+02 0.42642760E+03 0.30263385E+03 0.0000E+00 0.0000E+00
       23  2    1    2    0    0 0.25194181E+03 0.12990900E+03 -.21140081E+03 0.36503144E+03 0.90590430E+02 0.0000E+00 0.0000E+00
       24  1    3    3    0    0 -.20095427E+03 0.39776552E+02 -.53844352E+02 0.22656395E+03 0.80419002E+02 0.0000E+00 0.9000E+01
      -11  1    4    4    0    0 0.75673982E+02 0.64689374E+02 -.12035324E+03 0.15619273E+03 0.51099893E-03 0.0000E+00 0.9000E+01
       11  1    4    4    0    0 0.17626782E+03 0.65219628E+02 -.91047570E+02 0.20883871E+03 0.51099893E-03 0.0000E+00 0.9000E+01
      -24  1    3    3    0    0 -.50987536E+02 -.16968555E+03 -.45665591E+02 0.19986365E+03 0.80419002E+02 0.0000E+00 0.9000E+01
#aMCatNLO 1  0  0  1  1 0.21871988D+03 0.00000000D+00  -5  7  0 0.00000000D+00 0.00000000D+00 0.00000000D+00 0.00000000D+00 0.00000000D+00
  <mgrwgt>
 0.3797814311D-04    4    2    0
 0.363916854882211D+03 0.000000000000000D+00 0.000000000000000D+00 0.363916854882211D+03
 0.363916854882211D+03 0.000000000000000D+00 0.000000000000000D+00 -.363916854882211D+03
 0.223368736212215D+03 -.200954269016064D+03 0.397765518987709D+02 0.382306689182265D+02
 0.118435064798607D+03 0.756739823903969D+02 0.646893739492682D+02 -.641529255847306D+02
 0.188201797761145D+03 0.176267822954197D+03 0.652196281189768D+02 -.979649833036966D+01
 0.197828110992456D+03 -.509875363285300D+02 -.169685553967016D+03 0.357187549968737D+02
 0.000000000000000D+00 0.000000000000000D+00 0.000000000000000D+00 -.000000000000000D+00
 0.486128675412535D+03 0.000000000000000D+00 0.000000000000000D+00 0.486128675412535D+03
 0.492676227040380D+03 0.000000000000000D+00 0.000000000000000D+00 -.492676227040380D+03
 0.290683291318272D+03 -.275405674630320D+03 0.268270429368611D+02 0.382306689182265D+02
 0.979316915475034D+02 0.443370587417302D+02 0.592388687468602D+02 -.641529255847306D+02
 0.140971063185898D+03 0.128592916767547D+03 0.569274189950698D+02 -.979649833036966D+01
 0.230400991188647D+03 -.113008998894249D+03 -.180473093553397D+03 0.357187549968737D+02
 0.218817865212595D+03 0.215484698015292D+03 0.374797628746062D+02 -.654755162784501D+01
0.313990426982D-04 0.000000000000D+00 0.000000000000D+00 0.782822913691D-07 0.000000000000D+00  7 4 -4 24 -11 11 -24 21 0 0.36965252D-01 0.84797677D-01 0.12325420D+06 0.12325420D+06 0.12325420D+06 0.11143460D+01  1  2  2  1  7  1        4 0.602269783349D-04 0.100000000000D+01
-.174165423319D-05 0.000000000000D+00 -.120580591519D-06 0.782822913691D-07 0.000000000000D+00  7 4 -4 24 -11 11 -24 21 2 0.36965252D-01 0.84797677D-01 0.12325420D+06 0.12325420D+06 0.12325420D+06 0.11143460D+01  1  2  3  1  7  1        4 -.414836279994D-05 0.100000000000D+01
0.202642650983D-05 0.000000000000D+00 0.000000000000D+00 0.782822913691D-07 0.000000000000D+00  7 4 -4 24 -11 11 -24 21 2 0.36965252D-01 0.84797677D-01 0.12325420D+06 0.12325420D+06 0.12325420D+06 0.11143460D+01  1  2 15  1  7  1        4 0.482664824625D-05 0.100000000000D+01
-.962575326596D-05 0.000000000000D+00 0.000000000000D+00 0.782822913691D-07 0.000000000000D+00  7 4 -4 24 -11 11 -24 21 2 0.36965252D-01 0.84797677D-01 0.12325420D+06 0.12325420D+06 0.12325420D+06 0.11143460D+01  1  2  4  1  7  1        4 -.229271206701D-04 0.100000000000D+01
  </mgrwgt>
  </event>
  <event>
  9     66 0.26993063E-05 0.20844871E+03 0.75467711E-02 0.99895096E-01
       21 -1    0    0  501  502 0.00000000E+00 0.00000000E+00 0.22720037E+03 0.22720161E+03 0.75000000E+00 0.0000E+00 0.9000E+01
       -2 -1    0    0    0  501 0.00000000E+00 0.00000000E+00 -.10528322E+04 0.10528323E+04 0.32000000E+00 0.0000E+00 0.9000E+01
       25  2    1    2    0    0 0.24237313E+03 -.71062692E+00 -.17540158E+03 0.42015982E+03 0.29499716E+03 0.0000E+00 0.0000E+00
       23  2    1    2    0    0 -.73127346E+02 -.97920185E+02 -.64632031E+03 0.66394661E+03 0.90328276E+02 0.0000E+00 0.0000E+00
       24  1    3    3    0    0 0.10044204E+03 0.26582339E+02 0.50004675E+02 0.14058061E+03 0.80419002E+02 0.0000E+00 0.9000E+01
      -13  1    4    4    0    0 -.75905453E+02 -.26979594E+02 -.36800041E+03 0.37671455E+03 0.10565837E+00 0.0000E+00 0.9000E+01
       13  1    4    4    0    0 0.27781069E+01 -.70940592E+02 -.27831989E+03 0.28723206E+03 0.10565837E+00 0.0000E+00 0.9000E+01
      -24  1    3    3    0    0 0.14193109E+03 -.27292966E+02 -.22540626E+03 0.27957922E+03 0.80419002E+02 0.0000E+00 0.9000E+01
       -2  1    1    2    0  502 -.16924578E+03 0.98630812E+02 -.39099579E+01 0.19592744E+03 0.32000000E+00 0.0000E+00 0.9000E+01
#aMCatNLO 2  0  0  1  2 0.19588816D+03 0.00000000D+00  -5  7  0 0.00000000D+00 0.00000000D+00 0.00000000D+00 0.00000000D+00 0.00000000D+00
  <mgrwgt>
 0.2478342196D-03    2    2    0
 0.339738036743707D+03 0.000000000000000D+00 0.000000000000000D+00 0.339738036743707D+03
 0.339738036743707D+03 0.000000000000000D+00 0.000000000000000D+00 -.339738036743707D+03
 0.263610052950248D+03 0.348692277187068D+02 0.647959907624412D+02 0.240018042241571D+03
 0.170999970280518D+03 -.115073820556012D+03 -.415357494704715D+01 -.126418960103855D+03
 0.110705025307240D+03 -.250062596638373D+02 -.547487847659261D+02 -.929131862146359D+02
 0.134161024949407D+03 0.105210852501143D+03 -.589363104946791D+01 -.206858959230803D+02
 0.000000000000000D+00 -.000000000000000D+00 0.000000000000000D+00 0.000000000000000D+00
 0.612326340925240D+03 0.000000000000000D+00 0.000000000000000D+00 0.612326340925240D+03
 0.390648879833594D+03 0.000000000000000D+00 0.000000000000000D+00 -.390648879833594D+03
 0.273625839530582D+03 0.100442036691449D+03 0.265823394049887D+02 0.240018042241571D+03
 0.149904312191497D+03 -.759055603790859D+02 -.269795337877190D+02 -.126418960103855D+03
 0.116932265458464D+03 0.277821414248907D+01 -.709406516665280D+02 -.929131862146359D+02
 0.166686723587286D+03 0.141931094429840D+03 -.272929663045411D+02 -.206858959230803D+02
 0.295826079991005D+03 -.169245784884692D+03 0.986308123537994D+02 0.221677461091646D+03
-.313238500192D-07 0.000000000000D+00 0.000000000000D+00 0.136264054496D-07 0.000000000000D+00  7 21 -2 24 -13 13 -24 -2 2 0.35395819D-01 0.14086515D+00 0.10375669D+06 0.10375669D+06 0.10375669D+06 0.11204101D+01  1  2 13  3  7  1        2 -.113378163751D-05 0.100000000000D+01
0.983553369826D-05 0.000000000000D+00 0.000000000000D+00 0.136264054496D-07 0.251896867919D-12  7 21 -2 24 -13 13 -24 -2 2 0.34953995D-01 0.16197425D+00 0.10375669D+06 0.10375669D+06 0.10375669D+06 0.11204101D+01  1  2  1  3  7  1        2 0.248968001212D-03 0.100000000000D+01
  </mgrwgt>
  </event>
  <event>
  8     66 0.26993063E-05 0.16393386E+03 0.75467711E-02 0.10822855E+00
        2 -1    0    0  501    0 0.00000000E+00 0.00000000E+00 0.12171713E+04 0.12171713E+04 0.32000000E+00 0.0000E+00 0.9000E+01
       -2 -1    0    0    0  501 0.00000000E+00 0.00000000E+00 -.41390040E+02 0.41391277E+02 0.32000000E+00 0.0000E+00 0.9000E+01
       25  2    1    2    0    0 -.54919290E+01 0.26908554E+02 0.56391327E+03 0.63928534E+03 0.29988887E+03 0.0000E+00 0.0000E+00
       23  2    1    2    0    0 0.54919290E+01 -.26908554E+02 0.61186794E+03 0.61927723E+03 0.91475033E+02 0.0000E+00 0.0000E+00
       24  1    3    3    0    0 0.11329477E+03 0.47413222E+02 0.20429415E+03 0.25156914E+03 0.80419002E+02 0.0000E+00 0.9000E+01
      -13  1    4    4    0    0 -.66933577E+01 -.22044835E+02 0.32922053E+02 0.40182689E+02 0.10565837E+00 0.0000E+00 0.9000E+01
       13  1    4    4    0    0 0.12185287E+02 -.48637189E+01 0.57894589E+03 0.57909454E+03 0.10565837E+00 0.0000E+00 0.9000E+01
      -24  1    3    3    0    0 -.11878670E+03 -.20504668E+02 0.35961912E+03 0.38771620E+03 0.80419002E+02 0.0000E+00 0.9000E+01
#aMCatNLO 1  0  0  1  2 0.29821393D+02 0.00000000D+00  -5  7  0 0.00000000D+00 0.00000000D+00 0.00000000D+00 0.00000000D+00 0.00000000D+00
  <mgrwgt>
 0.8561859090D-03    4    2    0
 0.224453941724053D+03 0.000000000000000D+00 0.000000000000000D+00 0.224453941724053D+03
 0.224453941724053D+03 0.000000000000000D+00 0.000000000000000D+00 -.224453941724053D+03
 0.170213737638304D+03 0.113294766142733D+03 0.474132270239511D+02 -.861497672328231D+02
 0.264268928443535D+02 -.669337796000111D+01 -.220448505448725D+02 -.129461933148610D+02
 0.107178049563367D+03 0.121853089308537D+02 -.486371342384137D+01 0.106371973969640D+03
 0.145089203402081D+03 -.118786697113586D+03 -.205046630552373D+02 -.727601342195639D+01
 0.000000000000000D+00 0.000000000000000D+00 -.000000000000000D+00 -.000000000000000D+00
 0.229350454626415D+03 0.000000000000000D+00 0.000000000000000D+00 0.229350454626415D+03
 0.275457380140393D+03 0.000000000000000D+00 0.000000000000000D+00 -.275457380140393D+03
 0.164628248635599D+03 0.102878855287580D+03 0.512777050471416D+02 -.861497672328231D+02
 0.263926117795466D+02 -.833643132286662D+01 -.214352501268177D+02 -.129461933148610D+02
 0.106542960852913D+03 0.553710146696558D+01 -.239711669552020D+01 0.106371973969640D+03
 0.152333504011456D+03 -.128038608563494D+03 -.170720483787217D+02 -.727601342195639D+01
 0.549105094872935D+02 0.279590831318160D+02 -.103732898460820D+02 -.461069255139781D+02
0.363093812071D-05 0.000000000000D+00 0.000000000000D+00 0.102736671930D-05 0.000000000000D+00  7 2 -2 24 -13 13 -24 21 0 0.18725721D+00 0.63677969D-02 0.26874311D+05 0.26874311D+05 0.26874311D+05 0.11717955D+01  1  2  2  1  7  1        2 0.102635177565D-02 0.100000000000D+01
-.177505101368D-06 0.000000000000D+00 -.139437584315D-07 0.102736671930D-05 0.000000000000D+00  7 2 -2 24 -13 13 -24 21 2 0.18725721D+00 0.63677969D-02 0.26874311D+05 0.26874311D+05 0.26874311D+05 0.11717955D+01  1  2  3  1  7  1        2 -.688956642152D-04 0.100000000000D+01
0.226634644533D-06 0.000000000000D+00 0.000000000000D+00 0.102736671930D-05 0.000000000000D+00  7 2 -2 24 -13 13 -24 21 2 0.18725721D+00 0.63677969D-02 0.26874311D+05 0.26874311D+05 0.26874311D+05 0.11717955D+01  1  2 15  1  7  1        2 0.879644824231D-04 0.100000000000D+01
-.487550592692D-06 0.000000000000D+00 0.000000000000D+00 0.102736671930D-05 0.000000000000D+00  7 2 -2 24 -13 13 -24 21 2 0.18725721D+00 0.63677969D-02 0.26874311D+05 0.26874311D+05 0.26874311D+05 0.11717955D+01  1  2  4  1  7  1        2 -.189234684880D-03 0.100000000000D+01
  </mgrwgt>
  </event>
  <event>
  9     66 0.26993063E-05 0.16754196E+03 0.75467711E-02 0.10485307E+00
        2 -1    0    0  501    0 0.00000000E+00 0.00000000E+00 0.59007478E+03 0.59007486E+03 0.32000000E+00 0.0000E+00 0.9000E+01
       -2 -1    0    0    0  502 0.00000000E+00 0.00000000E+00 -.19194746E+03 0.19194773E+03 0.32000000E+00 0.0000E+00 0.9000E+01
       25  2    1    2    0    0 -.86522293E+02 0.17632572E+02 0.31119578E+02 0.31383563E+03 0.29954525E+03 0.0000E+00 0.0000E+00
       23  2    1    2    0    0 -.19933366E+02 0.95005120E+00 0.34604191E+03 0.35810405E+03 0.89973701E+02 0.0000E+00 0.0000E+00
       24  1    3    3    0    0 0.86692961E+02 0.18986209E+01 -.69571895E+01 0.11846895E+03 0.80419002E+02 0.0000E+00 0.9000E+01
      -13  1    4    4    0    0 -.89204040E+01 -.77662997E+01 0.50872187E-01 0.11828050E+02 0.10565837E+00 0.0000E+00 0.9000E+01
       13  1    4    4    0    0 -.11012962E+02 0.87163509E+01 0.34599103E+03 0.34627600E+03 0.10565837E+00 0.0000E+00 0.9000E+01
      -24  1    3    3    0    0 -.17321525E+03 0.15733951E+02 0.38076767E+02 0.19536667E+03 0.80419002E+02 0.0000E+00 0.9000E+01
       21  1    1    2  501  502 0.10645566E+03 -.18582623E+02 0.20965830E+02 0.11008292E+03 0.75000000E+00 0.0000E+00 0.9000E+01
#aMCatNLO 2  0  0  2  1 0.10806536D+03 0.00000000D+00  -5  7  0 0.00000000D+00 0.00000000D+00 0.00000000D+00 0.00000000D+00 0.00000000D+00
  <mgrwgt>
 0.2307471740D-03    2    2    0
 0.272751727542900D+03 0.000000000000000D+00 0.000000000000000D+00 0.272751727542900D+03
 0.272751727542900D+03 0.000000000000000D+00 0.000000000000000D+00 -.272751727542900D+03
 0.167591326566234D+03 0.117177520761793D+03 -.342268483689086D+01 -.887544401282912D+02
 0.130578649549198D+02 -.628077826173763D+01 -.822708799540398D+01 -.796082186232589D+01
 0.184871155761316D+03 0.246089940149155D+02 0.249829692102088D+01 0.183208897596686D+03
 0.179983107803331D+03 -.135505736514971D+03 0.915147591127396D+01 -.864936356060688D+02
 0.000000000000000D+00 0.000000000000000D+00 -.000000000000000D+00 -.000000000000000D+00
 0.312784051968404D+03 0.000000000000000D+00 0.000000000000000D+00 0.312784051968404D+03
 0.362111416003228D+03 0.000000000000000D+00 0.000000000000000D+00 -.362111416003228D+03
 0.147864264329250D+03 0.866929599649061D+02 0.189862089334156D+01 -.887544401282912D+02
 0.142570684502917D+02 -.892040099180356D+01 -.776632230969379D+01 -.796082186232589D+01
 0.183746457701469D+03 -.110129647416591D+02 0.871637349153252D+01 0.183208897596686D+03
 0.210236642708130D+03 -.173215252693919D+03 0.157339510817155D+02 -.864936356060688D+02
 0.118791034782489D+03 0.106455658462476D+03 -.185826231568958D+02 -.493273640348241D+02
-.124522914327D-05 0.000000000000D+00 0.000000000000D+00 0.757606239019D-06 0.000000000000D+00  7 2 -2 24 -13 13 -24 21 2 0.79161709D-01 0.30739167D-01 0.49244595D+05 0.49244595D+05 0.49244595D+05 0.11478774D+01  1  2 13  2  7  2       -2 -.113999318355D-03 0.100000000000D+01
0.409314722915D-05 0.000000000000D+00 0.000000000000D+00 0.757606239019D-06 0.468031711209D-09  7 2 -2 24 -13 13 -24 21 2 0.90780434D-01 0.29530299D-01 0.49244595D+05 0.49244595D+05 0.49244595D+05 0.11478774D+01  1  2  1  2  7  2       -2 0.344746492345D-03 0.100000000000D+01
  </mgrwgt>
  </event>
  <event>
  8     66 0.26993063E-05 0.41982421E+03 0.75467711E-02 0.96509060E-01
        2 -1    0    0  501    0 0.00000000E+00 0.00000000E+00 0.97211915E+03 0.97211920E+03 0.32000000E+00 0.0000E+00 0.9000E+01
       -2 -1    0    0    0  501 0.00000000E+00 0.00000000E+00 -.78217005E+03 0.78217012E+03 0.32000000E+00 0.0000E+00 0.9000E+01
       25  2    1    2    0    0 -.36241767E+03 0.77199018E+02 0.86005027E+03 0.98314719E+03 0.29930865E+03 0.0000E+00 0.0000E+00
       23  2    1    2    0    0 0.36241767E+03 -.77199018E+02 -.67010117E+03 0.77114213E+03 0.91204985E+02 0.0000E+00 0.0000E+00
       24  1    3    3    0    0 -.44456009E+01 -.31138341E+02 0.23449550E+03 0.24988941E+03 0.80419002E+02 0.0000E+00 0.9000E+01
      -13  1    4    4    0    0 0.93985657E+02 -.25407927E+02 -.26595807E+03 0.28321824E+03 0.10565837E+00 0.0000E+00 0.9000E+01
       13  1    4    4    0    0 0.26843202E+03 -.51791091E+02 -.40414310E+03 0.48792389E+03 0.10565837E+00 0.0000E+00 0.9000E+01
      -24  1    3    3    0    0 -.35797207E+03 0.10833736E+03 0.62555477E+03 0.73325778E+03 0.80419002E+02 0.0000E+00 0.9000E+01
#aMCatNLO 1  0  0  1  1 0.96841628D+01 0.00000000D+00  -5  7  0 0.00000000D+00 0.00000000D+00 0.00000000D+00 0.00000000D+00 0.00000000D+00
  <mgrwgt>
 0.5776543452D-03    8    2    0
 0.871987722931827D+03 0.000000000000000D+00 0.000000000000000D+00 0.871987722931827D+03
 0.871987722931827D+03 0.000000000000000D+00 0.000000000000000D+00 -.871987722931827D+03
 0.225826635732637D+03 -.444560085309669D+01 -.311383411956221D+02 0.208665027718088D+03
 0.313860332985181D+03 0.939854225458612D+02 -.254078918430928D+02 -.298378095715041D+03
 0.534827945481531D+03 0.268432252062464D+03 -.517911262215382D+02 -.459676774011232D+03
 0.669460531664305D+03 -.357972073755229D+03 0.108337359260253D+03 0.549389842008186D+03
 0.000000000000000D+00 -.000000000000000D+00 -.000000000000000D+00 -.000000000000000D+00
 0.872737555244228D+03 0.000000000000000D+00 0.000000000000000D+00 0.872737555244228D+03
 0.903839999221091D+03 0.000000000000000D+00 0.000000000000000D+00 -.903839999221091D+03
 0.225685219587929D+03 -.360566616074814D+01 -.302077434613750D+02 0.208665027718088D+03
 0.314110115691972D+03 0.951536181522405D+02 -.241136005197826D+02 -.298378095715041D+03
 0.535621420656155D+03 0.270423578643210D+03 -.495848546851092D+02 -.459676774011232D+03
 0.668585577429271D+03 -.355482944546890D+03 0.111095166531021D+03 0.549389842008186D+03
 0.325752210999911D+02 -.648858608781215D+01 -.718896786475387D+01 -.311024439768628D+02
0.350755792005D-03 0.000000000000D+00 0.000000000000D+00 0.781667879095D-05 0.000000000000D+00  7 2 -2 24 -13 13 -24 21 0 0.14955680D+00 0.12033386D+00 0.17625236D+06 0.17625236D+06 0.17625236D+06 0.11020665D+01  1  2  2  1  7  1        2 0.626913582939D-03 0.100000000000D+01
-.682810190562D-05 0.000000000000D+00 -.134699459742D-05 0.781667879095D-05 0.000000000000D+00  7 2 -2 24 -13 13 -24 21 2 0.14955680D+00 0.12033386D+00 0.17625236D+06 0.17625236D+06 0.17625236D+06 0.11020665D+01  1  2  3  1  7  1        2 -.148223969126D-04 0.100000000000D+01
0.212257909924D-04 0.000000000000D+00 0.000000000000D+00 0.781667879095D-05 0.000000000000D+00  7 2 -2 24 -13 13 -24 21 2 0.14955680D+00 0.12033386D+00 0.17625236D+06 0.17625236D+06 0.17625236D+06 0.11020665D+01  1  2 15  1  7  1        2 0.460768019023D-04 0.100000000000D+01
-.241803749188D-04 0.000000000000D+00 0.000000000000D+00 0.781667879095D-05 0.000000000000D+00  7 2 -2 24 -13 13 -24 21 2 0.14955680D+00 0.12033386D+00 0.17625236D+06 0.17625236D+06 0.17625236D+06 0.11020665D+01  1  2  4  1  7  1        2 -.524905924803D-04 0.100000000000D+01
0.271517909374D-03 0.000000000000D+00 0.000000000000D+00 0.781667879095D-05 0.000000000000D+00  7 2 -2 24 -13 13 -24 21 2 0.15489002D+00 0.12033386D+00 0.17625236D+06 0.17625236D+06 0.17625236D+06 0.11020665D+01  1  2  5  1  7  1        2 0.561024250530D-03 0.100000000000D+01
-.271351318533D-03 0.000000000000D+00 0.000000000000D+00 0.781667879095D-05 0.000000000000D+00  7 2 -2 24 -13 13 -24 21 2 0.14955680D+00 0.12033386D+00 0.17625236D+06 0.17625236D+06 0.17625236D+06 0.11020665D+01  1  2  6  1  7  1        2 -.589047586233D-03 0.100000000000D+01
0.140144789930D-09 0.000000000000D+00 0.000000000000D+00 0.781667879095D-05 0.539451281739D-06  7 2 -2 24 -13 13 -24 21 2 0.14968541D+00 0.12472946D+00 0.18053158D+06 0.18053158D+06 0.18053158D+06 0.11012577D+01  1  2 11  1  7  1        2 0.276357828348D-09 0.100000000000D+01
0.622413187101D-11 0.000000000000D+00 0.000000000000D+00 0.781667879095D-05 0.884878697529D-10  7 21 -2 24 -13 13 -24 -2 2 0.14968541D+00 0.12472946D+00 0.18053158D+06 0.18053158D+06 0.18053158D+06 0.11012577D+01  1  2 11  3  7  1        2 0.912850154128D-11 0.100000000000D+01
  </mgrwgt>
  </event>
  <event>
  8     66 0.26993063E-05 0.20155186E+03 0.75467711E-02 0.95898829E-01
        2 -1    0    0  501    0 0.00000000E+00 0.00000000E+00 0.23282125E+04 0.23282125E+04 0.32000000E+00 0.0000E+00 0.9000E+01
       -2 -1    0    0    0  501 0.00000000E+00 0.00000000E+00 -.85658668E+02 0.85659266E+02 0.32000000E+00 0.0000E+00 0.9000E+01
       25  2    1    2    0    0 -.93544374E+02 0.37814892E+03 0.12979813E+04 0.13880190E+04 0.30015672E+03 0.0000E+00 0.0000E+00
       23  2    1    2    0    0 0.93544374E+02 -.37814892E+03 0.94457256E+03 0.10258528E+04 0.91703725E+02 0.0000E+00 0.0000E+00
       24  1    3    3    0    0 -.12451762E+03 0.57284153E+02 0.38782479E+03 0.41911979E+03 0.80419002E+02 0.0000E+00 0.9000E+01
      -11  1    4    4    0    0 0.51012988E+02 -.84944354E+02 0.31157901E+03 0.32695465E+03 0.51099893E-03 0.0000E+00 0.9000E+01
       11  1    4    4    0    0 0.42531386E+02 -.29320457E+03 0.63299355E+03 0.69889819E+03 0.51099893E-03 0.0000E+00 0.9000E+01
      -24  1    3    3    0    0 0.30973249E+02 0.32086477E+03 0.91015650E+03 0.96889918E+03 0.80419002E+02 0.0000E+00 0.9000E+01
#aMCatNLO 1  0  0  1  2 0.85728348D+01 0.00000000D+00  -5  7  0 0.00000000D+00 0.00000000D+00 0.00000000D+00 0.00000000D+00 0.00000000D+00
  <mgrwgt>
 0.9234663169D-03   11    2    0
 0.446578471306839D+03 0.000000000000000D+00 0.000000000000000D+00 0.446578471306839D+03
 0.446578471306839D+03 0.000000000000000D+00 0.000000000000000D+00 -.446578471306839D+03
 0.158968100416907D+03 -.124517623249870D+03 0.572841528713127D+02 -.418668434550522D+01
 0.101319169631909D+03 0.510129883003492D+02 -.849443543206674D+02 0.211590602015536D+02
 0.299531345486416D+03 0.425313861594031D+02 -.293204569588710D+03 -.440589206922047D+02
 0.333338327078444D+03 0.309732487901178D+02 0.320864771038065D+03 0.270865448361563D+02
 0.000000000000000D+00 -.000000000000000D+00 0.000000000000000D+00 0.000000000000000D+00
 0.487079037529423D+03 0.000000000000000D+00 0.000000000000000D+00 0.487079037529423D+03
 0.447052929859059D+03 0.000000000000000D+00 0.000000000000000D+00 -.447052929859059D+03
 0.158190872095951D+03 -.124203645331071D+03 0.557948225265699D+02 -.418668434550522D+01
 0.102222631643940D+03 0.512144886099471D+02 -.859001556926480D+02 0.211590602015536D+02
 0.302383106019115D+03 0.431272635053321D+02 -.296031068396118D+03 -.440589206922047D+02
 0.330401474450688D+03 0.316303313877085D+02 0.317747949780893D+03 0.270865448361563D+02
 0.409338831787885D+02 -.176843817191640D+01 0.838845178130355D+01 0.400261076703638D+02
0.198673765830D-04 0.000000000000D+00 0.000000000000D+00 0.228983313971D-05 0.000000000000D+00  7 2 -2 24 -11 11 -24 21 0 0.35818659D+00 0.13178304D-01 0.19647383D+06 0.19647383D+06 0.19647383D+06 0.10984192D+01  1  2  2  1  7  1        2 0.452237604266D-03 0.100000000000D+01
-.110366820147D-05 0.000000000000D+00 -.762959572793D-07 0.228983313971D-05 0.000000000000D+00  7 2 -2 24 -11 11 -24 21 2 0.35818659D+00 0.13178304D-01 0.19647383D+06 0.19647383D+06 0.19647383D+06 0.10984192D+01  1  2  3  1  7  1        2 -.303110449135D-04 0.100000000000D+01
0.126581684383D-05 0.000000000000D+00 0.000000000000D+00 0.228983313971D-05 0.000000000000D+00  7 2 -2 24 -11 11 -24 21 2 0.35818659D+00 0.13178304D-01 0.19647383D+06 0.19647383D+06 0.19647383D+06 0.10984192D+01  1  2 15  1  7  1        2 0.347642807453D-04 0.100000000000D+01
0.881543756407D-03 0.000000000000D+00 0.000000000000D+00 0.228983313971D-05 0.000000000000D+00  7 2 -2 24 -11 11 -24 21 2 0.39085126D+00 0.13178304D-01 0.20032897D+06 0.20032897D+06 0.20032897D+06 0.10977706D+01  1  2 12  1  7  1        2 0.182855651389D-01 0.100000000000D+01
-.883714247890D-03 0.000000000000D+00 0.000000000000D+00 0.228983313971D-05 0.000000000000D+00  7 2 -2 24 -11 11 -24 21 2 0.35818659D+00 0.13178304D-01 0.19647383D+06 0.19647383D+06 0.19647383D+06 0.10984192D+01  1  2  4  1  7  1        2 -.242702491771D-01 0.100000000000D+01
-.971856289088D-03 0.000000000000D+00 -.219362106870D-04 0.228983313971D-05 0.000000000000D+00  7 2 -2 24 -11 11 -24 21 2 0.39079273D+00 0.13178304D-01 0.19647383D+06 0.19647383D+06 0.19647383D+06 0.10984192D+01  1  2  5  1  7  1        2 -.202087800290D-01 0.100000000000D+01
0.970166099508D-03 0.000000000000D+00 0.218532201888D-04 0.228983313971D-05 0.000000000000D+00  7 2 -2 24 -11 11 -24 21 2 0.35818659D+00 0.13178304D-01 0.19647383D+06 0.19647383D+06 0.19647383D+06 0.10984192D+01  1  2  6  1  7  1        2 0.266445551087D-01 0.100000000000D+01
0.896568792890D-06 0.000000000000D+00 0.000000000000D+00 0.228983313971D-05 0.201045312719D-06  7 2 -2 24 -11 11 -24 21 2 0.39067082D+00 0.13192305D-01 0.20032897D+06 0.20032897D+06 0.20032897D+06 0.10977706D+01  1  2 11  1  7  1        2 0.185948537151D-04 0.100000000000D+01
0.131690903552D-04 0.000000000000D+00 0.000000000000D+00 0.228983313971D-05 0.000000000000D+00  7 21 -2 24 -11 11 -24 -2 2 0.39085126D+00 0.13178304D-01 0.20032897D+06 0.20032897D+06 0.20032897D+06 0.10977706D+01  1  2 12  3  7  1        2 0.312542533320D-04 0.100000000000D+01
-.143502803983D-04 0.000000000000D+00 -.315948629611D-06 0.228983313971D-05 0.000000000000D+00  7 21 -2 24 -11 11 -24 -2 2 0.39079273D+00 0.13178304D-01 0.19647383D+06 0.19647383D+06 0.19647383D+06 0.10984192D+01  1  2  5  3  7  1        2 -.341953074316D-04 0.100000000000D+01
0.128940283081D-07 0.000000000000D+00 0.000000000000D+00 0.228983313971D-05 0.288743975192D-08  7 21 -2 24 -11 11 -24 -2 2 0.39067082D+00 0.13192305D-01 0.20032897D+06 0.20032897D+06 0.20032897D+06 0.10977706D+01  1  2 11  3  7  1        2 0.306358008071D-07 0.100000000000D+01
  </mgrwgt>
  </event>
  <event>
  8     66 0.26993063E-05 0.22074115E+03 0.75467711E-02 0.97680906E-01
        2 -1    0    0  501    0 0.00000000E+00 0.00000000E+00 0.23076573E+04 0.23076573E+04 0.32000000E+00 0.0000E+00 0.9000E+01
       -2 -1    0    0    0  501 0.00000000E+00 0.00000000E+00 -.26793982E+02 0.26795893E+02 0.32000000E+00 0.0000E+00 0.9000E+01
       25  2    1    2    0    0 0.46880695E+02 -.92988269E+02 0.19821332E+04 0.20072858E+04 0.29916505E+03 0.0000E+00 0.0000E+00
       23  2    1    2    0    0 -.46880695E+02 0.92988269E+02 0.29873004E+03 0.32716732E+03 0.83391837E+02 0.0000E+00 0.0000E+00
       24  1    3    3    0    0 0.46024806E+02 0.78863029E+02 0.96123634E+03 0.96890670E+03 0.80419002E+02 0.0000E+00 0.9000E+01
      -13  1    4    4    0    0 -.30631881E+02 -.47414839E+01 0.10636180E+03 0.11078645E+03 0.10565837E+00 0.0000E+00 0.9000E+01
       13  1    4    4    0    0 -.16248814E+02 0.97729752E+02 0.19236824E+03 0.21638087E+03 0.10565837E+00 0.0000E+00 0.9000E+01
      -24  1    3    3    0    0 0.85588940E+00 -.17185130E+03 0.10208969E+04 0.10383792E+04 0.80419002E+02 0.0000E+00 0.9000E+01
#aMCatNLO 1  0  0  2  1 0.25216318D+03 0.00000000D+00  -5  7  0 0.00000000D+00 0.00000000D+00 0.00000000D+00 0.00000000D+00 0.00000000D+00
  <mgrwgt>
 0.1288738154D-02    5    2    0
 0.248663593376419D+03 0.000000000000000D+00 0.000000000000000D+00 0.248663593376419D+03
 0.248663593376419D+03 0.000000000000000D+00 0.000000000000000D+00 -.248663593376419D+03
 0.139583426276302D+03 0.460248057529375D+02 0.788630262986379D+02 0.684007110714943D+02
 0.322302385903034D+02 -.306319024129394D+02 -.474164631480519D+01 -.883128667733848D+01
 0.133444198849521D+03 -.162487938589601D+02 0.977299175254155D+02 -.893990722837498D+02
 0.192069323036711D+03 0.855890518962021D+00 -.171851297509248D+03 0.298296478895940D+02
 0.000000000000000D+00 -.000000000000000D+00 -.000000000000000D+00 -.000000000000000D+00
 0.374275561479345D+03 0.000000000000000D+00 0.000000000000000D+00 0.374275561479345D+03
 0.445302298615068D+03 0.000000000000000D+00 0.000000000000000D+00 -.445302298615068D+03
 0.202769069143100D+03 0.897732496518724D+02 0.148020896560740D+03 0.684007110714943D+02
 0.258015301472038D+02 -.232161551555443D+02 0.698122291245790D+01 -.883128667733848D+01
 0.187090136476826D+03 0.247115571661675D+02 0.162480349532322D+03 -.893990722837498D+02
 0.141941809735376D+03 0.435384107260900D+02 -.104378447463124D+03 0.298296478895940D+02
 0.261975314591907D+03 -.134807062388586D+03 -.213104021542395D+03 -.710267371357227D+02
0.774581618262D-05 0.000000000000D+00 0.000000000000D+00 0.460248115648D-08 0.000000000000D+00  7 2 -2 24 -13 13 -24 21 0 0.35502434D+00 0.41222997D-02 0.48726657D+05 0.48726657D+05 0.48726657D+05 0.11482821D+01  1  2  2  2  7  2       -2 0.109414030657D-02 0.100000000000D+01
-.422900215315D-06 0.000000000000D+00 -.297459736615D-07 0.460248115648D-08 0.000000000000D+00  7 2 -2 24 -13 13 -24 21 2 0.35502434D+00 0.41222997D-02 0.48726657D+05 0.48726657D+05 0.48726657D+05 0.11482821D+01  1  2  3  2  7  2       -2 -.787663924653D-04 0.100000000000D+01
0.504656908088D-06 0.000000000000D+00 0.000000000000D+00 0.460248115648D-08 0.000000000000D+00  7 2 -2 24 -13 13 -24 21 2 0.35502434D+00 0.41222997D-02 0.48726657D+05 0.48726657D+05 0.48726657D+05 0.11482821D+01  1  2 15  2  7  2       -2 0.939938137727D-04 0.100000000000D+01
0.141605022349D-05 0.000000000000D+00 -.252945244319D-05 0.460248115648D-08 0.000000000000D+00  7 2 -2 24 -13 13 -24 21 2 0.35502434D+00 0.13286113D-01 0.48726657D+05 0.48726657D+05 0.48726657D+05 0.11482821D+01  1  2  5  2  7  2       -2 0.452179966511D-04 0.100000000000D+01
0.298396787552D-06 0.000000000000D+00 -.341358451209D-06 0.460248115648D-08 0.000000000000D+00  7 2 21 24 -13 13 -24 2 2 0.35502434D+00 0.13286113D-01 0.48726657D+05 0.48726657D+05 0.48726657D+05 0.11482821D+01  1  2  5  4  7  2       -2 0.134152429426D-03 0.100000000000D+01
  </mgrwgt>
  </event>
  <event>
  9     66 0.26993063E-05 0.28509074E+03 0.75467711E-02 0.94712977E-01
        2 -1    0    0  501    0 0.00000000E+00 0.00000000E+00 0.32572529E+04 0.32572530E+04 0.32000000E+00 0.0000E+00 0.9000E+01
       -2 -1    0    0    0  502 0.00000000E+00 0.00000000E+00 -.94724269E+02 0.94724809E+02 0.32000000E+00 0.0000E+00 0.9000E+01
       25  2    1    2    0    0 0.22041269E+03 0.52926969E+02 0.19518875E+04 0.19876107E+04 0.29891214E+03 0.0000E+00 0.0000E+00
       23  2    1    2    0    0 0.21811713E+02 -.27744388E+03 0.48317611E+03 0.56543873E+03 0.93866665E+02 0.0000E+00 0.0000E+00
       24  1    3    3    0    0 0.14696721E+02 0.11495319E+03 0.90074753E+03 0.91172559E+03 0.80419002E+02 0.0000E+00 0.9000E+01
      -11  1    4    4    0    0 0.55006851E+02 -.19765915E+03 0.30756617E+03 0.36971859E+03 0.51099893E-03 0.0000E+00 0.9000E+01
       11  1    4    4    0    0 -.33195138E+02 -.79784731E+02 0.17560994E+03 0.19572013E+03 0.51099893E-03 0.0000E+00 0.9000E+01
      -24  1    3    3    0    0 0.20571597E+03 -.62026217E+02 0.10511400E+04 0.10758851E+04 0.80419002E+02 0.0000E+00 0.9000E+01
       21  1    1    2  501  502 -.24222440E+03 0.22451691E+03 0.72746505E+03 0.79892832E+03 0.75000000E+00 0.0000E+00 0.9000E+01
#aMCatNLO 2  0  0  2  1 0.33027337D+03 0.00000000D+00  -5  7  0 0.00000000D+00 0.00000000D+00 0.00000000D+00 0.00000000D+00 0.00000000D+00
  <mgrwgt>
 0.2632593235D-04    1    2    0
 0.346210239183915D+03 0.000000000000000D+00 0.000000000000000D+00 0.346210239183915D+03
 0.346210239183915D+03 0.000000000000000D+00 0.000000000000000D+00 -.346210239183915D+03
 0.226093840943798D+03 -.518779691503038D+02 0.176661021580795D+03 0.103685913841848D+03
 0.198239145299235D+03 -.200683224784313D+02 -.128072242192794D+03 -.149978404917453D+03
 0.898145859690383D+02 -.636891802613679D+02 -.515199151769582D+02 -.368245368006685D+02
 0.178272906155759D+03 0.135635471890103D+03 0.293113578895750D+01 0.831170278762733D+02
 0.000000000000000D+00 -.000000000000000D+00 0.000000000000000D+00 -.000000000000000D+00
 0.500954133787651D+03 0.000000000000000D+00 0.000000000000000D+00 0.500954133787651D+03
 0.615907433703745D+03 0.000000000000000D+00 0.000000000000000D+00 -.615907433703745D+03
 0.175066311047820D+03 0.146967205490103D+02 0.114953186060269D+03 0.103685913841848D+03
 0.254142505730259D+03 0.550068510985825D+02 -.197659145018614D+03 -.149978404917453D+03
 0.939338438224468D+02 -.331951378312515D+02 -.797847311773390D+02 -.368245368006685D+02
 0.244012226146025D+03 0.205715965947281D+03 -.620262169228505D+02 0.831170278762733D+02
 0.349706680744846D+03 -.242224399763622D+03 0.224516907058535D+03 -.114953299916094D+03
0.423721170333D-05 0.000000000000D+00 0.000000000000D+00 0.839597534267D-07 0.539351287553D-11  7 2 -2 24 -11 11 -24 21 2 0.50111551D+00 0.14572996D-01 0.24618311D+06 0.24618311D+06 0.24618311D+06 0.10909621D+01  1  2  1  2  7  2       -2 0.263259323474D-04 0.100000000000D+01
  </mgrwgt>
  </event>
  <event>
  8     66 0.26993063E-05 0.26616716E+03 0.75467711E-02 0.98074875E-01
        2 -1    0    0  501    0 0.00000000E+00 0.00000000E+00 0.22534232E+03 0.22534255E+03 0.32000000E+00 0.0000E+00 0.9000E+01
       -2 -1    0    0    0  501 0.00000000E+00 0.00000000E+00 -.46948736E+03 0.46948746E+03 0.32000000E+00 0.0000E+00 0.9000E+01
       25  2    1    2    0    0 0.21276863E+03 -.36953945E-01 -.27686219E+03 0.46080460E+03 0.30069538E+03 0.0000E+00 0.0000E+00
       23  2    1    2    0    0 -.21276863E+03 0.36953945E-01 0.32717156E+02 0.23402542E+03 0.91798641E+02 0.0000E+00 0.0000E+00
       24  1    3    3    0    0 0.15323101E+03 0.61329832E+02 -.28943423E+03 0.34275426E+03 0.80419002E+02 0.0000E+00 0.9000E+01
      -13  1    4    4    0    0 0.92169924E+01 0.16581677E+01 -.12556406E+01 0.94493527E+01 0.10565837E+00 0.0000E+00 0.9000E+01
       13  1    4    4    0    0 -.22198562E+03 -.16212137E+01 0.33972797E+02 0.22457606E+03 0.10565837E+00 0.0000E+00 0.9000E+01
      -24  1    3    3    0    0 0.59537623E+02 -.61366786E+02 0.12572043E+02 0.11805034E+03 0.80419002E+02 0.0000E+00 0.9000E+01
#aMCatNLO 1  0  0  1  1 0.17895631D+03 0.00000000D+00  -5  7  0 0.00000000D+00 0.00000000D+00 0.00000000D+00 0.00000000D+00 0.00000000D+00
  <mgrwgt>
 0.1726576557D-02    3    2    0
 0.325262183457001D+03 0.000000000000000D+00 0.000000000000000D+00 0.325262183457001D+03
 0.325262183457001D+03 0.000000000000000D+00 0.000000000000000D+00 -.325262183457001D+03
 0.257472316864458D+03 0.153231009959856D+03 0.613298318233312D+02 -.180509521389831D+03
 0.962135478012149D+01 0.921729820563976D+01 0.165817195486453D+01 0.220507309660663D+01
 0.252621879224242D+03 -.221985930943975D+03 -.162121800999078D+01 0.120571273435627D+03
 0.130808816045180D+03 0.595376227784793D+02 -.613667857682050D+02 0.577331748575973D+02
 0.000000000000000D+00 -.000000000000000D+00 -.000000000000000D+00 -.000000000000000D+00
 0.345819123338173D+03 0.000000000000000D+00 0.000000000000000D+00 0.345819123338173D+03
 0.128217339991780D+04 0.000000000000000D+00 0.000000000000000D+00 -.128217339991780D+04
 0.309917325766224D+03 0.211050472936086D+03 0.111604405902212D+03 -.180509521389831D+03
 0.121915431143474D+02 0.114401270122531D+02 0.359094278583359D+01 0.220507309660663D+01
 0.215630816090781D+03 -.174268952440879D+03 0.398691495425485D+02 0.120571273435627D+03
 0.136950844953105D+03 0.868234923862465D+02 -.376414621091748D+02 0.577331748575973D+02
 0.953301993331515D+03 -.135045139893706D+03 -.117423036121420D+03 -.936354276579627D+03
0.518048257751D-04 0.000000000000D+00 0.000000000000D+00 0.852276515437D-06 0.000000000000D+00  7 2 -2 24 -13 13 -24 21 0 0.34668075D-01 0.72228850D-01 0.70844957D+05 0.70844957D+05 0.70844957D+05 0.11342169D+01  1  2  2  1  7  1        2 0.169963049236D-02 0.100000000000D+01
-.273736389789D-05 0.000000000000D+00 -.198944171500D-06 0.852276515437D-06 0.000000000000D+00  7 2 -2 24 -13 13 -24 21 2 0.34668075D-01 0.72228850D-01 0.70844957D+05 0.70844957D+05 0.70844957D+05 0.11342169D+01  1  2  3  1  7  1        2 -.115533802130D-03 0.100000000000D+01
0.337580203925D-05 0.000000000000D+00 0.000000000000D+00 0.852276515437D-06 0.000000000000D+00  7 2 -2 24 -13 13 -24 21 2 0.34668075D-01 0.72228850D-01 0.70844957D+05 0.70844957D+05 0.70844957D+05 0.11342169D+01  1  2 15  1  7  1        2 0.142479867267D-03 0.100000000000D+01
  </mgrwgt>
  </event>
  <event>
  8     66 0.26993063E-05 0.11784907E+03 0.75467711E-02 0.10481978E+00
        2 -1    0    0  501    0 0.00000000E+00 0.00000000E+00 0.10042946E+04 0.10042946E+04 0.32000000E+00 0.0000E+00 0.9000E+01
       -2 -1    0    0    0  501 0.00000000E+00 0.00000000E+00 -.51848731E+02 0.51849719E+02 0.32000000E+00 0.0000E+00 0.9000E+01
       25  2    1    2    0    0 0.17022465E+02 -.87546919E+01 0.89946839E+03 0.94860648E+03 0.30073985E+03 0.0000E+00 0.0000E+00
       23  2    1    2    0    0 -.17022465E+02 0.87546919E+01 0.52977454E+02 0.10753787E+03 0.91604437E+02 0.0000E+00 0.0000E+00
       24  1    3    3    0    0 0.84543211E+02 -.10490647E+03 0.52660486E+03 0.54948414E+03 0.80419002E+02 0.0000E+00 0.9000E+01
      -11  1    4    4    0    0 0.16391025E+01 -.20228146E+02 0.67237570E+02 0.70233577E+02 0.51099893E-03 0.0000E+00 0.9000E+01
       11  1    4    4    0    0 -.18661567E+02 0.28982838E+02 -.14260116E+02 0.37304288E+02 0.51099893E-03 0.0000E+00 0.9000E+01
      -24  1    3    3    0    0 -.67520747E+02 0.96151781E+02 0.37286353E+03 0.39912234E+03 0.80419002E+02 0.0000E+00 0.9000E+01
#aMCatNLO 1  0  0  2  1 0.81704620D+02 0.00000000D+00  -5  7  0 0.00000000D+00 0.00000000D+00 0.00000000D+00 0.00000000D+00 0.00000000D+00
  <mgrwgt>
 0.6523105775D-03    9    2    0
 0.228192786263336D+03 0.000000000000000D+00 0.000000000000000D+00 0.228192786263336D+03
 0.228192786263336D+03 0.000000000000000D+00 0.000000000000000D+00 -.228192786263336D+03
 0.172599570430730D+03 0.845432111334389D+02 -.104906472698613D+03 0.719060025010696D+02
 0.222107182049267D+02 0.163910253323049D+01 -.202281462533709D+02 0.902504544124054D+01
 0.116087588846660D+03 -.186615670669660D+02 0.289828382104806D+02 -.110851564211342D+03
 0.145487695044356D+03 -.675207465997034D+02 0.961517807415035D+02 0.299205162690321D+02
 0.000000000000000D+00 0.000000000000000D+00 0.000000000000000D+00 -.000000000000000D+00
 0.255835334923381D+03 0.000000000000000D+00 0.000000000000000D+00 0.255835334923381D+03
 0.301316475389919D+03 0.000000000000000D+00 0.000000000000000D+00 -.301316475389919D+03
 0.178079812957694D+03 0.626679321863821D+02 -.127072659956719D+03 0.719060025010696D+02
 0.249352607345690D+02 -.130185005590758D+01 -.232082090889499D+02 0.902504544124054D+01
 0.116586846737497D+03 -.331757313530790D+02 0.142756573676880D+02 -.110851564211342D+03
 0.144039574441477D+03 -.855813742921135D+02 0.778509738627523D+02 0.299205162690321D+02
 0.935103154420628D+02 0.573910235147179D+02 0.581542378152287D+02 -.454811404665384D+02
0.223264251811D-05 0.000000000000D+00 0.000000000000D+00 0.269298454230D-06 0.000000000000D+00  7 2 -2 24 -11 11 -24 21 0 0.15450694D+00 0.79768078D-02 0.31338101D+05 0.31338101D+05 0.31338101D+05 0.11655816D+01  1  2  2  2  7  2       -2 0.597752017177D-03 0.100000000000D+01
-.114314057941D-06 0.000000000000D+00 -.857393513782D-08 0.269298454230D-06 0.000000000000D+00  7 2 -2 24 -11 11 -24 21 2 0.15450694D+00 0.79768078D-02 0.31338101D+05 0.31338101D+05 0.31338101D+05 0.11655816D+01  1  2  3  2  7  2       -2 -.415802315181D-04 0.100000000000D+01
0.141564282885D-06 0.000000000000D+00 0.000000000000D+00 0.269298454230D-06 0.000000000000D+00  7 2 -2 24 -11 11 -24 21 2 0.15450694D+00 0.79768078D-02 0.31338101D+05 0.31338101D+05 0.31338101D+05 0.11655816D+01  1  2 15  2  7  2       -2 0.514921415883D-04 0.100000000000D+01
0.119840166963D-05 0.000000000000D+00 0.000000000000D+00 0.269298454230D-06 0.000000000000D+00  7 2 -2 24 -11 11 -24 21 2 0.15450694D+00 0.10895519D-01 0.49479734D+05 0.49479734D+05 0.49479734D+05 0.11476952D+01  1  2 12  2  7  2       -2 0.264047414401D-03 0.100000000000D+01
-.168375320681D-05 0.000000000000D+00 0.000000000000D+00 0.269298454230D-06 0.000000000000D+00  7 2 -2 24 -11 11 -24 21 2 0.15450694D+00 0.79768078D-02 0.31338101D+05 0.31338101D+05 0.31338101D+05 0.11655816D+01  1  2  4  2  7  2       -2 -.612443031240D-03 0.100000000000D+01
-.217106061957D-05 0.000000000000D+00 -.940381687400D-06 0.269298454230D-06 0.000000000000D+00  7 2 -2 24 -11 11 -24 21 2 0.15450694D+00 0.11819981D-01 0.31338101D+05 0.31338101D+05 0.31338101D+05 0.11655816D+01  1  2  5  2  7  2       -2 -.434680655873D-03 0.100000000000D+01
0.241965358975D-05 0.000000000000D+00 0.872075787336D-06 0.269298454230D-06 0.000000000000D+00  7 2 -2 24 -11 11 -24 21 2 0.15450694D+00 0.79768078D-02 0.31338101D+05 0.31338101D+05 0.31338101D+05 0.11655816D+01  1  2  6  2  7  2       -2 0.880117093798D-03 0.100000000000D+01
0.476339879921D-07 0.000000000000D+00 0.000000000000D+00 0.269298454230D-06 0.000000000000D+00  7 2 21 24 -11 11 -24 2 2 0.15450694D+00 0.10895519D-01 0.49479734D+05 0.49479734D+05 0.49479734D+05 0.11476952D+01  1  2 12  4  7  2       -2 0.152954088782D-03 0.100000000000D+01
-.707003578093D-07 0.000000000000D+00 -.442074780649D-07 0.269298454230D-06 0.000000000000D+00  7 2 21 24 -11 11 -24 2 2 0.15450694D+00 0.11819981D-01 0.31338101D+05 0.31338101D+05 0.31338101D+05 0.11655816D+01  1  2  5  4  7  2       -2 -.205348259641D-03 0.100000000000D+01
  </mgrwgt>
  </event>
  <event>
  8     66 0.26993063E-05 0.31658720E+03 0.75467711E-02 0.99419495E-01
        2 -1    0    0  501    0 0.00000000E+00 0.00000000E+00 0.15897026E+03 0.15897058E+03 0.32000000E+00 0.0000E+00 0.9000E+01
       21 -1    0    0  502  501 0.00000000E+00 0.00000000E+00 -.12107706E+04 0.12107708E+04 0.75000000E+00 0.0000E+00 0.9000E+01
       25  2    1    2    0    0 -.98165727E+02 -.85488338E+01 -.49280226E+03 0.58530123E+03 0.30002312E+03 0.0000E+00 0.0000E+00
       24  1    3    3    0    0 -.74287110E+02 0.11964316E+03 -.23839188E+03 0.28832441E+03 0.80419002E+02 0.0000E+00 0.9000E+01
      -13  1    1    2    0    0 0.12841129E+03 0.14773032E+03 -.53784091E+03 0.57235178E+03 0.10565837E+00 0.0000E+00 0.9000E+01
       13  1    1    2    0    0 0.12702807E+01 -.12193103E+03 0.50458330E+02 0.13196532E+03 0.10565837E+00 0.0000E+00 0.9000E+01
      -24  1    3    3    0    0 -.23878617E+02 -.12819200E+03 -.25441038E+03 0.29697682E+03 0.80419002E+02 0.0000E+00 0.9000E+01
        2  1    1    2  502    0 -.31515846E+02 -.17250450E+02 -.71615470E+02 0.80123059E+02 0.32000000E+00 0.0000E+00 0.9000E+01
#aMCatNLO 2  0  0  2  1 0.35928075D+02 0.00000000D+00  -5  7  0 0.00000000D+00 0.00000000D+00 0.00000000D+00 0.00000000D+00 0.00000000D+00
  <mgrwgt>
 0.2544908425D-03    2    2    0
 0.418647312027645D+03 0.000000000000000D+00 0.000000000000000D+00 0.418647312027645D+03
 0.418647312027645D+03 0.000000000000000D+00 0.000000000000000D+00 -.418647312027645D+03
 0.165387800537212D+03 -.805938209015009D+02 0.116230108950650D+03 -.296834367616514D+02
 0.243979215435139D+03 0.119155212336731D+03 0.142594668870196D+03 -.158096974503415D+03
 0.264760481643284D+03 -.852101222293783D+01 -.127298546143596D+03 0.231992640272072D+03
 0.163167126439655D+03 -.300403792122925D+02 -.131526231677250D+03 -.442122290070056D+02
 0.000000000000000D+00 -.000000000000000D+00 -.000000000000000D+00 -.000000000000000D+00
 0.430552823796541D+03 0.000000000000000D+00 0.000000000000000D+00 0.430552823796541D+03
 0.447044615685525D+03 0.000000000000000D+00 0.000000000000000D+00 -.447044615685525D+03
 0.164901074379450D+03 -.743806279517150D+02 0.119630949777439D+03 -.296834367616514D+02
 0.251626559348807D+03 0.128478246019103D+03 0.147697705880761D+03 -.158096974503415D+03
 0.262060700550414D+03 0.138922667272484D+01 -.121874097665658D+03 0.231992640272072D+03
 0.159476767031209D+03 -.239709989925970D+02 -.128204107897856D+03 -.442122290070056D+02
 0.395323381721855D+02 -.315158457475160D+02 -.172504500946859D+02 -.164917918889842D+02
-.548631030556D-04 0.000000000000D+00 0.000000000000D+00 0.380361363819D-09 0.000000000000D+00  7 2 21 24 -13 13 -24 2 2 0.23780693D-01 0.18862946D+00 0.11189074D+06 0.11189074D+06 0.11189074D+06 0.11177398D+01  1  2 13  4  7  2       -2 -.251983804197D-02 0.100000000000D+01
0.598941019212D-04 0.000000000000D+00 0.000000000000D+00 0.380361363819D-09 0.228172598633D-13  7 2 21 24 -13 13 -24 2 2 0.24456970D-01 0.18627216D+00 0.11189074D+06 0.11189074D+06 0.11189074D+06 0.11177398D+01  1  2  1  4  7  2       -2 0.277432888452D-02 0.100000000000D+01
  </mgrwgt>
  </event>
  <event>
  8     66 0.26993063E-05 0.51800033E+03 0.75467711E-02 0.87740048E-01
        2 -1    0    0  501    0 0.00000000E+00 0.00000000E+00 0.30825476E+04 0.30825476E+04 0.32000000E+00 0.0000E+00 0.9000E+01
       -2 -1    0    0    0  501 0.00000000E+00 0.00000000E+00 -.11625813E+03 0.11625857E+03 0.32000000E+00 0.0000E+00 0.9000E+01
       25  2    1    2    0    0 0.22335386E+03 -.42476159E+03 0.23202121E+04 0.23881358E+04 0.29916412E+03 0.0000E+00 0.0000E+00
       23  2    1    2    0    0 -.22335386E+03 0.42476159E+03 0.64607733E+03 0.81067033E+03 0.97268234E+02 0.0000E+00 0.0000E+00
       24  1    3    3    0    0 0.18754859E+03 -.41058240E+03 0.21192619E+04 0.21682921E+04 0.80419002E+02 0.0000E+00 0.9000E+01
      -13  1    4    4    0    0 -.11790617E+03 0.13110795E+03 0.20514161E+03 0.27050740E+03 0.10565837E+00 0.0000E+00 0.9000E+01
       13  1    4    4    0    0 -.10544770E+03 0.29365364E+03 0.44093571E+03 0.54016293E+03 0.10565837E+00 0.0000E+00 0.9000E+01
      -24  1    3    3    0    0 0.35805269E+02 -.14179195E+02 0.20095017E+03 0.21984370E+03 0.80419002E+02 0.0000E+00 0.9000E+01
#aMCatNLO 1  0  0  1  1 0.71949365D+03 0.00000000D+00  -5  7  0 0.00000000D+00 0.00000000D+00 0.00000000D+00 0.00000000D+00 0.00000000D+00
  <mgrwgt>
 0.5130894245D-03    3    2    0
 0.598641762579811D+03 0.000000000000000D+00 0.000000000000000D+00 0.598641762579811D+03
 0.598641762579811D+03 0.000000000000000D+00 0.000000000000000D+00 -.598641762579811D+03
 0.542563153368473D+03 0.187548593926969D+03 -.410582397783137D+03 0.290095120581918D+03
 0.214478129601628D+03 -.117906178940147D+03 0.131107760159374D+03 -.122105512861371D+03
 0.350738776608769D+03 -.105447684416203D+03 0.293653832874370D+03 -.160205810464129D+03
 0.895034655807529D+02 0.358052694293814D+02 -.141791952506083D+02 -.778379725641821D+01
 0.000000000000000D+00 0.000000000000000D+00 -.000000000000000D+00 -.000000000000000D+00
 0.812949248305851D+03 0.000000000000000D+00 0.000000000000000D+00 0.812949248305851D+03
 0.182841169450616D+04 0.000000000000000D+00 0.000000000000000D+00 -.182841169450616D+04
 0.361790079823098D+03 0.878735961725962D+02 -.180410360052551D+03 0.290095120581918D+03
 0.350682081091319D+03 -.180196377796270D+03 0.274949870260933D+03 -.122105512861371D+03
 0.596315024222985D+03 -.209829005792182D+03 0.534693832707892D+03 -.160205810464129D+03
 0.880517266874311D+02 0.162356889368666D+02 0.310113773200066D+02 -.778379725641821D+01
 0.124452203098718D+04 0.285916098478989D+03 -.660244720236281D+03 -.101546244620031D+04
0.104796990494D-03 0.000000000000D+00 0.000000000000D+00 0.464328287477D-07 0.000000000000D+00  7 2 -2 24 -13 13 -24 21 0 0.47423812D+00 0.17885902D-01 0.26832434D+06 0.26832434D+06 0.26832434D+06 0.10881555D+01  1  2  2  1  7  1        2 0.507397395299D-03 0.100000000000D+01
-.567386475580D-05 0.000000000000D+00 -.402448037179D-06 0.464328287477D-07 0.000000000000D+00  7 2 -2 24 -13 13 -24 21 2 0.47423812D+00 0.17885902D-01 0.26832434D+06 0.26832434D+06 0.26832434D+06 0.10881555D+01  1  2  3  1  7  1        2 -.325282248367D-04 0.100000000000D+01
0.666671953905D-05 0.000000000000D+00 0.000000000000D+00 0.464328287477D-07 0.000000000000D+00  7 2 -2 24 -13 13 -24 21 2 0.47423812D+00 0.17885902D-01 0.26832434D+06 0.26832434D+06 0.26832434D+06 0.10881555D+01  1  2 15  1  7  1        2 0.382202539932D-04 0.100000000000D+01
  </mgrwgt>
  </event>
  <event>
  8     66 0.26993063E-05 0.21050256E+03 0.75467711E-02 0.92392614E-01
        2 -1    0    0  501    0 0.00000000E+00 0.00000000E+00 0.29184214E+04 0.29184214E+04 0.32000000E+00 0.0000E+00 0.9000E+01
       -2 -1    0    0    0  501 0.00000000E+00 0.00000000E+00 -.24453219E+02 0.24455313E+02 0.32000000E+00 0.0000E+00 0.9000E+01
       25  2    1    2    0    0 -.35649933E+02 -.97096564E+02 0.25863619E+04 0.26057667E+04 0.30008981E+03 0.0000E+00 0.0000E+00
       23  2    1    2    0    0 0.35649933E+02 0.97096564E+02 0.30760627E+03 0.33710995E+03 0.91229618E+02 0.0000E+00 0.0000E+00
       24  1    3    3    0    0 -.22526907E+02 0.79443956E+02 0.70201576E+03 0.71141559E+03 0.80419002E+02 0.0000E+00 0.9000E+01
      -11  1    4    4    0    0 0.78392653E+01 0.75980217E+02 0.96188233E+02 0.12282762E+03 0.51099893E-03 0.0000E+00 0.9000E+01
       11  1    4    4    0    0 0.27810668E+02 0.21116346E+02 0.21141803E+03 0.21428233E+03 0.51099893E-03 0.0000E+00 0.9000E+01
      -24  1    3    3    0    0 -.13123026E+02 -.17654052E+03 0.18843461E+04 0.18943511E+04 0.80419002E+02 0.0000E+00 0.9000E+01
#aMCatNLO 1  0  0  2  1 0.55575823D+03 0.00000000D+00  -5  7  0 0.00000000D+00 0.00000000D+00 0.00000000D+00 0.00000000D+00 0.00000000D+00
  <mgrwgt>
 0.1574521915D-02    5    2    0
 0.267147717952373D+03 0.000000000000000D+00 0.000000000000000D+00 0.267147717952373D+03
 0.267147717952373D+03 0.000000000000000D+00 0.000000000000000D+00 -.267147717952373D+03
 0.116035285867440D+03 -.225269069433447D+02 0.794439556263793D+02 0.133479582696301D+02
 0.155533522524077D+03 0.783926531613584D+01 0.759802173992842D+02 -.135485161962513D+03
 0.351293090266070D+02 0.278106679908963D+02 0.211163464036936D+02 0.383862125589449D+01
 0.227597318486622D+03 -.131230263636874D+02 -.176540519429357D+03 0.118298582436988D+03
 0.000000000000000D+00 -.000000000000000D+00 0.000000000000000D+00 -.000000000000000D+00
 0.495485973605026D+03 0.000000000000000D+00 0.000000000000000D+00 0.495485973605026D+03
 0.108731588983686D+04 0.000000000000000D+00 0.000000000000000D+00 -.108731588983686D+04
 0.818290925057788D+02 -.633644200866064D+01 -.323511029979956D+01 0.133479582696301D+02
 0.148426714061396D+03 0.327111376179441D+02 -.510317725617587D+02 -.135485161962513D+03
 0.346919561521615D+02 0.335238678850169D+02 -.805897577519718D+01 0.383862125589449D+01
 0.505985971427854D+03 0.469032129709521D+02 -.483073618958663D+03 0.118298582436988D+03
 0.811868129294699D+03 -.106801776465253D+03 0.545399477595419D+03 -.591829916231838D+03
0.189269642774D-04 0.000000000000D+00 0.000000000000D+00 0.183396707686D-05 0.000000000000D+00  7 2 -2 24 -11 11 -24 21 0 0.44898806D+00 0.37621961D-02 0.44311327D+05 0.44311327D+05 0.44311327D+05 0.11519381D+01  1  2  2  2  7  2       -2 0.136900262342D-02 0.100000000000D+01
-.978895372894D-06 0.000000000000D+00 -.726845264093D-07 0.183396707686D-05 0.000000000000D+00  7 2 -2 24 -11 11 -24 21 2 0.44898806D+00 0.37621961D-02 0.44311327D+05 0.44311327D+05 0.44311327D+05 0.11519381D+01  1  2  3  2  7  2       -2 -.939545644862D-04 0.100000000000D+01
0.118397213084D-05 0.000000000000D+00 0.000000000000D+00 0.183396707686D-05 0.000000000000D+00  7 2 -2 24 -11 11 -24 21 2 0.44898806D+00 0.37621961D-02 0.44311327D+05 0.44311327D+05 0.44311327D+05 0.11519381D+01  1  2 15  2  7  2       -2 0.113637870806D-03 0.100000000000D+01
0.647367345829D-04 0.000000000000D+00 -.226557929227D-04 0.183396707686D-05 0.000000000000D+00  7 2 -2 24 -11 11 -24 21 2 0.44898806D+00 0.66404702D-01 0.44311327D+05 0.44311327D+05 0.44311327D+05 0.11519381D+01  1  2  5  2  7  2       -2 0.542925508913D-04 0.100000000000D+01
0.149123866150D-04 0.000000000000D+00 -.713498874858D-05 0.183396707686D-05 0.000000000000D+00  7 2 21 24 -11 11 -24 2 2 0.44898806D+00 0.66404702D-01 0.44311327D+05 0.44311327D+05 0.44311327D+05 0.11519381D+01  1  2  5  4  7  2       -2 0.131543433966D-03 0.100000000000D+01
  </mgrwgt>
  </event>
  <event>
  8     66 0.26993063E-05 0.20014601E+03 0.75467711E-02 0.94838020E-01
        2 -1    0    0  501    0 0.00000000E+00 0.00000000E+00 0.68194585E+03 0.68194592E+03 0.32000000E+00 0.0000E+00 0.9000E+01
       -2 -1    0    0    0  501 0.00000000E+00 0.00000000E+00 -.30568361E+03 0.30568378E+03 0.32000000E+00 0.0000E+00 0.9000E+01
       25  2    1    2    0    0 0.84345020E+02 -.54354129E+02 -.21338646E+03 0.38169597E+03 0.30014926E+03 0.0000E+00 0.0000E+00
       23  2    1    2    0    0 -.84345020E+02 0.54354129E+02 0.58964870E+03 0.60593373E+03 0.96962051E+02 0.0000E+00 0.0000E+00
       24  1    3    3    0    0 -.69914157E+02 0.37536802E+01 -.88867660E+01 0.10699659E+03 0.80419002E+02 0.0000E+00 0.9000E+01
      -13  1    4    4    0    0 -.30651937E+02 -.40511274E+01 0.38814582E+03 0.38937532E+03 0.10565837E+00 0.0000E+00 0.9000E+01
       13  1    4    4    0    0 -.53693083E+02 0.58405256E+02 0.20150288E+03 0.21655841E+03 0.10565837E+00 0.0000E+00 0.9000E+01
      -24  1    3    3    0    0 0.15425918E+03 -.58107809E+02 -.20449969E+03 0.27469938E+03 0.80419002E+02 0.0000E+00 0.9000E+01
#aMCatNLO 1  0  0  1  1 0.41194621D+03 0.00000000D+00  -5  7  0 0.00000000D+00 0.00000000D+00 0.00000000D+00 0.00000000D+00 0.00000000D+00
  <mgrwgt>
 0.1086567613D-02    3    2    0
 0.456573967013818D+03 0.000000000000000D+00 0.000000000000000D+00 0.456573967013818D+03
 0.456573967013818D+03 0.000000000000000D+00 0.000000000000000D+00 -.456573967013818D+03
 0.119385654075071D+03 -.699141566574561D+02 0.375368017401918D+01 -.536995254037683D+02
 0.261199884900046D+03 -.306519124523927D+02 -.405119691261046D+01 0.259363505409653D+03
 0.151192881715238D+03 -.536931082340832D+02 0.584053260686122D+02 0.128705693333046D+03
 0.381369513337281D+03 0.154259177343932D+03 -.581078093300209D+02 -.334369673338931D+03
 0.000000000000000D+00 -.000000000000000D+00 0.000000000000000D+00 -.000000000000000D+00
 0.594531565350381D+03 0.000000000000000D+00 0.000000000000000D+00 0.594531565350381D+03
 0.953911045256304D+03 0.000000000000000D+00 0.000000000000000D+00 -.953911045256304D+03
 0.102569516507180D+03 -.281599041887358D+02 -.194080016909858D+02 -.536995254037683D+02
 0.275343463732092D+03 0.702827329556400D+02 -.600410903456035D+02 0.259363505409653D+03
 0.131903157965684D+03 -.437022860069781D+00 0.288634127573272D+02 0.128705693333046D+03
 0.491951714194953D+03 0.318548546791897D+03 -.149241475578906D+03 -.334369673338931D+03
 0.546674758206776D+03 -.360234352698732D+03 0.199827154858168D+03 -.359379479905923D+03
0.436668661824D-04 0.000000000000D+00 0.000000000000D+00 0.217478088237D-06 0.000000000000D+00  7 2 -2 24 -13 13 -24 21 0 0.10491476D+00 0.47028266D-01 0.40058426D+05 0.40058426D+05 0.40058426D+05 0.11558613D+01  1  2  2  1  7  1        2 0.101707792827D-02 0.100000000000D+01
-.419817709672D-06 0.000000000000D+00 -.167692263890D-06 0.217478088237D-06 0.000000000000D+00  7 2 -2 24 -13 13 -24 21 2 0.10491476D+00 0.47028266D-01 0.40058426D+05 0.40058426D+05 0.40058426D+05 0.11558613D+01  1  2  3  1  7  1        2 -.130639472944D-04 0.100000000000D+01
0.265291000844D-05 0.000000000000D+00 0.000000000000D+00 0.217478088237D-06 0.000000000000D+00  7 2 -2 24 -13 13 -24 21 2 0.10491476D+00 0.47028266D-01 0.40058426D+05 0.40058426D+05 0.40058426D+05 0.11558613D+01  1  2 15  1  7  1        2 0.825536315607D-04 0.100000000000D+01
  </mgrwgt>
  </event>
  <event>
  8     66 0.26993063E-05 0.33566540E+03 0.75467711E-02 0.87326073E-01
        2 -1    0    0  501    0 0.00000000E+00 0.00000000E+00 0.91915546E+03 0.91915551E+03 0.32000000E+00 0.0000E+00 0.9000E+01
       -2 -1    0    0    0  501 0.00000000E+00 0.00000000E+00 -.17486208E+03 0.17486237E+03 0.32000000E+00 0.0000E+00 0.9000E+01
       25  2    1    2    0    0 -.29007120E+03 0.11456078E+03 0.59517586E+03 0.73667831E+03 0.30198535E+03 0.0000E+00 0.0000E+00
       23  2    1    2    0    0 0.29007120E+03 -.11456078E+03 0.14911752E+03 0.35733958E+03 0.90498987E+02 0.0000E+00 0.0000E+00
       24  1    3    3    0    0 -.75358116E+02 0.25393432E+02 0.41925569E+03 0.43424213E+03 0.80419002E+02 0.0000E+00 0.9000E+01
      -13  1    4    4    0    0 0.17237406E+03 -.75876234E+02 0.40642362E+02 0.19267027E+03 0.10565837E+00 0.0000E+00 0.9000E+01
       13  1    4    4    0    0 0.11769714E+03 -.38684545E+02 0.10847516E+03 0.16466931E+03 0.10565837E+00 0.0000E+00 0.9000E+01
      -24  1    3    3    0    0 -.21471308E+03 0.89167347E+02 0.17592017E+03 0.30243618E+03 0.80419002E+02 0.0000E+00 0.9000E+01
#aMCatNLO 1  0  0  1  2 0.89010475D+03 0.00000000D+00  -5  7  0 0.00000000D+00 0.00000000D+00 0.00000000D+00 0.00000000D+00 0.00000000D+00
  <mgrwgt>
 0.1249981701D-02    3    2    0
 0.400906004200956D+03 0.000000000000000D+00 0.000000000000000D+00 0.400906004200956D+03
 0.400906004200956D+03 0.000000000000000D+00 0.000000000000000D+00 -.400906004200956D+03
 0.203313761232579D+03 -.753581178780686D+02 0.253934331956533D+02 0.168954423359025D+03
 0.225158749732948D+03 0.172374135186005D+03 -.758762852263974D+02 -.123395338001173D+03
 0.123986315567707D+03 0.117697063322079D+03 -.386844945818805D+02 -.484949609321299D+01
 0.249353181868677D+03 -.214713080630015D+03 0.891673466126245D+02 -.407095892646389D+02
 0.000000000000000D+00 0.000000000000000D+00 0.000000000000000D+00 -.000000000000000D+00
 0.762764763433957D+03 0.000000000000000D+00 0.000000000000000D+00 0.762764763433957D+03
 0.180846232830079D+04 0.000000000000000D+00 0.000000000000000D+00 -.180846232830079D+04
 0.288421723912033D+03 -.108117066459789D+03 -.191010412379972D+03 0.168954423359025D+03
 0.391053335258719D+03 0.131322674354903D+03 -.347060018983490D+03 -.123395338001173D+03
 0.208153527146779D+03 0.955702240799913D+02 -.184853199919793D+03 -.484949609321299D+01
 0.310365141409445D+03 -.252000980987913D+03 -.157154509864554D+03 -.407095892646389D+02
 0.137323336400777D+04 0.133225149012807D+03 0.880078141147810D+03 -.104569756486683D+04
0.284745159674D-04 0.000000000000D+00 0.000000000000D+00 0.223256726327D-06 0.000000000000D+00  7 2 -2 24 -13 13 -24 21 0 0.14140856D+00 0.26901885D-01 0.11267126D+06 0.11267126D+06 0.11267126D+06 0.11174948D+01  1  2  2  1  7  1        2 0.123385715108D-02 0.100000000000D+01
-.152124241396D-05 0.000000000000D+00 -.109349638827D-06 0.223256726327D-06 0.000000000000D+00  7 2 -2 24 -13 13 -24 21 2 0.14140856D+00 0.26901885D-01 0.11267126D+06 0.11267126D+06 0.11267126D+06 0.11174948D+01  1  2  3  1  7  1        2 -.823186027731D-04 0.100000000000D+01
0.181922305114D-05 0.000000000000D+00 0.000000000000D+00 0.223256726327D-06 0.000000000000D+00  7 2 -2 24 -13 13 -24 21 2 0.14140856D+00 0.26901885D-01 0.11267126D+06 0.11267126D+06 0.11267126D+06 0.11174948D+01  1  2 15  1  7  1        2 0.984431529964D-04 0.100000000000D+01
  </mgrwgt>
  </event>
  <event>
  7     66 0.26993063E-05 0.37124894E+03 0.75467711E-02 0.91450346E-01
        2 -1    0    0  501    0 0.00000000E+00 0.00000000E+00 0.14128904E+04 0.14128905E+04 0.32000000E+00 0.0000E+00 0.9000E+01
       -2 -1    0    0    0  501 0.00000000E+00 0.00000000E+00 -.32638286E+03 0.32638302E+03 0.32000000E+00 0.0000E+00 0.9000E+01
       25  2    1    2    0    0 -.24561230E+03 -.55919700E+03 0.71089562E+03 0.98422821E+03 0.30050938E+03 0.0000E+00 0.0000E+00
       24  1    3    3    0    0 -.24768531E+02 -.34348556E+03 0.29805766E+03 0.46249475E+03 0.80419002E+02 0.0000E+00 0.9000E+01
      -11  1    1    2    0    0 0.85133015E+02 0.41998389E+03 0.17510686E+03 0.46292171E+03 0.51099893E-03 0.0000E+00 0.9000E+01
       11  1    1    2    0    0 0.16047929E+03 0.13921311E+03 0.20050511E+03 0.29212359E+03 0.51099893E-03 0.0000E+00 0.9000E+01
      -24  1    3    3    0    0 -.22084377E+03 -.21571144E+03 0.41283797E+03 0.52173346E+03 0.80419002E+02 0.0000E+00 0.9000E+01
#aMCatNLO 1  0  0  1  2 0.22697190D+02 0.00000000D+00  -5  7  0 0.00000000D+00 0.00000000D+00 0.00000000D+00 0.00000000D+00 0.00000000D+00
  <mgrwgt>
 0.3664222144D-02    9    2    0
 0.679075398540470D+03 0.000000000000000D+00 0.000000000000000D+00 0.679075398540470D+03
 0.679075398540470D+03 0.000000000000000D+00 0.000000000000000D+00 -.679075398540470D+03
 0.353836232785785D+03 -.247685313189816D+02 -.343485563249545D+03 0.117068942554775D+02
 0.452742461237901D+03 0.851330174576523D+02 0.419983888582841D+03 -.146087777986876D+03
 0.213696812536477D+03 0.160479285167680D+03 0.139213115865242D+03 0.230745550642113D+02
 0.337875290520779D+03 -.220843771306351D+03 -.215711441198538D+03 0.111306328667187D+03
 0.000000000000000D+00 -.000000000000000D+00 0.000000000000000D+00 0.000000000000000D+00
 0.709551865880363D+03 0.000000000000000D+00 0.000000000000000D+00 0.709551865880363D+03
 0.683409312284459D+03 0.000000000000000D+00 0.000000000000000D+00 -.683409312284459D+03
 0.359072097531751D+03 -.225794558474147D+02 -.349025317236452D+03 0.117068942554775D+02
 0.446800996055998D+03 0.878951797641208D+02 0.412993860213106D+03 -.146087777986876D+03
 0.212548563401947D+03 0.161788125670245D+03 0.135900916497752D+03 0.230745550642113D+02
 0.339918782678193D+03 -.218762518616047D+03 -.220978334934559D+03 0.111306328667187D+03
 0.346207384969343D+02 -.834133097090400D+01 0.211088754601530D+02 0.261425535959037D+02
0.203672924858D-03 0.000000000000D+00 0.000000000000D+00 0.664434314134D-09 0.000000000000D+00  7 2 -2 24 -11 11 -24 21 0 0.21736778D+00 0.50212763D-01 0.43140625D+06 0.43140625D+06 0.43140625D+06 0.10730692D+01  1  2  2  1  7  1        2 0.137517775898D-02 0.100000000000D+01
-.112998798747D-04 0.000000000000D+00 -.782157659768D-06 0.664434314134D-09 0.000000000000D+00  7 2 -2 24 -11 11 -24 21 2 0.21736778D+00 0.50212763D-01 0.43140625D+06 0.43140625D+06 0.43140625D+06 0.10730692D+01  1  2  3  1  7  1        2 -.878526358787D-04 0.100000000000D+01
0.127543487800D-04 0.000000000000D+00 0.000000000000D+00 0.664434314134D-09 0.000000000000D+00  7 2 -2 24 -11 11 -24 21 2 0.21736778D+00 0.50212763D-01 0.43140625D+06 0.43140625D+06 0.43140625D+06 0.10730692D+01  1  2 15  1  7  1        2 0.991606257464D-04 0.100000000000D+01
0.101028496069D-02 0.000000000000D+00 0.000000000000D+00 0.664434314134D-09 0.000000000000D+00  7 2 -2 24 -11 11 -24 21 2 0.22779810D+00 0.50212763D-01 0.44641956D+06 0.44641956D+06 0.44641956D+06 0.10720070D+01  1  2 12  1  7  1        2 0.717539132471D-02 0.100000000000D+01
-.102913654935D-02 0.000000000000D+00 0.000000000000D+00 0.664434314134D-09 0.000000000000D+00  7 2 -2 24 -11 11 -24 21 2 0.21736778D+00 0.50212763D-01 0.43140625D+06 0.43140625D+06 0.43140625D+06 0.10730692D+01  1  2  4  1  7  1        2 -.800117873298D-02 0.100000000000D+01
-.466087357174D-02 0.000000000000D+00 -.500166480401D-03 0.664434314134D-09 0.000000000000D+00  7 2 -2 24 -11 11 -24 21 2 0.22775844D+00 0.50212763D-01 0.43140625D+06 0.43140625D+06 0.43140625D+06 0.10730692D+01  1  2  5  1  7  1        2 -.332276549175D-01 0.100000000000D+01
0.467967083319D-02 0.000000000000D+00 0.499621691665D-03 0.664434314134D-09 0.000000000000D+00  7 2 -2 24 -11 11 -24 21 2 0.21736778D+00 0.50212763D-01 0.43140625D+06 0.43140625D+06 0.43140625D+06 0.10730692D+01  1  2  6  1  7  1        2 0.363828131182D-01 0.100000000000D+01
0.172477729249D-04 0.000000000000D+00 0.000000000000D+00 0.664434314134D-09 0.000000000000D+00  7 21 -2 24 -11 11 -24 -2 2 0.22779810D+00 0.50212763D-01 0.44641956D+06 0.44641956D+06 0.44641956D+06 0.10720070D+01  1  2 12  3  7  1        2 0.430713033577D-04 0.100000000000D+01
-.377102049158D-04 0.000000000000D+00 -.408811641155D-05 0.664434314134D-09 0.000000000000D+00  7 21 -2 24 -11 11 -24 -2 2 0.22775844D+00 0.50212763D-01 0.43140625D+06 0.43140625D+06 0.43140625D+06 0.10730692D+01  1  2  5  3  7  1        2 -.947057001021D-04 0.100000000000D+01
  </mgrwgt>
  </event>
  <event>
  9     66 0.26993063E-05 0.36298460E+03 0.75467711E-02 0.97781966E-01
        2 -1    0    0  501    0 0.00000000E+00 0.00000000E+00 0.10042812E+04 0.10042813E+04 0.32000000E+00 0.0000E+00 0.9000E+01
       -2 -1    0    0    0  502 0.00000000E+00 0.00000000E+00 -.22409903E+03 0.22409926E+03 0.32000000E+00 0.0000E+00 0.9000E+01
       25  2    1    2    0    0 0.38348491E+02 0.32903925E+03 0.59893264E+03 0.74768734E+03 0.30096281E+03 0.0000E+00 0.0000E+00
       23  2    1    2    0    0 -.40314358E+02 -.29229694E+03 0.14119731E+02 0.30955932E+03 0.92546513E+02 0.0000E+00 0.0000E+00
       24  1    3    3    0    0 0.63545053E+02 0.31713630E+03 0.56517332E+03 0.65612613E+03 0.80419002E+02 0.0000E+00 0.9000E+01
      -11  1    4    4    0    0 -.68994377E+02 -.23208164E+03 0.44136983E+01 0.24216027E+03 0.51099893E-03 0.0000E+00 0.9000E+01
       11  1    4    4    0    0 0.28680020E+02 -.60215294E+02 0.97060323E+01 0.67399052E+02 0.51099893E-03 0.0000E+00 0.9000E+01
      -24  1    3    3    0    0 -.25196562E+02 0.11902944E+02 0.33759328E+02 0.91561209E+02 0.80419002E+02 0.0000E+00 0.9000E+01
       21  1    1    2  501  502 0.19658666E+01 -.36742310E+02 0.16712981E+03 0.17113386E+03 0.75000000E+00 0.0000E+00 0.9000E+01
#aMCatNLO 2  0  0  2  2 0.36794864D+02 0.00000000D+00  -5  7  0 0.00000000D+00 0.00000000D+00 0.00000000D+00 0.00000000D+00 0.00000000D+00
  <mgrwgt>
 0.8072603911D-04    1    2    0
 0.430285783990082D+03 0.000000000000000D+00 0.000000000000000D+00 0.430285783990082D+03
 0.430285783990082D+03 0.000000000000000D+00 0.000000000000000D+00 -.430285783990082D+03
 0.390065082457190D+03 0.644505725130485D+02 0.300212022624691D+03 0.226721013080607D+03
 0.304110542462334D+03 -.683114319705447D+02 -.244845986033064D+03 -.166934757981570D+03
 0.785244932912451D+02 0.288562279619130D+02 -.635086512677746D+02 -.360564192426965D+02
 0.878714497693943D+02 -.249953685044169D+02 0.814261467614756D+01 -.237298358563401D+02
 0.000000000000000D+00 0.000000000000000D+00 -.000000000000000D+00 0.000000000000000D+00
 0.517896810876674D+03 0.000000000000000D+00 0.000000000000000D+00 0.517896810876674D+03
 0.434559595867426D+03 0.000000000000000D+00 0.000000000000000D+00 -.434559595867426D+03
 0.403091854447915D+03 0.635450529413961D+02 0.317136304516318D+03 0.226721013080607D+03
 0.294090678558640D+03 -.689943774107428D+02 -.232081644423724D+03 -.166934757981570D+03
 0.758188003576171D+02 0.286800196144230D+02 -.602152936883930D+02 -.360564192426965D+02
 0.883564817232467D+02 -.251965617785514D+02 0.119029438758110D+02 -.237298358563401D+02
 0.910985916566824D+02 0.196586663347507D+01 -.367423102800126D+02 0.833372150092480D+02
0.266882019704D-05 0.000000000000D+00 0.000000000000D+00 0.384447543484D-06 0.187710510726D-08  7 2 -2 24 -11 11 -24 21 2 0.15450428D+00 0.34476674D-01 0.14592756D+06 0.14592756D+06 0.14592756D+06 0.11084965D+01  1  2  1  2  7  2       -2 0.807260391068D-04 0.100000000000D+01
  </mgrwgt>
  </event>
  <event>
  8     66 0.26993063E-05 0.46343390E+03 0.75467711E-02 0.87603636E-01
        2 -1    0    0  501    0 0.00000000E+00 0.00000000E+00 0.12607459E+04 0.12607460E+04 0.32000000E+00 0.0000E+00 0.9000E+01
       -2 -1    0    0    0  501 0.00000000E+00 0.00000000E+00 -.91751033E+03 0.91751038E+03 0.32000000E+00 0.0000E+00 0.9000E+01
       25  2    1    2    0    0 0.68735524E+03 0.47368791E+03 0.82444421E+03 0.12104511E+04 0.29773494E+03 0.0000E+00 0.0000E+00
       23  2    1    2    0    0 -.68735524E+03 -.47368791E+03 -.48120861E+03 0.96780527E+03 0.90817664E+02 0.0000E+00 0.0000E+00
       24  1    3    3    0    0 0.30167993E+03 0.13490851E+03 0.47525144E+03 0.58441615E+03 0.80419002E+02 0.0000E+00 0.9000E+01
      -13  1    4    4    0    0 -.56529686E+03 -.38292229E+03 -.35173050E+03 0.76805232E+03 0.10565837E+00 0.0000E+00 0.9000E+01
       13  1    4    4    0    0 -.12205839E+03 -.90765620E+02 -.12947811E+03 0.19975294E+03 0.10565837E+00 0.0000E+00 0.9000E+01
      -24  1    3    3    0    0 0.38567532E+03 0.33877940E+03 0.34919277E+03 0.62603494E+03 0.80419002E+02 0.0000E+00 0.9000E+01
#aMCatNLO 1  0  0  2  1 0.23944146D+03 0.00000000D+00  -5  7  0 0.00000000D+00 0.00000000D+00 0.00000000D+00 0.00000000D+00 0.00000000D+00
  <mgrwgt>
 0.1746218896D-02    9    2    0
 0.107552197220913D+04 0.000000000000000D+00 0.000000000000000D+00 0.107552197220913D+04
 0.107552197220913D+04 0.000000000000000D+00 0.000000000000000D+00 -.107552197220913D+04
 0.515975030543917D+03 0.301679926102213D+03 0.134908506111342D+03 0.388010223262474D+03
 0.833894196878972D+03 -.565297458568646D+03 -.382922683418523D+03 -.478736392441408D+03
 0.222939582403427D+03 -.122057785766149D+03 -.907652249536081D+02 -.162989656957735D+03
 0.578235134591945D+03 0.385675318232582D+03 0.338779402260789D+03 0.253715826136670D+03
 0.000000000000000D+00 -.000000000000000D+00 0.000000000000000D+00 -.000000000000000D+00
 0.113047203400412D+04 0.000000000000000D+00 0.000000000000000D+00 0.113047203400412D+04
 0.137887065532285D+04 0.000000000000000D+00 0.000000000000000D+00 -.137887065532285D+04
 0.522412698902196D+03 0.329756386347850D+03 0.845967158140206D+02 0.388010223262474D+03
 0.845601803848034D+03 -.519886383919034D+03 -.464297345500518D+03 -.478736392441408D+03
 0.226518272184207D+03 -.109905113668270D+03 -.112542282488330D+03 -.162989656957735D+03
 0.569796743394017D+03 0.416716393226978D+03 0.283155151836837D+03 0.253715826136670D+03
 0.345013170998517D+03 -.116681281987525D+03 0.209087760337990D+03 -.248398621318725D+03
0.181500547091D-02 0.000000000000D+00 0.000000000000D+00 0.183050579766D-05 0.000000000000D+00  7 2 -2 24 -13 13 -24 21 0 0.19396092D+00 0.14115544D+00 0.71792031D+06 0.71792031D+06 0.71792031D+06 0.10575810D+01  1  2  2  2  7  2       -2 0.132744424466D-02 0.100000000000D+01
-.938596698057D-04 0.000000000000D+00 -.697009891020D-05 0.183050579766D-05 0.000000000000D+00  7 2 -2 24 -13 13 -24 21 2 0.19396092D+00 0.14115544D+00 0.71792031D+06 0.71792031D+06 0.71792031D+06 0.10575810D+01  1  2  3  2  7  2       -2 -.767793875782D-04 0.100000000000D+01
0.114617796636D-03 0.000000000000D+00 0.000000000000D+00 0.183050579766D-05 0.000000000000D+00  7 2 -2 24 -13 13 -24 21 2 0.19396092D+00 0.14115544D+00 0.71792031D+06 0.71792031D+06 0.71792031D+06 0.10575810D+01  1  2 15  2  7  2       -2 0.937600169431D-04 0.100000000000D+01
0.260347436953D-02 0.000000000000D+00 0.000000000000D+00 0.183050579766D-05 0.000000000000D+00  7 2 -2 24 -13 13 -24 21 2 0.19396092D+00 0.18383338D+00 0.95431002D+06 0.95431002D+06 0.95431002D+06 0.10492186D+01  1  2 12  2  7  2       -2 0.965343778952D-03 0.100000000000D+01
-.277186318835D-02 0.000000000000D+00 0.000000000000D+00 0.183050579766D-05 0.000000000000D+00  7 2 -2 24 -13 13 -24 21 2 0.19396092D+00 0.14115544D+00 0.71792031D+06 0.71792031D+06 0.71792031D+06 0.10575810D+01  1  2  4  2  7  2       -2 -.226744839922D-02 0.100000000000D+01
-.380698841284D-02 0.000000000000D+00 -.865521086051D-03 0.183050579766D-05 0.000000000000D+00  7 2 -2 24 -13 13 -24 21 2 0.19396092D+00 0.18554599D+00 0.71792031D+06 0.71792031D+06 0.71792031D+06 0.10575810D+01  1  2  5  2  7  2       -2 -.142033209010D-02 0.100000000000D+01
0.392729745767D-02 0.000000000000D+00 0.834141890730D-03 0.183050579766D-05 0.000000000000D+00  7 2 -2 24 -13 13 -24 21 2 0.19396092D+00 0.14115544D+00 0.71792031D+06 0.71792031D+06 0.71792031D+06 0.10575810D+01  1  2  6  2  7  2       -2 0.321262043923D-02 0.100000000000D+01
0.917520479446D-04 0.000000000000D+00 0.000000000000D+00 0.183050579766D-05 0.000000000000D+00  7 2 21 24 -13 13 -24 2 2 0.19396092D+00 0.18383338D+00 0.95431002D+06 0.95431002D+06 0.95431002D+06 0.10492186D+01  1  2 12  4  7  2       -2 0.264555869497D-03 0.100000000000D+01
-.120820278253D-03 0.000000000000D+00 -.312812023453D-04 0.183050579766D-05 0.000000000000D+00  7 2 21 24 -13 13 -24 2 2 0.19396092D+00 0.18554599D+00 0.71792031D+06 0.71792031D+06 0.71792031D+06 0.10575810D+01  1  2  5  4  7  2       -2 -.352945575978D-03 0.100000000000D+01
  </mgrwgt>
  </event>
  <event>
  8     66 0.26993063E-05 0.31652973E+03 0.75467711E-02 0.78993877E-01
        2 -1    0    0  501    0 0.00000000E+00 0.00000000E+00 0.61742639E+03 0.61742647E+03 0.32000000E+00 0.0000E+00 0.9000E+01
       -2 -1    0    0    0  501 0.00000000E+00 0.00000000E+00 -.21240718E+03 0.21240742E+03 0.32000000E+00 0.0000E+00 0.9000E+01
       25  2    1    2    0    0 0.66977711E+02 0.25307845E+03 0.38232708E+03 0.55153831E+03 0.29914176E+03 0.0000E+00 0.0000E+00
       23  2    1    2    0    0 -.66977711E+02 -.25307845E+03 0.22692120E+02 0.27829558E+03 0.91644886E+02 0.0000E+00 0.0000E+00
       24  1    3    3    0    0 0.14092865E+03 0.14902453E+03 0.12515873E+03 0.25337939E+03 0.80419002E+02 0.0000E+00 0.9000E+01
      -13  1    4    4    0    0 -.22242467E+02 -.72322686E+02 -.34979507E+02 0.83359914E+02 0.10565837E+00 0.0000E+00 0.9000E+01
       13  1    4    4    0    0 -.44735244E+02 -.18075576E+03 0.57671627E+02 0.19493567E+03 0.10565837E+00 0.0000E+00 0.9000E+01
      -24  1    3    3    0    0 -.73950939E+02 0.10405392E+03 0.25716836E+03 0.29815892E+03 0.80419002E+02 0.0000E+00 0.9000E+01
#aMCatNLO 1  0  0  2  2 0.25861294D+04 0.00000000D+00  -5  7  0 0.00000000D+00 0.00000000D+00 0.00000000D+00 0.00000000D+00 0.00000000D+00
  <mgrwgt>
 0.9330830276D-03    3    2    0
 0.362140764240741D+03 0.000000000000000D+00 0.000000000000000D+00 0.362140764240741D+03
 0.362140764240741D+03 0.000000000000000D+00 0.000000000000000D+00 -.362140764240741D+03
 0.220316428781692D+03 0.140928649926971D+03 0.149024526506538D+03 0.170849817424102D+01
 0.115068764956392D+03 -.222424375761532D+02 -.723225417383296D+02 -.866922406895103D+02
 0.191094451202938D+03 -.447352737252816D+02 -.180755905093244D+03 -.429318918660531D+02
 0.197801883540459D+03 -.739509386255357D+02 0.104053920325035D+03 0.127915634381322D+03
 0.000000000000000D+00 -.000000000000000D+00 -.000000000000000D+00 0.000000000000000D+00
 0.275702298692475D+04 0.000000000000000D+00 0.000000000000000D+00 0.275702298692475D+04
 0.252512062654426D+04 0.000000000000000D+00 0.000000000000000D+00 -.252512062654426D+04
 0.147309575597054D+04 0.134600407932964D+04 0.593139098159956D+03 0.170849817424102D+01
 0.262857428432500D+03 0.246699509270219D+03 0.267924469246770D+02 -.866922406895103D+02
 0.335517307866511D+03 0.330015125145836D+03 -.426466143295183D+02 -.429318918660531D+02
 0.614167030791655D+03 0.503866911577044D+03 0.317001027846444D+03 0.127915634381322D+03
 0.259650609040782D+04 -.242658562532274D+04 -.894285958601558D+03 0.231902360380490D+03
0.182519580797D-04 0.000000000000D+00 0.000000000000D+00 0.727026740714D-06 0.000000000000D+00  7 2 -2 24 -13 13 -24 21 0 0.94988700D-01 0.32678053D-01 0.10019107D+06 0.10019107D+06 0.10019107D+06 0.11216540D+01  1  2  2  2  7  2       -2 0.921841616882D-03 0.100000000000D+01
-.991656259724D-06 0.000000000000D+00 -.700923248770D-07 0.727026740714D-06 0.000000000000D+00  7 2 -2 24 -13 13 -24 21 2 0.94988700D-01 0.32678053D-01 0.10019107D+06 0.10019107D+06 0.10019107D+06 0.11216540D+01  1  2  3  2  7  2       -2 -.630123737006D-04 0.100000000000D+01
0.116856778807D-05 0.000000000000D+00 0.000000000000D+00 0.727026740714D-06 0.000000000000D+00  7 2 -2 24 -13 13 -24 21 2 0.94988700D-01 0.32678053D-01 0.10019107D+06 0.10019107D+06 0.10019107D+06 0.11216540D+01  1  2 15  2  7  2       -2 0.742537844484D-04 0.100000000000D+01
  </mgrwgt>
  </event>
  <event>
  8     66 0.26993063E-05 0.26932997E+03 0.75467711E-02 0.10172804E+00
        2 -1    0    0  501    0 0.00000000E+00 0.00000000E+00 0.17232935E+04 0.17232935E+04 0.32000000E+00 0.0000E+00 0.9000E+01
       -2 -1    0    0    0  501 0.00000000E+00 0.00000000E+00 -.46602537E+02 0.46603635E+02 0.32000000E+00 0.0000E+00 0.9000E+01
       25  2    1    2    0    0 0.50945143E+02 -.17881411E+03 0.92624631E+03 0.99119589E+03 0.29994529E+03 0.0000E+00 0.0000E+00
       23  2    1    2    0    0 -.50945143E+02 0.17881411E+03 0.75044465E+03 0.77870127E+03 0.92944079E+02 0.0000E+00 0.0000E+00
       24  1    3    3    0    0 0.13331977E+03 -.17938512E+03 0.64100878E+03 0.68360271E+03 0.80419002E+02 0.0000E+00 0.9000E+01
      -13  1    4    4    0    0 -.37053080E+02 0.12087440E+03 0.31862842E+03 0.34279386E+03 0.10565837E+00 0.0000E+00 0.9000E+01
       13  1    4    4    0    0 -.13892063E+02 0.57939708E+02 0.43181623E+03 0.43590741E+03 0.10565837E+00 0.0000E+00 0.9000E+01
      -24  1    3    3    0    0 -.82374630E+02 0.57100925E+00 0.28523753E+03 0.30759319E+03 0.80419002E+02 0.0000E+00 0.9000E+01
#aMCatNLO 1  0  0  1  2 0.19143025D+02 0.00000000D+00  -5  7  0 0.00000000D+00 0.00000000D+00 0.00000000D+00 0.00000000D+00 0.00000000D+00
  <mgrwgt>
 0.7271551421D-03    4    2    0
 0.283391685052762D+03 0.000000000000000D+00 0.000000000000000D+00 0.283391685052762D+03
 0.283391685052762D+03 0.000000000000000D+00 0.000000000000000D+00 -.283391685052762D+03
 0.238420645263299D+03 0.133319772571277D+03 -.179385120696737D+03 -.205913779907412D+02
 0.127859304587897D+03 -.370531094987592D+02 0.120874483946233D+03 -.190899967759452D+02
 0.837866496127801D+02 -.138920340712606D+02 0.579396283842952D+02 0.589085181055125D+02
 0.116716770641547D+03 -.823746290012575D+02 0.571008366209014D+00 -.192271433388261D+02
 0.000000000000000D+00 -.000000000000000D+00 -.000000000000000D+00 -.000000000000000D+00
 0.285645295121414D+03 0.000000000000000D+00 0.000000000000000D+00 0.285645295121414D+03
 0.327345375967506D+03 0.000000000000000D+00 0.000000000000000D+00 -.327345375967506D+03
 0.233076233575313D+03 0.134266192795158D+03 -.171481483921789D+03 -.205913779907412D+02
 0.131836977338310D+03 -.365318296678364D+02 0.125227736695657D+03 -.190899967759452D+02
 0.857216611768123D+02 -.135517855974164D+02 0.607810726842359D+02 0.589085181055125D+02
 0.116471682314856D+03 -.819065574661987D+02 0.447991405572077D+01 -.192271433388261D+02
 0.458841166836295D+02 -.227602006370666D+01 -.190072395138238D+02 -.417000808460927D+02
0.676755125108D-05 0.000000000000D+00 0.000000000000D+00 0.552867946188D-06 0.000000000000D+00  7 2 -2 24 -13 13 -24 21 0 0.26512216D+00 0.71697078D-02 0.72538631D+05 0.72538631D+05 0.72538631D+05 0.11333467D+01  1  2  2  1  7  1        2 0.859207124578D-03 0.100000000000D+01
-.374791069171D-06 0.000000000000D+00 -.259891787413D-07 0.552867946188D-06 0.000000000000D+00  7 2 -2 24 -13 13 -24 21 2 0.26512216D+00 0.71697078D-02 0.72538631D+05 0.72538631D+05 0.72538631D+05 0.11333467D+01  1  2  3  1  7  1        2 -.611196916824D-04 0.100000000000D+01
0.442693874767D-06 0.000000000000D+00 0.000000000000D+00 0.552867946188D-06 0.000000000000D+00  7 2 -2 24 -13 13 -24 21 2 0.26512216D+00 0.71697078D-02 0.72538631D+05 0.72538631D+05 0.72538631D+05 0.11333467D+01  1  2 15  1  7  1        2 0.721930573088D-04 0.100000000000D+01
-.877656623804D-06 0.000000000000D+00 0.000000000000D+00 0.552867946188D-06 0.000000000000D+00  7 2 -2 24 -13 13 -24 21 2 0.26512216D+00 0.71697078D-02 0.72538631D+05 0.72538631D+05 0.72538631D+05 0.11333467D+01  1  2  4  1  7  1        2 -.143125348127D-03 0.100000000000D+01
  </mgrwgt>
  </event>
  <event>
  8     66 0.26993063E-05 0.26669605E+03 0.75467711E-02 0.96569635E-01
        2 -1    0    0  501    0 0.00000000E+00 0.00000000E+00 0.10695801E+04 0.10695802E+04 0.32000000E+00 0.0000E+00 0.9000E+01
       -2 -1    0    0    0  501 0.00000000E+00 0.00000000E+00 -.93084843E+02 0.93085393E+02 0.32000000E+00 0.0000E+00 0.9000E+01
       25  2    1    2    0    0 -.20044047E+03 -.10434759E+02 0.36812480E+03 0.51540980E+03 0.29974342E+03 0.0000E+00 0.0000E+00
       23  2    1    2    0    0 0.20044047E+03 0.10434759E+02 0.60837046E+03 0.64725575E+03 0.92412799E+02 0.0000E+00 0.0000E+00
       24  1    3    3    0    0 0.31109363E+02 -.14513936E+02 0.20117055E+02 0.89723791E+02 0.80419002E+02 0.0000E+00 0.9000E+01
      -13  1    4    4    0    0 0.10445949E+02 -.78768826E+00 0.15765853E+03 0.15800621E+03 0.10565837E+00 0.0000E+00 0.9000E+01
       13  1    4    4    0    0 0.18999452E+03 0.11222448E+02 0.45071193E+03 0.48924954E+03 0.10565837E+00 0.0000E+00 0.9000E+01
      -24  1    3    3    0    0 -.23154983E+03 0.40791765E+01 0.34800775E+03 0.42568601E+03 0.80419002E+02 0.0000E+00 0.9000E+01
#aMCatNLO 1  0  0  2  1 0.25484475D+03 0.00000000D+00  -5  7  0 0.00000000D+00 0.00000000D+00 0.00000000D+00 0.00000000D+00 0.00000000D+00
  <mgrwgt>
 0.1149352025D-02    5    2    0
 0.315534536710963D+03 0.000000000000000D+00 0.000000000000000D+00 0.315534536710963D+03
 0.315534536710963D+03 0.000000000000000D+00 0.000000000000000D+00 -.315534536710963D+03
 0.134176361077154D+03 0.311093630410406D+02 -.145139357704143D+02 -.101772457556891D+03
 0.471508397362341D+02 0.104457146192290D+02 -.787703905199134D+00 0.459724728123623D+02
 0.203964445390471D+03 0.189994756557598D+03 0.112224632197930D+02 0.733317378993681D+02
 0.245777427218068D+03 -.231549834217868D+03 0.407917645582043D+01 -.175317531548390D+02
 0.000000000000000D+00 0.000000000000000D+00 -.000000000000000D+00 -.000000000000000D+00
 0.442453487384230D+03 0.000000000000000D+00 0.000000000000000D+00 0.442453487384230D+03
 0.499220847075156D+03 0.000000000000000D+00 0.000000000000000D+00 -.499220847075156D+03
 0.136586554867883D+03 0.212238776449628D+02 0.371562231241157D+02 -.101772457556891D+03
 0.497452613666882D+02 0.690806254066935D+01 0.177031478525975D+02 0.459724728123623D+02
 0.210001422706699D+03 0.174880967694503D+03 0.902202909202259D+02 0.733317378993681D+02
 0.284250349024267D+03 -.250901013914215D+03 0.105225300257040D+03 -.175317531548390D+02
 0.261090746493848D+03 0.478881060340792D+02 -.250304962153979D+03 -.567673596909254D+02
0.111770125325D-04 0.000000000000D+00 0.000000000000D+00 0.838405840306D-06 0.000000000000D+00  7 2 -2 24 -13 13 -24 21 0 0.16455083D+00 0.14320791D-01 0.71126784D+05 0.71126784D+05 0.71126784D+05 0.11340705D+01  1  2  2  2  7  2       -2 0.111503436348D-02 0.100000000000D+01
-.599596390718D-06 0.000000000000D+00 -.429226710998D-07 0.838405840306D-06 0.000000000000D+00  7 2 -2 24 -13 13 -24 21 2 0.16455083D+00 0.14320791D-01 0.71126784D+05 0.71126784D+05 0.71126784D+05 0.11340705D+01  1  2  3  2  7  2       -2 -.769310497578D-04 0.100000000000D+01
0.723625050801D-06 0.000000000000D+00 0.000000000000D+00 0.838405840306D-06 0.000000000000D+00  7 2 -2 24 -13 13 -24 21 2 0.16455083D+00 0.14320791D-01 0.71126784D+05 0.71126784D+05 0.71126784D+05 0.11340705D+01  1  2 15  2  7  2       -2 0.928445128272D-04 0.100000000000D+01
-.989417785569D-06 0.000000000000D+00 -.342360812823D-05 0.838405840306D-06 0.000000000000D+00  7 2 -2 24 -13 13 -24 21 2 0.16455083D+00 0.31992720D-01 0.71126784D+05 0.71126784D+05 0.71126784D+05 0.11340705D+01  1  2  5  2  7  2       -2 -.332602870777D-04 0.100000000000D+01
0.129939643451D-06 0.000000000000D+00 -.298636055616D-06 0.838405840306D-06 0.000000000000D+00  7 2 21 24 -13 13 -24 2 2 0.16455083D+00 0.31992720D-01 0.71126784D+05 0.71126784D+05 0.71126784D+05 0.11340705D+01  1  2  5  4  7  2       -2 0.516644853039D-04 0.100000000000D+01
  </mgrwgt>
  </event>
  <event>
  8     66 0.26993063E-05 0.45827823E+03 0.75467711E-02 0.82132631E-01
        2 -1    0    0  501    0 0.00000000E+00 0.00000000E+00 0.28481587E+04 0.28481587E+04 0.32000000E+00 0.0000E+00 0.9000E+01
       -2 -1    0    0    0  501 0.00000000E+00 0.00000000E+00 -.13039037E+03 0.13039076E+03 0.32000000E+00 0.0000E+00 0.9000E+01
       25  2    1    2    0    0 0.33477711E+03 -.27545368E+03 0.53394092E+03 0.75024870E+03 0.29971613E+03 0.0000E+00 0.0000E+00
       23  2    1    2    0    0 -.33477711E+03 0.27545368E+03 0.21838274E+04 0.22283008E+04 0.90949329E+02 0.0000E+00 0.0000E+00
       24  1    3    3    0    0 0.20007796E+03 -.22313111E+03 0.48854077E+03 0.57875554E+03 0.80419002E+02 0.0000E+00 0.9000E+01
      -13  1    4    4    0    0 -.33220131E+03 0.25118027E+03 0.21040722E+04 0.21448938E+04 0.10565837E+00 0.0000E+00 0.9000E+01
       13  1    4    4    0    0 -.25757940E+01 0.24273408E+02 0.79755169E+02 0.83407021E+02 0.10565837E+00 0.0000E+00 0.9000E+01
      -24  1    3    3    0    0 0.13469914E+03 -.52322570E+02 0.45400154E+02 0.17149315E+03 0.80419002E+02 0.0000E+00 0.9000E+01
#aMCatNLO 1  0  0  2  1 0.16888717D+04 0.00000000D+00  -5  7  0 0.00000000D+00 0.00000000D+00 0.00000000D+00 0.00000000D+00 0.00000000D+00
  <mgrwgt>
 0.1050096272D-02    5    2    0
 0.609403867919060D+03 0.000000000000000D+00 0.000000000000000D+00 0.609403867919060D+03
 0.609403867919060D+03 0.000000000000000D+00 0.000000000000000D+00 -.609403867919060D+03
 0.324999087174250D+03 0.200077960942194D+03 -.223131112120431D+03 -.966359511715923D+02
 0.549957253350140D+03 -.332201756120920D+03 0.251180580393857D+03 0.359170279638520D+03
 0.259885169165465D+02 -.257534918533922D+01 0.242731019395854D+02 0.892116081716303D+01
 0.317862878397183D+03 0.134699144364065D+03 -.523225702130108D+02 -.271455489284091D+03
 0.000000000000000D+00 -.000000000000000D+00 0.000000000000000D+00 -.000000000000000D+00
 0.110979090648993D+04 0.000000000000000D+00 0.000000000000000D+00 0.110979090648993D+04
 0.114627321750708D+05 0.000000000000000D+00 0.000000000000000D+00 -.114627321750708D+05
 0.883405645428203D+03 0.243837218095744D+03 -.839728064573610D+03 -.966359511715923D+02
 0.560014540199853D+03 -.292006993690177D+03 -.315190277603332D+03 0.359170279638520D+03
 0.106070489898106D+02 -.125013525992934D+01 0.559995890863812D+01 0.892116081716303D+01
 0.628706504779251D+03 0.168976710426629D+03 -.535316207365611D+03 -.271455489284091D+03
 0.104897893421636D+05 -.119556799572267D+03 0.168463459063391D+04 -.103529412685809D+05
0.181643042001D-03 0.000000000000D+00 0.000000000000D+00 0.823161715172D-05 0.000000000000D+00  7 2 -2 24 -13 13 -24 21 0 0.43817829D+00 0.20060088D-01 0.21001893D+06 0.21001893D+06 0.21001893D+06 0.10961987D+01  1  2  2  2  7  2       -2 0.103339766035D-02 0.100000000000D+01
-.909465483658D-05 0.000000000000D+00 -.697557108994D-06 0.823161715172D-05 0.000000000000D+00  7 2 -2 24 -13 13 -24 21 2 0.43817829D+00 0.20060088D-01 0.21001893D+06 0.21001893D+06 0.21001893D+06 0.10961987D+01  1  2  3  2  7  2       -2 -.621746702338D-04 0.100000000000D+01
0.115631978170D-04 0.000000000000D+00 0.000000000000D+00 0.823161715172D-05 0.000000000000D+00  7 2 -2 24 -13 13 -24 21 2 0.43817829D+00 0.20060088D-01 0.21001893D+06 0.21001893D+06 0.21001893D+06 0.10961987D+01  1  2 15  2  7  2       -2 0.790506098404D-04 0.100000000000D+01
-.832102344138D-03 0.000000000000D+00 -.356324693939D-03 0.823161715172D-05 0.000000000000D+00  7 2 -2 24 -13 13 -24 21 2 0.43817829D+00 0.60590786D+00 0.21001893D+06 0.21001893D+06 0.21001893D+06 0.10961987D+01  1  2  5  2  7  2       -2 -.295547154172D-07 0.100000000000D+01
-.386623940854D-03 0.000000000000D+00 -.120793870467D-03 0.823161715172D-05 0.000000000000D+00  7 2 21 24 -13 13 -24 2 2 0.43817829D+00 0.60590786D+00 0.21001893D+06 0.21001893D+06 0.21001893D+06 0.10961987D+01  1  2  5  4  7  2       -2 -.147772899352D-06 0.100000000000D+01
  </mgrwgt>
  </event>
  <event>
  8     66 0.26993063E-05 0.19842317E+03 0.75467711E-02 0.96270047E-01
        2 -1    0    0  501    0 0.00000000E+00 0.00000000E+00 0.19077228E+04 0.19077228E+04 0.32000000E+00 0.0000E+00 0.9000E+01
       -2 -1    0    0    0  501 0.00000000E+00 0.00000000E+00 -.80680476E+02 0.80681110E+02 0.32000000E+00 0.0000E+00 0.9000E+01
       25  2    1    2    0    0 -.15549643E+03 -.27502954E+03 0.79445912E+03 0.90478108E+03 0.29604580E+03 0.0000E+00 0.0000E+00
       23  2    1    2    0    0 0.15549643E+03 0.27502954E+03 0.10325832E+04 0.10836228E+04 0.90498820E+02 0.0000E+00 0.0000E+00
       24  1    3    3    0    0 -.10004680E+03 -.22846389E+03 0.73711741E+03 0.78231350E+03 0.80419002E+02 0.0000E+00 0.9000E+01
      -13  1    4    4    0    0 0.12856970E+03 0.15790157E+03 0.73506233E+03 0.76274486E+03 0.10565837E+00 0.0000E+00 0.9000E+01
       13  1    4    4    0    0 0.26926725E+02 0.11712797E+03 0.29752083E+03 0.32087796E+03 0.10565837E+00 0.0000E+00 0.9000E+01
      -24  1    3    3    0    0 -.55449626E+02 -.46565653E+02 0.57341709E+02 0.12246758E+03 0.80419002E+02 0.0000E+00 0.9000E+01
#aMCatNLO 1  0  0  1  2 0.15712789D+03 0.00000000D+00  -5  7  0 0.00000000D+00 0.00000000D+00 0.00000000D+00 0.00000000D+00 0.00000000D+00
  <mgrwgt>
 0.1748479869D-02    9    2    0
 0.392322109498411D+03 0.000000000000000D+00 0.000000000000000D+00 0.392322109498411D+03
 0.392322109498411D+03 0.000000000000000D+00 0.000000000000000D+00 -.392322109498411D+03
 0.266121281685414D+03 -.100046799714992D+03 -.228463891562266D+03 0.463487726971281D+02
 0.221316859134828D+03 0.128569838915745D+03 0.157901630348371D+03 0.867065383452184D+02
 0.120375246915335D+03 0.269265869247408D+02 0.117127914094991D+03 0.679784717895589D+01
 0.176830831261245D+03 -.554496261254941D+02 -.465656528810966D+02 -.139853158221302D+03
 0.000000000000000D+00 0.000000000000000D+00 -.000000000000000D+00 0.000000000000000D+00
 0.551100951456256D+03 0.000000000000000D+00 0.000000000000000D+00 0.551100951456256D+03
 0.440990024653803D+03 0.000000000000000D+00 0.000000000000000D+00 -.440990024653803D+03
 0.234924126755774D+03 -.116571246495457D+03 -.181617909737883D+03 0.463487726971281D+02
 0.246965777046768D+03 0.113125906351085D+03 0.201684408303540D+03 0.867065383452184D+02
 0.143090947668550D+03 0.182374880177223D+02 0.141761075790285D+03 0.679784717895589D+01
 0.175241445333017D+03 -.670609481722500D+02 -.136481344439630D+02 -.139853158221302D+03
 0.191868679305949D+03 0.522688002989000D+02 -.148179439911978D+03 0.110110926802453D+03
0.319008054137D-04 0.000000000000D+00 0.000000000000D+00 0.218538340515D-07 0.000000000000D+00  7 2 -2 24 -13 13 -24 21 0 0.29349586D+00 0.12412432D-01 0.12043538D+06 0.12043538D+06 0.12043538D+06 0.11151549D+01  1  2  2  1  7  1        2 0.137744635439D-02 0.100000000000D+01
-.173985257301D-05 0.000000000000D+00 -.122507492463D-06 0.218538340515D-07 0.000000000000D+00  7 2 -2 24 -13 13 -24 21 2 0.29349586D+00 0.12412432D-01 0.12043538D+06 0.12043538D+06 0.12043538D+06 0.11151549D+01  1  2  3  1  7  1        2 -.934234419073D-04 0.100000000000D+01
0.203434714554D-05 0.000000000000D+00 0.000000000000D+00 0.218538340515D-07 0.000000000000D+00  7 2 -2 24 -13 13 -24 21 2 0.29349586D+00 0.12412432D-01 0.12043538D+06 0.12043538D+06 0.12043538D+06 0.11151549D+01  1  2 15  1  7  1        2 0.109236676324D-03 0.100000000000D+01
0.164816255253D-04 0.000000000000D+00 0.000000000000D+00 0.218538340515D-07 0.000000000000D+00  7 2 -2 24 -13 13 -24 21 2 0.42469740D+00 0.12412432D-01 0.18801121D+06 0.18801121D+06 0.18801121D+06 0.10998932D+01  1  2 12  1  7  1        2 0.280775959121D-03 0.100000000000D+01
-.226411361943D-04 0.000000000000D+00 0.000000000000D+00 0.218538340515D-07 0.000000000000D+00  7 2 -2 24 -13 13 -24 21 2 0.29349586D+00 0.12412432D-01 0.12043538D+06 0.12043538D+06 0.12043538D+06 0.11151549D+01  1  2  4  1  7  1        2 -.121574258921D-02 0.100000000000D+01
-.318929167979D-04 0.000000000000D+00 -.109773657993D-04 0.218538340515D-07 0.000000000000D+00  7 2 -2 24 -13 13 -24 21 2 0.42834934D+00 0.12412432D-01 0.12043538D+06 0.12043538D+06 0.12043538D+06 0.11151549D+01  1  2  5  1  7  1        2 -.551137522259D-03 0.100000000000D+01
0.343026188699D-04 0.000000000000D+00 0.102369672321D-04 0.218538340515D-07 0.000000000000D+00  7 2 -2 24 -13 13 -24 21 2 0.29349586D+00 0.12412432D-01 0.12043538D+06 0.12043538D+06 0.12043538D+06 0.11151549D+01  1  2  6  1  7  1        2 0.184191969536D-02 0.100000000000D+01
0.740468774632D-06 0.000000000000D+00 0.000000000000D+00 0.218538340515D-07 0.000000000000D+00  7 21 -2 24 -13 13 -24 -2 2 0.42469740D+00 0.12412432D-01 0.18801121D+06 0.18801121D+06 0.18801121D+06 0.10998932D+01  1  2 12  3  7  1        2 0.114099682054D-05 0.100000000000D+01
-.111021734750D-05 0.000000000000D+00 -.501448261412D-06 0.218538340515D-07 0.000000000000D+00  7 21 -2 24 -13 13 -24 -2 2 0.42834934D+00 0.12412432D-01 0.12043538D+06 0.12043538D+06 0.12043538D+06 0.11151549D+01  1  2  5  3  7  1        2 -.173625962355D-05 0.100000000000D+01
  </mgrwgt>
  </event>
  <event>
  8     66 0.26993063E-05 0.10817739E+03 0.75467711E-02 0.99890180E-01
        2 -1    0    0  501    0 0.00000000E+00 0.00000000E+00 0.20765666E+04 0.20765667E+04 0.32000000E+00 0.0000E+00 0.9000E+01
       -2 -1    0    0    0  501 0.00000000E+00 0.00000000E+00 -.47073143E+02 0.47074231E+02 0.32000000E+00 0.0000E+00 0.9000E+01
       25  2    1    2    0    0 0.75087131E+02 -.35213576E+02 0.19565024E+04 0.19811226E+04 0.30011165E+03 0.0000E+00 0.0000E+00
       23  2    1    2    0    0 -.75087131E+02 0.35213576E+02 0.72991071E+02 0.14251828E+03 0.90031608E+02 0.0000E+00 0.0000E+00
       24  1    3    3    0    0 -.81222531E+02 0.33290160E+02 0.61467881E+03 0.62610110E+03 0.80419002E+02 0.0000E+00 0.9000E+01
      -11  1    4    4    0    0 -.68210472E+02 0.44640179E+02 0.90293943E+02 0.12164872E+03 0.51099893E-03 0.0000E+00 0.9000E+01
       11  1    4    4    0    0 -.68766590E+01 -.94266032E+01 -.17302872E+02 0.20869563E+02 0.51099893E-03 0.0000E+00 0.9000E+01
      -24  1    3    3    0    0 0.15630966E+03 -.68503736E+02 0.13418236E+04 0.13550215E+04 0.80419002E+02 0.0000E+00 0.9000E+01
#aMCatNLO 1  0  0  1  2 0.19318174D+03 0.00000000D+00  -5  7  0 0.00000000D+00 0.00000000D+00 0.00000000D+00 0.00000000D+00 0.00000000D+00
  <mgrwgt>
 0.6088607208D-03    9    2    0
 0.312652682541253D+03 0.000000000000000D+00 0.000000000000000D+00 0.312652682541253D+03
 0.312652682541253D+03 0.000000000000000D+00 0.000000000000000D+00 -.312652682541253D+03
 0.131339440686470D+03 -.812225307905969D+02 0.332901597298935D+02 0.554752060166784D+02
 0.120080880541094D+03 -.682104716624938D+02 0.446401790818723D+02 -.881703115489731D+02
 0.127034771223661D+03 -.687665897271455D+01 -.942660323294872D+01 -.126497762085776D+03
 0.246850272631280D+03 0.156309661425805D+03 -.685037355788171D+02 0.159192867618071D+03
 0.000000000000000D+00 -.000000000000000D+00 -.000000000000000D+00 0.000000000000000D+00
 0.464145330823032D+03 0.000000000000000D+00 0.000000000000000D+00 0.464145330823032D+03
 0.395377442071964D+03 0.000000000000000D+00 0.000000000000000D+00 -.395377442071964D+03
 0.134961418665951D+03 -.626096434902904D+02 0.689195373851381D+02 0.554752060166784D+02
 0.128147108210199D+03 -.508607733151252D+02 0.778515204847074D+02 -.881703115489731D+02
 0.129394028708689D+03 0.110462285662148D+02 0.248819550521743D+02 -.126497762085776D+03
 0.261963625929721D+03 0.191872805209026D+03 -.427640773295494D+00 0.159192867618071D+03
 0.205056591380436D+03 -.894486169698255D+02 -.171225372148724D+03 0.687678887510673D+02
0.722053280598D-05 0.000000000000D+00 0.000000000000D+00 0.900454444675D-06 0.000000000000D+00  7 2 -2 24 -11 11 -24 21 0 0.31947188D+00 0.72421076D-02 0.40179496D+05 0.40179496D+05 0.40179496D+05 0.11557434D+01  1  2  2  1  7  1        2 0.591361073712D-03 0.100000000000D+01
-.304759175882D-06 0.000000000000D+00 -.277287471849D-07 0.900454444675D-06 0.000000000000D+00  7 2 -2 24 -11 11 -24 21 2 0.31947188D+00 0.72421076D-02 0.40179496D+05 0.40179496D+05 0.40179496D+05 0.11557434D+01  1  2  3  1  7  1        2 -.333398092576D-04 0.100000000000D+01
0.447180565125D-06 0.000000000000D+00 0.000000000000D+00 0.900454444675D-06 0.000000000000D+00  7 2 -2 24 -11 11 -24 21 2 0.31947188D+00 0.72421076D-02 0.40179496D+05 0.40179496D+05 0.40179496D+05 0.11557434D+01  1  2 15  1  7  1        2 0.489203145460D-04 0.100000000000D+01
0.528536453548D-08 0.000000000000D+00 0.000000000000D+00 0.900454444675D-06 0.000000000000D+00  7 2 -2 24 -11 11 -24 21 2 0.49997932D+00 0.72421076D-02 0.10383728D+06 0.10383728D+06 0.10383728D+06 0.11203825D+01  1  2 12  1  7  1        2 0.108687943063D-06 0.100000000000D+01
-.278485879387D-05 0.000000000000D+00 0.000000000000D+00 0.900454444675D-06 0.000000000000D+00  7 2 -2 24 -11 11 -24 21 2 0.31947188D+00 0.72421076D-02 0.40179496D+05 0.40179496D+05 0.40179496D+05 0.11557434D+01  1  2  4  1  7  1        2 -.304655834326D-03 0.100000000000D+01
-.243437532106D-05 0.000000000000D+00 -.208608476617D-05 0.900454444675D-06 0.000000000000D+00  7 2 -2 24 -11 11 -24 21 2 0.51084044D+00 0.72421076D-02 0.40179496D+05 0.40179496D+05 0.40179496D+05 0.11557434D+01  1  2  5  1  7  1        2 -.499504139913D-04 0.100000000000D+01
0.325841124560D-05 0.000000000000D+00 0.187563797747D-05 0.900454444675D-06 0.000000000000D+00  7 2 -2 24 -11 11 -24 21 2 0.31947188D+00 0.72421076D-02 0.40179496D+05 0.40179496D+05 0.40179496D+05 0.11557434D+01  1  2  6  1  7  1        2 0.356461160182D-03 0.100000000000D+01
0.273681994899D-09 0.000000000000D+00 0.000000000000D+00 0.900454444675D-06 0.000000000000D+00  7 21 -2 24 -11 11 -24 -2 2 0.49997932D+00 0.72421076D-02 0.10383728D+06 0.10383728D+06 0.10383728D+06 0.11203825D+01  1  2 12  3  7  1        2 0.293184453233D-09 0.100000000000D+01
-.432337710350D-07 0.000000000000D+00 -.111955314968D-06 0.900454444675D-06 0.000000000000D+00  7 21 -2 24 -11 11 -24 -2 2 0.51084044D+00 0.72421076D-02 0.40179496D+05 0.40179496D+05 0.40179496D+05 0.11557434D+01  1  2  5  3  7  1        2 -.447511664965D-07 0.100000000000D+01
  </mgrwgt>
  </event>
  <event>
  8     66 0.26993063E-05 0.35271514E+03 0.75467711E-02 0.88128310E-01
        2 -1    0    0  501    0 0.00000000E+00 0.00000000E+00 0.15611417E+04 0.15611417E+04 0.32000000E+00 0.0000E+00 0.9000E+01
       -2 -1    0    0    0  501 0.00000000E+00 0.00000000E+00 -.12909458E+03 0.12909497E+03 0.32000000E+00 0.0000E+00 0.9000E+01
       25  2    1    2    0    0 0.16716252E+03 -.27553662E+03 0.12127961E+04 0.12900193E+04 0.29901791E+03 0.0000E+00 0.0000E+00
       23  2    1    2    0    0 -.16716252E+03 0.27553662E+03 0.21925102E+03 0.40021739E+03 0.90770118E+02 0.0000E+00 0.0000E+00
       24  1    3    3    0    0 0.22545843E+02 -.10069847E+03 0.81211241E+03 0.82258269E+03 0.80419002E+02 0.0000E+00 0.9000E+01
      -13  1    4    4    0    0 -.16592817E+03 0.28205460E+03 0.21862583E+03 0.39355333E+03 0.10565837E+00 0.0000E+00 0.9000E+01
       13  1    4    4    0    0 -.12343539E+01 -.65179846E+01 0.62519128E+00 0.66640663E+01 0.10565837E+00 0.0000E+00 0.9000E+01
      -24  1    3    3    0    0 0.14461668E+03 -.17483814E+03 0.40068367E+03 0.46743660E+03 0.80419002E+02 0.0000E+00 0.9000E+01
#aMCatNLO 1  0  0  2  1 0.78790397D+03 0.00000000D+00  -5  7  0 0.00000000D+00 0.00000000D+00 0.00000000D+00 0.00000000D+00 0.00000000D+00
  <mgrwgt>
 0.1409125755D-02    5    2    0
 0.448926817846889D+03 0.000000000000000D+00 0.000000000000000D+00 0.448926817846889D+03
 0.448926817846889D+03 0.000000000000000D+00 0.000000000000000D+00 -.448926817846889D+03
 0.253244187527879D+03 0.225458434627368D+02 -.100698473941938D+03 0.216833818512251D+03
 0.392175551217987D+03 -.165928391649691D+03 0.282054992687264D+03 -.216135172792089D+03
 0.115476315400866D+02 -.123413076213780D+01 -.651837554086708D+01 -.945174564595204D+01
 0.240886265407825D+03 0.144616678949092D+03 -.174838143204459D+03 0.875309992578987D+01
 0.000000000000000D+00 0.000000000000000D+00 0.000000000000000D+00 -.000000000000000D+00
 0.729144625259776D+03 0.000000000000000D+00 0.000000000000000D+00 0.729144625259776D+03
 0.177414809948209D+04 0.000000000000000D+00 0.000000000000000D+00 -.177414809948209D+04
 0.400485872878898D+03 -.110810412381656D+03 -.307613176048111D+03 0.216833818512251D+03
 0.392599849762170D+03 -.326016959534080D+03 0.336626085080497D+02 -.216135172792089D+03
 0.207582373675385D+02 -.782429691824196D+01 -.167436346289116D+02 -.945174564595204D+01
 0.380699390161137D+03 0.178176517456006D+02 -.371578691857664D+03 0.875309992578987D+01
 0.130874937457213D+04 0.426834017088378D+03 0.662272894026637D+03 -.104500347422232D+04
0.432020478123D-04 0.000000000000D+00 0.000000000000D+00 0.139557022746D-05 0.000000000000D+00  7 2 -2 24 -13 13 -24 21 0 0.24017568D+00 0.19860737D-01 0.12440797D+06 0.12440797D+06 0.12440797D+06 0.11140208D+01  1  2  2  2  7  2       -2 0.134039079645D-02 0.100000000000D+01
-.223034226821D-05 0.000000000000D+00 -.165907238960D-06 0.139557022746D-05 0.000000000000D+00  7 2 -2 24 -13 13 -24 21 2 0.24017568D+00 0.19860737D-01 0.12440797D+06 0.12440797D+06 0.12440797D+06 0.11140208D+01  1  2  3  2  7  2       -2 -.858786467153D-04 0.100000000000D+01
0.275410027592D-05 0.000000000000D+00 0.000000000000D+00 0.139557022746D-05 0.000000000000D+00  7 2 -2 24 -13 13 -24 21 2 0.24017568D+00 0.19860737D-01 0.12440797D+06 0.12440797D+06 0.12440797D+06 0.11140208D+01  1  2 15  2  7  2       -2 0.106045788570D-03 0.100000000000D+01
0.214161298631D-04 0.000000000000D+00 -.208241403438D-04 0.139557022746D-05 0.000000000000D+00  7 2 -2 24 -13 13 -24 21 2 0.24017568D+00 0.12523863D+00 0.12440797D+06 0.12440797D+06 0.12440797D+06 0.11140208D+01  1  2  5  2  7  2       -2 0.202151732291D-04 0.100000000000D+01
0.329787408388D-05 0.000000000000D+00 -.469898720120D-05 0.139557022746D-05 0.000000000000D+00  7 2 21 24 -13 13 -24 2 2 0.24017568D+00 0.12523863D+00 0.12440797D+06 0.12440797D+06 0.12440797D+06 0.11140208D+01  1  2  5  4  7  2       -2 0.283526434200D-04 0.100000000000D+01
  </mgrwgt>
  </event>
  <event>
  8     66 0.26993063E-05 0.85882839E+02 0.75467711E-02 0.98391820E-01
        2 -1    0    0  501    0 0.00000000E+00 0.00000000E+00 0.50723101E+03 0.50723111E+03 0.32000000E+00 0.0000E+00 0.9000E+01
       -2 -1    0    0    0  501 0.00000000E+00 0.00000000E+00 -.31556598E+03 0.31556614E+03 0.32000000E+00 0.0000E+00 0.9000E+01
       25  2    1    2    0    0 -.25344228E+03 -.92469643E+02 -.99664186E+02 0.41603073E+03 0.30060770E+03 0.0000E+00 0.0000E+00
       23  2    1    2    0    0 0.25344228E+03 0.92469643E+02 0.29132921E+03 0.40676653E+03 0.88332750E+02 0.0000E+00 0.0000E+00
       24  1    3    3    0    0 -.22447594E+03 -.16193434E+03 -.10231353E+03 0.30585528E+03 0.80419002E+02 0.0000E+00 0.9000E+01
      -13  1    4    4    0    0 0.14857183E+03 0.39306926E+02 0.10389383E+03 0.18550623E+03 0.10565837E+00 0.0000E+00 0.9000E+01
       13  1    4    4    0    0 0.10487045E+03 0.53162717E+02 0.18743538E+03 0.22126030E+03 0.10565837E+00 0.0000E+00 0.9000E+01
      -24  1    3    3    0    0 -.28966344E+02 0.69464701E+02 0.26493436E+01 0.11017545E+03 0.80419002E+02 0.0000E+00 0.9000E+01
#aMCatNLO 1  0  0  1  2 0.57153901D+02 0.00000000D+00  -5  7  0 0.00000000D+00 0.00000000D+00 0.00000000D+00 0.00000000D+00 0.00000000D+00
  <mgrwgt>
 0.7972356586D-03    9    2    0
 0.400081192596743D+03 0.000000000000000D+00 0.000000000000000D+00 0.400081192596743D+03
 0.400081192596743D+03 0.000000000000000D+00 0.000000000000000D+00 -.400081192596743D+03
 0.339014700472115D+03 -.224475937520700D+03 -.161934344059015D+03 -.178470089567431D+03
 0.165867812047209D+03 0.148571888991383D+03 0.393069059567369D+02 0.623978526791484D+02
 0.182622405564332D+03 0.104870392600229D+03 0.531627372390471D+02 0.139738567114556D+03
 0.112657467109829D+03 -.289663440709122D+02 0.694647008632310D+02 -.236663302262727D+02
 0.000000000000000D+00 0.000000000000000D+00 -.000000000000000D+00 0.000000000000000D+00
 0.448966751726051D+03 0.000000000000000D+00 0.000000000000000D+00 0.448966751726051D+03
 0.418161401826027D+03 0.000000000000000D+00 0.000000000000000D+00 -.418161401826027D+03
 0.354250978275695D+03 -.248988706994808D+03 -.158680781992538D+03 -.178470089567431D+03
 0.156139895516652D+03 0.137186209667612D+03 0.408181188936523D+02 0.623978526791484D+02
 0.176161761593557D+03 0.921843562795124D+02 0.548465456145404D+02 0.139738567114556D+03
 0.115648343834837D+03 -.370388736722539D+02 0.705361618468290D+02 -.236663302262727D+02
 0.649271743313376D+02 0.566570147199380D+02 -.752004436248385D+01 0.308053499000239D+02
0.167770723857D-04 0.000000000000D+00 0.000000000000D+00 0.250527335262D-06 0.000000000000D+00  7 2 -2 24 -13 13 -24 21 0 0.78035560D-01 0.48548633D-01 0.11210375D+06 0.11210375D+06 0.11210375D+06 0.11176727D+01  1  2  2  1  7  1        2 0.506608252496D-03 0.100000000000D+01
-.896122457713D-06 0.000000000000D+00 -.644283754656D-07 0.250527335262D-06 0.000000000000D+00  7 2 -2 24 -13 13 -24 21 2 0.78035560D-01 0.48548633D-01 0.11210375D+06 0.11210375D+06 0.11210375D+06 0.11176727D+01  1  2  3  1  7  1        2 -.338028066950D-04 0.100000000000D+01
0.106227914413D-05 0.000000000000D+00 0.000000000000D+00 0.250527335262D-06 0.000000000000D+00  7 2 -2 24 -13 13 -24 21 2 0.78035560D-01 0.48548633D-01 0.11210375D+06 0.11210375D+06 0.11210375D+06 0.11176727D+01  1  2 15  1  7  1        2 0.400704348563D-04 0.100000000000D+01
0.328366166678D-04 0.000000000000D+00 0.000000000000D+00 0.250527335262D-06 0.000000000000D+00  7 2 -2 24 -13 13 -24 21 2 0.89176989D-01 0.48548633D-01 0.13204550D+06 0.13204550D+06 0.13204550D+06 0.11119479D+01  1  2 12  1  7  1        2 0.105103406868D-02 0.100000000000D+01
-.323637497107D-04 0.000000000000D+00 0.000000000000D+00 0.250527335262D-06 0.000000000000D+00  7 2 -2 24 -13 13 -24 21 2 0.78035560D-01 0.48548633D-01 0.11210375D+06 0.11210375D+06 0.11210375D+06 0.11176727D+01  1  2  4  1  7  1        2 -.122079919544D-02 0.100000000000D+01
-.738475789445D-04 0.000000000000D+00 -.162007506963D-04 0.250527335262D-06 0.000000000000D+00  7 2 -2 24 -13 13 -24 21 2 0.90532124D-01 0.48548633D-01 0.11210375D+06 0.11210375D+06 0.11210375D+06 0.11176727D+01  1  2  5  1  7  1        2 -.235374816632D-02 0.100000000000D+01
0.755956280913D-04 0.000000000000D+00 0.160236511658D-04 0.250527335262D-06 0.000000000000D+00  7 2 -2 24 -13 13 -24 21 2 0.78035560D-01 0.48548633D-01 0.11210375D+06 0.11210375D+06 0.11210375D+06 0.11176727D+01  1  2  6  1  7  1        2 0.285155715200D-02 0.100000000000D+01
0.680761611296D-06 0.000000000000D+00 0.000000000000D+00 0.250527335262D-06 0.000000000000D+00  7 21 -2 24 -13 13 -24 -2 2 0.89176989D-01 0.48548633D-01 0.13204550D+06 0.13204550D+06 0.13204550D+06 0.11119479D+01  1  2 12  3  7  1        2 0.348664356417D-04 0.100000000000D+01
-.156075646581D-05 0.000000000000D+00 -.366637924282D-06 0.250527335262D-06 0.000000000000D+00  7 21 -2 24 -13 13 -24 -2 2 0.90532124D-01 0.48548633D-01 0.11210375D+06 0.11210375D+06 0.11210375D+06 0.11176727D+01  1  2  5  3  7  1        2 -.785505166442D-04 0.100000000000D+01
  </mgrwgt>
  </event>
  <event>
  8     66 0.26993063E-05 0.29178054E+03 0.75467711E-02 0.87989360E-01
        2 -1    0    0  501    0 0.00000000E+00 0.00000000E+00 0.21401220E+04 0.21401220E+04 0.32000000E+00 0.0000E+00 0.9000E+01
       -2 -1    0    0    0  501 0.00000000E+00 0.00000000E+00 -.12146946E+03 0.12146988E+03 0.32000000E+00 0.0000E+00 0.9000E+01
       25  2    1    2    0    0 -.21281061E+03 -.29740349E+02 0.19947015E+04 0.20268556E+04 0.28833445E+03 0.0000E+00 0.0000E+00
       23  2    1    2    0    0 0.21281061E+03 0.29740349E+02 0.23951095E+02 0.23473634E+03 0.91403778E+02 0.0000E+00 0.0000E+00
       24  1    3    3    0    0 -.24800781E+03 -.41912328E+02 0.16471280E+04 0.16681614E+04 0.80419002E+02 0.0000E+00 0.9000E+01
      -13  1    4    4    0    0 0.13679160E+02 -.21287481E+02 0.14026282E+02 0.28931367E+02 0.10565837E+00 0.0000E+00 0.9000E+01
       13  1    4    4    0    0 0.19913145E+03 0.51027830E+02 0.99248132E+01 0.20580497E+03 0.10565837E+00 0.0000E+00 0.9000E+01
      -24  1    3    3    0    0 0.35197198E+02 0.12171979E+02 0.34757346E+03 0.35869420E+03 0.80419002E+02 0.0000E+00 0.9000E+01
#aMCatNLO 1  0  0  2  2 0.90601142D+03 0.00000000D+00  -5  7  0 0.00000000D+00 0.00000000D+00 0.00000000D+00 0.00000000D+00 0.00000000D+00
  <mgrwgt>
 0.2635454395D-02    5    2    0
 0.509862689801290D+03 0.000000000000000D+00 0.000000000000000D+00 0.509862689801290D+03
 0.509862689801290D+03 0.000000000000000D+00 0.000000000000000D+00 -.509862689801290D+03
 0.439060501846053D+03 -.248007808955665D+03 -.419123276708333D+02 0.350773989647408D+03
 0.363982425141737D+02 0.136789121000675D+02 -.212875779796262D+02 -.261640678343518D+02
 0.436796681279540D+03 0.199131699004633D+03 0.510279266195923D+02 -.385401164934998D+03
 0.107469953962814D+03 0.351971978509648D+02 0.121719790308672D+02 0.607912431219418D+02
 0.000000000000000D+00 0.000000000000000D+00 0.000000000000000D+00 -.000000000000000D+00
 0.986456817175721D+03 0.000000000000000D+00 0.000000000000000D+00 0.986456817175721D+03
 0.135615188761874D+04 0.000000000000000D+00 0.000000000000000D+00 -.135615188761874D+04
 0.810441245914257D+03 -.720003089694120D+03 -.943448787292840D+02 0.350773989647408D+03
 0.386984671426434D+02 -.146886292983644D+02 -.244388437305229D+02 -.261640678343518D+02
 0.403447661942346D+03 -.118267908782063D+03 0.157689487858077D+02 -.385401164934998D+03
 0.111486133178740D+03 -.475127623431814D+02 0.298397570139091D+01 0.607912431219418D+02
 0.978535196616471D+03 0.900472390117728D+03 0.100030797972608D+03 -.369695070443014D+03
0.135075677025D-03 0.000000000000D+00 0.000000000000D+00 0.154291751530D-07 0.000000000000D+00  7 2 -2 24 -13 13 -24 21 0 0.32924957D+00 0.18687643D-01 0.85135881D+05 0.85135881D+05 0.85135881D+05 0.11275026D+01  1  2  2  2  7  2       -2 0.229249576830D-02 0.100000000000D+01
-.466189256683D-05 0.000000000000D+00 -.518726166020D-06 0.154291751530D-07 0.000000000000D+00  7 2 -2 24 -13 13 -24 21 2 0.32924957D+00 0.18687643D-01 0.85135881D+05 0.85135881D+05 0.85135881D+05 0.11275026D+01  1  2  3  2  7  2       -2 -.100583970592D-03 0.100000000000D+01
0.834304069863D-05 0.000000000000D+00 0.000000000000D+00 0.154291751530D-07 0.000000000000D+00  7 2 -2 24 -13 13 -24 21 2 0.32924957D+00 0.18687643D-01 0.85135881D+05 0.85135881D+05 0.85135881D+05 0.11275026D+01  1  2 15  2  7  2       -2 0.180007614557D-03 0.100000000000D+01
0.192599740711D-03 0.000000000000D+00 -.687108375469D-04 0.154291751530D-07 0.000000000000D+00  7 2 -2 24 -13 13 -24 21 2 0.32924957D+00 0.12614752D+00 0.85135881D+05 0.85135881D+05 0.85135881D+05 0.11275026D+01  1  2  5  2  7  2       -2 0.918719309151D-04 0.100000000000D+01
0.390281602074D-04 0.000000000000D+00 -.160572413036D-04 0.154291751530D-07 0.000000000000D+00  7 2 21 24 -13 13 -24 2 2 0.32924957D+00 0.12614752D+00 0.85135881D+05 0.85135881D+05 0.85135881D+05 0.11275026D+01  1  2  5  4  7  2       -2 0.171663051742D-03 0.100000000000D+01
  </mgrwgt>
  </event>
  <event>
  8     66 0.26993063E-05 0.40866513E+03 0.75467711E-02 0.96940464E-01
        2 -1    0    0  501    0 0.00000000E+00 0.00000000E+00 0.43183978E+03 0.43183990E+03 0.32000000E+00 0.0000E+00 0.9000E+01
       -2 -1    0    0    0  501 0.00000000E+00 0.00000000E+00 -.44302845E+03 0.44302857E+03 0.32000000E+00 0.0000E+00 0.9000E+01
       25  2    1    2    0    0 0.13673526E+03 0.34570419E+03 0.69521306E+02 0.48291298E+03 0.30027290E+03 0.0000E+00 0.0000E+00
       23  2    1    2    0    0 -.13673526E+03 -.34570419E+03 -.80709976E+02 0.39195549E+03 0.94377346E+02 0.0000E+00 0.0000E+00
       24  1    3    3    0    0 -.83322513E+00 0.24515994E+02 -.58248240E+02 0.10228295E+03 0.80419002E+02 0.0000E+00 0.9000E+01
      -13  1    4    4    0    0 -.20733989E+02 -.11080224E+03 0.13536986E+02 0.11353544E+03 0.10565837E+00 0.0000E+00 0.9000E+01
       13  1    4    4    0    0 -.11600127E+03 -.23490195E+03 -.94246962E+02 0.27842005E+03 0.10565837E+00 0.0000E+00 0.9000E+01
      -24  1    3    3    0    0 0.13756849E+03 0.32118820E+03 0.12776955E+03 0.38063003E+03 0.80419002E+02 0.0000E+00 0.9000E+01
#aMCatNLO 1  0  0  1  1 0.20621415D+01 0.00000000D+00  -5  7  0 0.00000000D+00 0.00000000D+00 0.00000000D+00 0.00000000D+00 0.00000000D+00
  <mgrwgt>
 0.4232274222D-03    6    2    0
 0.437398456996428D+03 0.000000000000000D+00 0.000000000000000D+00 0.437398456996428D+03
 0.437398456996428D+03 0.000000000000000D+00 0.000000000000000D+00 -.437398456996428D+03
 0.101546318226795D+03 -.833225081111145D+00 0.245159942953525D+02 -.569448026664537D+02
 0.113717657217683D+03 -.207338706005234D+02 -.110802083719704D+03 0.149903441044867D+02
 0.277237603223988D+03 -.116001393210704D+03 -.234902106314601D+03 -.906938027845412D+02
 0.382295335324389D+03 0.137568488892339D+03 0.321188195738952D+03 0.132648261346508D+03
 0.000000000000000D+00 -.000000000000000D+00 -.000000000000000D+00 -.000000000000000D+00
 0.437817705773062D+03 0.000000000000000D+00 0.000000000000000D+00 0.437817705773062D+03
 0.439942786330428D+03 0.000000000000000D+00 0.000000000000000D+00 -.439942786330428D+03
 0.101598899431981D+03 -.738499723977962D+00 0.247358945432673D+02 -.569448026664537D+02
 0.113458755000959D+03 -.206279396461664D+02 -.110556170230118D+03 0.149903441044867D+02
 0.276621638407841D+03 -.115743132075789D+03 -.234302565818652D+03 -.906938027845412D+02
 0.383120051671493D+03 0.137925397347896D+03 0.322016741127803D+03 0.132648261346508D+03
 0.296114759121502D+01 -.815825901962209D+00 -.189389962230080D+01 -.212508055736599D+01
0.244878842287D-04 0.000000000000D+00 0.000000000000D+00 0.391499426328D-06 0.000000000000D+00  7 2 -2 24 -13 13 -24 21 0 0.66436907D-01 0.68158241D-01 0.16700719D+06 0.16700719D+06 0.16700719D+06 0.11038897D+01  1  2  2  1  7  1        2 0.439868541643D-03 0.100000000000D+01
-.135280106064D-05 0.000000000000D+00 -.940399232460D-07 0.391499426328D-06 0.000000000000D+00  7 2 -2 24 -13 13 -24 21 2 0.66436907D-01 0.68158241D-01 0.16700719D+06 0.16700719D+06 0.16700719D+06 0.11038897D+01  1  2  3  1  7  1        2 -.296112654387D-04 0.100000000000D+01
0.154649881331D-05 0.000000000000D+00 0.000000000000D+00 0.391499426328D-06 0.000000000000D+00  7 2 -2 24 -13 13 -24 21 2 0.66436907D-01 0.68158241D-01 0.16700719D+06 0.16700719D+06 0.16700719D+06 0.11038897D+01  1  2 15  1  7  1        2 0.338510873430D-04 0.100000000000D+01
-.130905854956D-03 0.000000000000D+00 0.000000000000D+00 0.391499426328D-06 0.000000000000D+00  7 2 -2 24 -13 13 -24 21 2 0.66436907D-01 0.68158241D-01 0.16700719D+06 0.16700719D+06 0.16700719D+06 0.11038897D+01  1  2  4  1  7  1        2 -.286537919829D-02 0.100000000000D+01
0.130908722581D-03 0.000000000000D+00 0.000000000000D+00 0.391499426328D-06 0.598160035696D-06  7 2 -2 24 -13 13 -24 21 2 0.66500587D-01 0.68554715D-01 0.16786311D+06 0.16786311D+06 0.16786311D+06 0.11037164D+01  1  2 11  1  7  1        2 0.282594444034D-02 0.100000000000D+01
0.374572415963D-06 0.000000000000D+00 0.000000000000D+00 0.391499426328D-06 0.107668617146D-09  7 21 -2 24 -13 13 -24 -2 2 0.66500587D-01 0.68554715D-01 0.16786311D+06 0.16786311D+06 0.16786311D+06 0.11037164D+01  1  2 11  3  7  1        2 0.185538165973D-04 0.100000000000D+01
  </mgrwgt>
  </event>
  <event>
  8     66 0.26993063E-05 0.13231338E+03 0.75467711E-02 0.10248760E+00
        2 -1    0    0  501    0 0.00000000E+00 0.00000000E+00 0.21087586E+04 0.21087587E+04 0.32000000E+00 0.0000E+00 0.9000E+01
       -2 -1    0    0    0  501 0.00000000E+00 0.00000000E+00 -.36627571E+02 0.36628969E+02 0.32000000E+00 0.0000E+00 0.9000E+01
       25  2    1    2    0    0 -.11498187E+03 0.93582160E+02 0.17364073E+04 0.17681771E+04 0.29893405E+03 0.0000E+00 0.0000E+00
       23  2    1    2    0    0 0.11498187E+03 -.93582160E+02 0.33572379E+03 0.37721053E+03 0.87171518E+02 0.0000E+00 0.0000E+00
       24  1    3    3    0    0 -.98026524E+02 0.17213990E+03 0.96216398E+03 0.98563081E+03 0.80419002E+02 0.0000E+00 0.9000E+01
      -13  1    4    4    0    0 0.40201424E+02 -.48681589E+01 0.30556674E+02 0.50730415E+02 0.10565837E+00 0.0000E+00 0.9000E+01
       13  1    4    4    0    0 0.74780442E+02 -.88714001E+02 0.30516711E+03 0.32648012E+03 0.10565837E+00 0.0000E+00 0.9000E+01
      -24  1    3    3    0    0 -.16955343E+02 -.78557736E+02 0.77424330E+03 0.78254629E+03 0.80419002E+02 0.0000E+00 0.9000E+01
#aMCatNLO 1  0  0  2  1 0.42555677D+02 0.00000000D+00  -5  7  0 0.00000000D+00 0.00000000D+00 0.00000000D+00 0.00000000D+00 0.00000000D+00
  <mgrwgt>
 0.8072250350D-03    9    2    0
 0.277921271640916D+03 0.000000000000000D+00 0.000000000000000D+00 0.277921271640916D+03
 0.277921271640916D+03 0.000000000000000D+00 0.000000000000000D+00 -.277921271640916D+03
 0.217382180498750D+03 -.980265242171422D+02 0.172139895609592D+03 0.393249708638888D+02
 0.818917845083532D+02 0.402013739959924D+02 -.486803682758953D+01 -.711787616936551D+02
 0.122481057198367D+03 0.747804936426351D+02 -.887141241967805D+02 -.392338031675718D+02
 0.134087521076361D+03 -.169553434214853D+02 -.785577345852216D+02 0.710875939973381D+02
 0.000000000000000D+00 -.000000000000000D+00 -.000000000000000D+00 -.000000000000000D+00
 0.282176936914009D+03 0.000000000000000D+00 0.000000000000000D+00 0.282176936914009D+03
 0.410257749071681D+03 0.000000000000000D+00 0.000000000000000D+00 -.410257749071681D+03
 0.228594025239880D+03 -.932910616999308D+02 0.188516144917230D+03 0.393249708638888D+02
 0.826283891542321D+02 0.419482813549040D+02 0.117314506814035D+01 -.711787616936551D+02
 0.117905188043564D+03 0.773329617773667D+02 -.798871396367204D+02 -.392338031675718D+02
 0.128341606182458D+03 -.141688196572849D+02 -.689213352475961D+02 0.710875939973381D+02
 0.134965477365556D+03 -.118213617750550D+02 -.408808151010542D+02 -.128080812157673D+03
0.622821259593D-05 0.000000000000D+00 0.000000000000D+00 0.187077156515D-07 0.000000000000D+00  7 2 -2 24 -13 13 -24 21 0 0.32442452D+00 0.56351204D-02 0.58566545D+05 0.58566545D+05 0.58566545D+05 0.11413029D+01  1  2  2  2  7  2       -2 0.708408749012D-03 0.100000000000D+01
-.337956001055D-06 0.000000000000D+00 -.239179762944D-07 0.187077156515D-07 0.000000000000D+00  7 2 -2 24 -13 13 -24 21 2 0.32442452D+00 0.56351204D-02 0.58566545D+05 0.58566545D+05 0.58566545D+05 0.11413029D+01  1  2  3  2  7  2       -2 -.500705666821D-04 0.100000000000D+01
0.400647126191D-06 0.000000000000D+00 0.000000000000D+00 0.187077156515D-07 0.000000000000D+00  7 2 -2 24 -13 13 -24 21 2 0.32442452D+00 0.56351204D-02 0.58566545D+05 0.58566545D+05 0.58566545D+05 0.11413029D+01  1  2 15  2  7  2       -2 0.593586993138D-04 0.100000000000D+01
0.352058386562D-04 0.000000000000D+00 0.000000000000D+00 0.187077156515D-07 0.000000000000D+00  7 2 -2 24 -13 13 -24 21 2 0.32442452D+00 0.83452965D-02 0.69629522D+05 0.69629522D+05 0.69629522D+05 0.11348556D+01  1  2 12  2  7  2       -2 0.285373555470D-02 0.100000000000D+01
-.335234006109D-04 0.000000000000D+00 0.000000000000D+00 0.187077156515D-07 0.000000000000D+00  7 2 -2 24 -13 13 -24 21 2 0.32442452D+00 0.56351204D-02 0.58566545D+05 0.58566545D+05 0.58566545D+05 0.11413029D+01  1  2  4  2  7  2       -2 -.496672839203D-02 0.100000000000D+01
-.371697601006D-04 0.000000000000D+00 -.258264862228D-05 0.187077156515D-07 0.000000000000D+00  7 2 -2 24 -13 13 -24 21 2 0.32442452D+00 0.84408398D-02 0.58566545D+05 0.58566545D+05 0.58566545D+05 0.11413029D+01  1  2  5  2  7  2       -2 -.300613225341D-02 0.100000000000D+01
0.354751182011D-04 0.000000000000D+00 0.238526703747D-05 0.187077156515D-07 0.000000000000D+00  7 2 -2 24 -13 13 -24 21 2 0.32442452D+00 0.56351204D-02 0.58566545D+05 0.58566545D+05 0.58566545D+05 0.11413029D+01  1  2  6  2  7  2       -2 0.525588912727D-02 0.100000000000D+01
0.165326567897D-05 0.000000000000D+00 0.000000000000D+00 0.187077156515D-07 0.000000000000D+00  7 2 21 24 -13 13 -24 2 2 0.32442452D+00 0.83452965D-02 0.69629522D+05 0.69629522D+05 0.69629522D+05 0.11348556D+01  1  2 12  4  7  2       -2 0.203004517503D-02 0.100000000000D+01
-.169309582454D-05 0.000000000000D+00 -.123849793654D-06 0.187077156515D-07 0.000000000000D+00  7 2 21 24 -13 13 -24 2 2 0.32442452D+00 0.84408398D-02 0.58566545D+05 0.58566545D+05 0.58566545D+05 0.11413029D+01  1  2  5  4  7  2       -2 -.207728105817D-02 0.100000000000D+01
  </mgrwgt>
  </event>
  <event>
  8     66 0.26993063E-05 0.46115527E+03 0.75467711E-02 0.93254791E-01
        2 -1    0    0  501    0 0.00000000E+00 0.00000000E+00 0.29018371E+04 0.29018371E+04 0.32000000E+00 0.0000E+00 0.9000E+01
       -2 -1    0    0    0  501 0.00000000E+00 0.00000000E+00 -.31941953E+03 0.31941969E+03 0.32000000E+00 0.0000E+00 0.9000E+01
       25  2    1    2    0    0 0.33725771E+03 -.24296208E+03 0.27248266E+04 0.27726529E+04 0.30025051E+03 0.0000E+00 0.0000E+00
       23  2    1    2    0    0 -.33725771E+03 0.24296208E+03 -.14240911E+03 0.44860391E+03 0.90508427E+02 0.0000E+00 0.0000E+00
       24  1    3    3    0    0 0.87362520E+00 -.46063920E+01 0.25683366E+03 0.26917044E+03 0.80419002E+02 0.0000E+00 0.9000E+01
      -11  1    4    4    0    0 -.25497778E+02 0.47028093E+02 -.38806347E+02 0.66088659E+02 0.51099893E-03 0.0000E+00 0.9000E+01
       11  1    4    4    0    0 -.31175993E+03 0.19593398E+03 -.10360276E+03 0.38251525E+03 0.51099893E-03 0.0000E+00 0.9000E+01
      -24  1    3    3    0    0 0.33638409E+03 -.23835568E+03 0.24679930E+04 0.25034824E+04 0.80419002E+02 0.0000E+00 0.9000E+01
#aMCatNLO 1  0  0  1  1 0.18860583D+03 0.00000000D+00  -5  7  0 0.00000000D+00 0.00000000D+00 0.00000000D+00 0.00000000D+00 0.00000000D+00
  <mgrwgt>
 0.1168630470D-02    4    2    0
 0.962758391845058D+03 0.000000000000000D+00 0.000000000000000D+00 0.962758391845058D+03
 0.962758391845058D+03 0.000000000000000D+00 0.000000000000000D+00 -.962758391845058D+03
 0.105849694708957D+03 0.873625197848369D+00 -.460639198597550D+01 0.686655652237286D+02
 0.162607114955579D+03 -.254977778541475D+02 0.470280932149627D+02 -.153555513112497D+03
 0.778869044233572D+03 -.311759934307485D+03 0.195933982968984D+03 -.686332722332122D+03
 0.878190929792008D+03 0.336384086963784D+03 -.238355684197971D+03 0.771222670220890D+03
 0.000000000000000D+00 -.000000000000000D+00 -.000000000000000D+00 -.000000000000000D+00
 0.987530128763887D+03 0.000000000000000D+00 0.000000000000000D+00 0.987530128763887D+03
 0.140839612897021D+04 0.000000000000000D+00 0.000000000000000D+00 -.140839612897021D+04
 0.106121056190679D+03 0.862463334103715D+01 0.226240246048985D+01 0.686655652237286D+02
 0.164571253156704D+03 -.135340414199908D+02 0.576301265066091D+02 -.153555513112497D+03
 0.772470709104606D+03 -.255033017928961D+03 0.246204286004121D+03 -.686332722332122D+03
 0.891568757351955D+03 0.401097834914015D+03 -.181007604526411D+03 0.771222670220890D+03
 0.461194481930157D+03 -.141155408906100D+03 -.125089210444809D+03 -.420866000206327D+03
0.113256422106D-02 0.000000000000D+00 0.000000000000D+00 0.182045904959D-04 0.000000000000D+00  7 2 -2 24 -11 11 -24 21 0 0.44643648D+00 0.49141480D-01 0.21266418D+06 0.21266418D+06 0.21266418D+06 0.10957833D+01  1  2  2  1  7  1        2 0.119281080337D-02 0.100000000000D+01
-.214718756210D-04 0.000000000000D+00 -.434934481986D-05 0.182045904959D-04 0.000000000000D+00  7 2 -2 24 -11 11 -24 21 2 0.44643648D+00 0.49141480D-01 0.21266418D+06 0.21266418D+06 0.21266418D+06 0.10957833D+01  1  2  3  1  7  1        2 -.271536427093D-04 0.100000000000D+01
0.697096436228D-04 0.000000000000D+00 0.000000000000D+00 0.182045904959D-04 0.000000000000D+00  7 2 -2 24 -11 11 -24 21 2 0.44643648D+00 0.49141480D-01 0.21266418D+06 0.21266418D+06 0.21266418D+06 0.10957833D+01  1  2 15  1  7  1        2 0.881558178584D-04 0.100000000000D+01
-.673584847747D-04 0.000000000000D+00 0.000000000000D+00 0.182045904959D-04 0.000000000000D+00  7 2 -2 24 -11 11 -24 21 2 0.44643648D+00 0.49141480D-01 0.21266418D+06 0.21266418D+06 0.21266418D+06 0.10957833D+01  1  2  4  1  7  1        2 -.851825085658D-04 0.100000000000D+01
  </mgrwgt>
  </event>
  <event>
  8     66 0.26993063E-05 0.29480566E+03 0.75467711E-02 0.87558029E-01
        2 -1    0    0  501    0 0.00000000E+00 0.00000000E+00 0.51746006E+03 0.51746016E+03 0.32000000E+00 0.0000E+00 0.9000E+01
       -2 -1    0    0    0  501 0.00000000E+00 0.00000000E+00 -.31391429E+03 0.31391445E+03 0.32000000E+00 0.0000E+00 0.9000E+01
       25  2    1    2    0    0 0.24248455E+03 0.89279652E+02 0.34230703E+03 0.52440582E+03 0.30175778E+03 0.0000E+00 0.0000E+00
       23  2    1    2    0    0 -.24248455E+03 -.89279652E+02 -.13876126E+03 0.30696878E+03 0.90584407E+02 0.0000E+00 0.0000E+00
       24  1    3    3    0    0 0.96083877E+02 0.89935691E+02 0.32085377E+03 0.35599845E+03 0.80419002E+02 0.0000E+00 0.9000E+01
      -13  1    4    4    0    0 -.70602957E+02 -.62687533E+02 -.78854111E+02 0.12301417E+03 0.10565837E+00 0.0000E+00 0.9000E+01
       13  1    4    4    0    0 -.17188159E+03 -.26592119E+02 -.59907147E+02 0.18395461E+03 0.10565837E+00 0.0000E+00 0.9000E+01
      -24  1    3    3    0    0 0.14640067E+03 -.65603863E+00 0.21453263E+02 0.16840738E+03 0.80419002E+02 0.0000E+00 0.9000E+01
#aMCatNLO 1  0  0  1  2 0.89184247D+03 0.00000000D+00  -5  7  0 0.00000000D+00 0.00000000D+00 0.00000000D+00 0.00000000D+00 0.00000000D+00
  <mgrwgt>
 0.8014220513D-03    3    2    0
 0.403036243737190D+03 0.000000000000000D+00 0.000000000000000D+00 0.403036243737190D+03
 0.403036243737190D+03 0.000000000000000D+00 0.000000000000000D+00 -.403036243737190D+03
 0.286152480720073D+03 0.960838785380280D+02 0.899356904176339D+02 0.241030052362925D+03
 0.146787314277775D+03 -.706028200512169D+02 -.626875819789288D+02 -.112392279536154D+03
 0.204856393261276D+03 -.171881726490059D+03 -.265920704654127D+02 -.108238975176125D+03
 0.168276299215255D+03 0.146400668003248D+03 -.656037973292378D+00 -.203987976506460D+02
 0.000000000000000D+00 0.000000000000000D+00 -.000000000000000D+00 -.000000000000000D+00
 0.951311537299701D+03 0.000000000000000D+00 0.000000000000000D+00 0.951311537299701D+03
 0.116880632211650D+04 0.000000000000000D+00 0.000000000000000D+00 -.116880632211650D+04
 0.363235583501896D+03 -.173099029899860D+03 0.193427280581735D+03 0.241030052362925D+03
 0.266934249793997D+03 -.242097770506982D+03 0.324634090932939D+01 -.112392279536154D+03
 0.472458842037840D+03 -.452640944301597D+03 0.813502133636873D+02 -.108238975176125D+03
 0.995093541199188D+02 0.353987494677334D+02 0.420203902114378D+02 -.203987976506460D+02
 0.917979829962555D+03 0.832438995240706D+03 -.320044225066189D+03 -.217494784816803D+03
0.262924870324D-04 0.000000000000D+00 0.000000000000D+00 0.174411911290D-06 0.000000000000D+00  7 2 -2 24 -13 13 -24 21 0 0.79609260D-01 0.48294526D-01 0.86910378D+05 0.86910378D+05 0.86910378D+05 0.11267565D+01  1  2  2  1  7  1        2 0.787248608995D-03 0.100000000000D+01
-.128702382397D-05 0.000000000000D+00 -.100970073175D-06 0.174411911290D-06 0.000000000000D+00  7 2 -2 24 -13 13 -24 21 2 0.79609260D-01 0.48294526D-01 0.86910378D+05 0.86910378D+05 0.86910378D+05 0.11267565D+01  1  2  3  1  7  1        2 -.489245618355D-04 0.100000000000D+01
0.165987453951D-05 0.000000000000D+00 0.000000000000D+00 0.174411911290D-06 0.000000000000D+00  7 2 -2 24 -13 13 -24 21 2 0.79609260D-01 0.48294526D-01 0.86910378D+05 0.86910378D+05 0.86910378D+05 0.11267565D+01  1  2 15  1  7  1        2 0.630980041199D-04 0.100000000000D+01
  </mgrwgt>
  </event>
  <event>
  8     66 0.26993063E-05 0.25375227E+03 0.75467711E-02 0.95033382E-01
        2 -1    0    0  501    0 0.00000000E+00 0.00000000E+00 0.15420642E+04 0.15420642E+04 0.32000000E+00 0.0000E+00 0.9000E+01
       -2 -1    0    0    0  501 0.00000000E+00 0.00000000E+00 -.54346256E+02 0.54347198E+02 0.32000000E+00 0.0000E+00 0.9000E+01
       25  2    1    2    0    0 0.25635901E+02 -.17592091E+03 0.67679816E+03 0.76132769E+03 0.29993122E+03 0.0000E+00 0.0000E+00
       23  2    1    2    0    0 -.25635901E+02 0.17592091E+03 0.81091980E+03 0.83508375E+03 0.90380252E+02 0.0000E+00 0.0000E+00
       24  1    3    3    0    0 0.12214111E+03 -.73950896E+02 0.47621802E+03 0.50362486E+03 0.80419002E+02 0.0000E+00 0.9000E+01
      -11  1    4    4    0    0 -.19485874E+02 0.29932707E+02 0.57988377E+02 0.68105199E+02 0.51099893E-03 0.0000E+00 0.9000E+01
       11  1    4    4    0    0 -.61500276E+01 0.14598821E+03 0.75293142E+03 0.76697855E+03 0.51099893E-03 0.0000E+00 0.9000E+01
      -24  1    3    3    0    0 -.96505205E+02 -.10197002E+03 0.20058014E+03 0.25770283E+03 0.80419002E+02 0.0000E+00 0.9000E+01
#aMCatNLO 1  0  0  1  2 0.35862935D+03 0.00000000D+00  -5  7  0 0.00000000D+00 0.00000000D+00 0.00000000D+00 0.00000000D+00 0.00000000D+00
  <mgrwgt>
 0.1067926577D-02    5    2    0
 0.289492996519291D+03 0.000000000000000D+00 0.000000000000000D+00 0.289492996519291D+03
 0.289492996519291D+03 0.000000000000000D+00 0.000000000000000D+00 -.289492996519291D+03
 0.164968406161654D+03 0.122141106376166D+03 -.739508963626668D+02 0.189782543325273D+02
 0.387808499702924D+02 -.194858737853813D+02 0.299327070935561D+02 -.151092055810321D+02
 0.180079913287870D+03 -.615002763737062D+01 0.145988206248396D+03 0.105253959384918D+03
 0.195156823618767D+03 -.965052049534138D+02 -.101970016979286D+03 -.109123008136413D+03
 0.000000000000000D+00 -.000000000000000D+00 -.000000000000000D+00 0.000000000000000D+00
 0.523207929162448D+03 0.000000000000000D+00 0.000000000000000D+00 0.523207929162448D+03
 0.516541222198384D+03 0.000000000000000D+00 0.000000000000000D+00 -.516541222198384D+03
 0.242466965813779D+03 0.226706099769407D+03 -.238156197988450D+02 0.189782543325273D+02
 0.427501015445563D+02 0.143838560123111D+01 0.399651615240344D+02 -.151092055810321D+02
 0.247486882070978D+03 0.103581532769621D+03 0.198600671952811D+03 0.105253959384918D+03
 0.148353895655287D+03 -.834595673388283D+01 -.597007244778963D+02 -.109123008136413D+03
 0.358691306276233D+03 -.323380061406377D+03 -.155049489200104D+03 0.666670696406350D+01
0.841224344758D-05 0.000000000000D+00 0.000000000000D+00 0.135803756747D-05 0.000000000000D+00  7 2 -2 24 -11 11 -24 21 0 0.23724072D+00 0.83610375D-02 0.64390217D+05 0.64390217D+05 0.64390217D+05 0.11377566D+01  1  2  2  1  7  1        2 0.105806637874D-02 0.100000000000D+01
-.457480176114D-06 0.000000000000D+00 -.323052298333D-07 0.135803756747D-05 0.000000000000D+00  7 2 -2 24 -11 11 -24 21 2 0.23724072D+00 0.83610375D-02 0.64390217D+05 0.64390217D+05 0.64390217D+05 0.11377566D+01  1  2  3  1  7  1        2 -.744855588407D-04 0.100000000000D+01
0.541153694101D-06 0.000000000000D+00 0.000000000000D+00 0.135803756747D-05 0.000000000000D+00  7 2 -2 24 -11 11 -24 21 2 0.23724072D+00 0.83610375D-02 0.64390217D+05 0.64390217D+05 0.64390217D+05 0.11377566D+01  1  2 15  1  7  1        2 0.881090316660D-04 0.100000000000D+01
-.318142856757D-06 0.000000000000D+00 -.222326862027D-05 0.135803756747D-05 0.000000000000D+00  7 2 -2 24 -11 11 -24 21 2 0.53716330D+00 0.83610375D-02 0.64390217D+05 0.64390217D+05 0.64390217D+05 0.11377566D+01  1  2  5  1  7  1        2 -.381535082750D-05 0.100000000000D+01
0.112362833284D-06 0.000000000000D+00 -.197415144862D-06 0.135803756747D-05 0.000000000000D+00  7 21 -2 24 -11 11 -24 -2 2 0.53716330D+00 0.83610375D-02 0.64390217D+05 0.64390217D+05 0.64390217D+05 0.11377566D+01  1  2  5  3  7  1        2 0.520767487469D-07 0.100000000000D+01
  </mgrwgt>
  </event>
  <event>
  8     66 0.26993063E-05 0.76467359E+03 0.75467711E-02 0.85958384E-01
        2 -1    0    0  501    0 0.00000000E+00 0.00000000E+00 0.19247570E+04 0.19247570E+04 0.32000000E+00 0.0000E+00 0.9000E+01
       -2 -1    0    0    0  501 0.00000000E+00 0.00000000E+00 -.43788682E+03 0.43788694E+03 0.32000000E+00 0.0000E+00 0.9000E+01
       25  2    1    2    0    0 0.76903756E+03 0.43153758E+03 0.59678053E+03 0.11061767E+04 0.29972712E+03 0.0000E+00 0.0000E+00
       23  2    1    2    0    0 -.76903756E+03 -.43153758E+03 0.89008965E+03 0.12564673E+04 0.93845836E+02 0.0000E+00 0.0000E+00
       24  1    3    3    0    0 0.87760407E+02 0.14587233E+03 0.11987591E+03 0.22319964E+03 0.80419002E+02 0.0000E+00 0.9000E+01
      -11  1    4    4    0    0 -.70293802E+03 -.36124164E+03 0.79389706E+03 0.11202187E+04 0.51099893E-03 0.0000E+00 0.9000E+01
       11  1    4    4    0    0 -.66099541E+02 -.70295938E+02 0.96192590E+02 0.13624861E+03 0.51099893E-03 0.0000E+00 0.9000E+01
      -24  1    3    3    0    0 0.68127716E+03 0.28566525E+03 0.47690462E+03 0.88297702E+03 0.80419002E+02 0.0000E+00 0.9000E+01
#aMCatNLO 1  0  0  1  2 0.44990446D+03 0.00000000D+00  -5  7  0 0.00000000D+00 0.00000000D+00 0.00000000D+00 0.00000000D+00 0.00000000D+00
  <mgrwgt>
 0.1248793484D-02    9    2    0
 0.918055495101987D+03 0.000000000000000D+00 0.000000000000000D+00 0.918055495101987D+03
 0.918055495101987D+03 0.000000000000000D+00 0.000000000000000D+00 -.918055495101987D+03
 0.190130853269873D+03 0.877604069894691D+02 0.145872332776062D+03 -.264933747618528D+02
 0.798566146986904D+03 -.702938021686479D+03 -.361241644619380D+03 0.114413735948506D+03
 0.974238781660744D+02 -.660995414131265D+02 -.702959382312930D+02 0.134440964766957D+02
 0.749990111781123D+03 0.681277156110137D+03 0.285665250074612D+03 -.101364457663349D+03
 0.000000000000000D+00 0.000000000000000D+00 -.000000000000000D+00 0.000000000000000D+00
 0.137600871458007D+04 0.000000000000000D+00 0.000000000000000D+00 0.137600871458007D+04
 0.106267939900547D+04 0.000000000000000D+00 0.000000000000000D+00 -.106267939900547D+04
 0.223599334303751D+03 0.730790656299128D+02 0.193615592365638D+03 -.264933747618528D+02
 0.788209981433291D+03 -.759245254521372D+03 -.178132297307789D+03 0.114413735948506D+03
 0.886025742345916D+02 -.727007465744381D+02 -.488290270069035D+02 0.134440964766957D+02
 0.790015994661872D+03 0.626629571709572D+03 0.463377472962281D+03 -.101364457663349D+03
 0.548260228952034D+03 0.132237363756325D+03 -.430031741013227D+03 0.313329315574600D+03
0.546065172861D-03 0.000000000000D+00 0.000000000000D+00 0.209807645659D-05 0.000000000000D+00  7 2 -2 24 -11 11 -24 21 0 0.29611647D+00 0.67367214D-01 0.82646625D+06 0.82646625D+06 0.82646625D+06 0.10534189D+01  1  2  2  1  7  1        2 0.101113800910D-02 0.100000000000D+01
-.303334111059D-04 0.000000000000D+00 -.209703404605D-05 0.209807645659D-05 0.000000000000D+00  7 2 -2 24 -11 11 -24 21 2 0.29611647D+00 0.67367214D-01 0.82646625D+06 0.82646625D+06 0.82646625D+06 0.10534189D+01  1  2  3  1  7  1        2 -.623288880664D-04 0.100000000000D+01
0.346797050629D-04 0.000000000000D+00 0.000000000000D+00 0.209807645659D-05 0.000000000000D+00  7 2 -2 24 -11 11 -24 21 2 0.29611647D+00 0.67367214D-01 0.82646625D+06 0.82646625D+06 0.82646625D+06 0.10534189D+01  1  2 15  1  7  1        2 0.712596235053D-04 0.100000000000D+01
0.211324386354D-03 0.000000000000D+00 0.000000000000D+00 0.209807645659D-05 0.000000000000D+00  7 2 -2 24 -11 11 -24 21 2 0.45781157D+00 0.67367214D-01 0.13489119D+07 0.13489119D+07 0.13489119D+07 0.10393194D+01  1  2 12  1  7  1        2 0.980580845205D-04 0.100000000000D+01
-.325497848067D-03 0.000000000000D+00 0.000000000000D+00 0.209807645659D-05 0.000000000000D+00  7 2 -2 24 -11 11 -24 21 2 0.29611647D+00 0.67367214D-01 0.82646625D+06 0.82646625D+06 0.82646625D+06 0.10534189D+01  1  2  4  1  7  1        2 -.668830777625D-03 0.100000000000D+01
-.451164565478D-03 0.000000000000D+00 -.167466735912D-03 0.209807645659D-05 0.000000000000D+00  7 2 -2 24 -11 11 -24 21 2 0.46404015D+00 0.67367214D-01 0.82646625D+06 0.82646625D+06 0.82646625D+06 0.10534189D+01  1  2  5  1  7  1        2 -.210351139350D-03 0.100000000000D+01
0.491542305805D-03 0.000000000000D+00 0.151882566460D-03 0.209807645659D-05 0.000000000000D+00  7 2 -2 24 -11 11 -24 21 2 0.29611647D+00 0.67367214D-01 0.82646625D+06 0.82646625D+06 0.82646625D+06 0.10534189D+01  1  2  6  1  7  1        2 0.101001780681D-02 0.100000000000D+01
0.107173721815D-04 0.000000000000D+00 0.000000000000D+00 0.209807645659D-05 0.000000000000D+00  7 21 -2 24 -11 11 -24 -2 2 0.45781157D+00 0.67367214D-01 0.13489119D+07 0.13489119D+07 0.13489119D+07 0.10393194D+01  1  2 12  3  7  1        2 0.317103167404D-06 0.100000000000D+01
-.167642170007D-04 0.000000000000D+00 -.869097294396D-05 0.209807645659D-05 0.000000000000D+00  7 21 -2 24 -11 11 -24 -2 2 0.46404015D+00 0.67367214D-01 0.82646625D+06 0.82646625D+06 0.82646625D+06 0.10534189D+01  1  2  5  3  7  1        2 -.486337586408D-06 0.100000000000D+01
  </mgrwgt>
  </event>
  <event>
  8     66 0.26993063E-05 0.16478811E+03 0.75467711E-02 0.10320216E+00
        2 -1    0    0  501    0 0.00000000E+00 0.00000000E+00 0.24604171E+04 0.24604171E+04 0.32000000E+00 0.0000E+00 0.9000E+01
       -2 -1    0    0    0  501 0.00000000E+00 0.00000000E+00 -.29188964E+02 0.29190718E+02 0.32000000E+00 0.0000E+00 0.9000E+01
       25  2    1    2    0    0 0.14668236E+03 -.16641806E+02 0.19430254E+04 0.19715440E+04 0.29974272E+03 0.0000E+00 0.0000E+00
       23  2    1    2    0    0 -.14668236E+03 0.16641806E+02 0.48820275E+03 0.51806377E+03 0.90859671E+02 0.0000E+00 0.0000E+00
       24  1    3    3    0    0 0.60443692E+02 0.10103690E+03 0.53408809E+03 0.55279218E+03 0.80419002E+02 0.0000E+00 0.9000E+01
      -11  1    4    4    0    0 -.87736479E+02 -.35016097E+02 0.24711995E+03 0.26456018E+03 0.51099893E-03 0.0000E+00 0.9000E+01
       11  1    4    4    0    0 -.58945883E+02 0.51657903E+02 0.24108280E+03 0.25350359E+03 0.51099893E-03 0.0000E+00 0.9000E+01
      -24  1    3    3    0    0 0.86238670E+02 -.11767871E+03 0.14089373E+04 0.14187519E+04 0.80419002E+02 0.0000E+00 0.9000E+01
#aMCatNLO 1  0  0  1  2 0.18210681D+02 0.00000000D+00  -5  7  0 0.00000000D+00 0.00000000D+00 0.00000000D+00 0.00000000D+00 0.00000000D+00
  <mgrwgt>
 0.1316404707D-02    9    2    0
 0.267991108529610D+03 0.000000000000000D+00 0.000000000000000D+00 0.267991108529610D+03
 0.267991108529610D+03 0.000000000000000D+00 0.000000000000000D+00 -.267991108529610D+03
 0.145052879449224D+03 0.604436922821723D+02 0.101036902156617D+03 -.266688272714202D+02
 0.107925429190935D+03 -.877364792945814D+02 -.350160968798810D+02 -.521927334629823D+02
 0.839528781167604D+02 -.589458829515350D+02 0.516579031221259D+02 -.300820490022973D+02
 0.199051030302300D+03 0.862386699639442D+02 -.117678708398862D+03 0.108943609736700D+03
 0.000000000000000D+00 -.000000000000000D+00 -.000000000000000D+00 0.000000000000000D+00
 0.277435423592968D+03 0.000000000000000D+00 0.000000000000000D+00 0.277435423592968D+03
 0.277070408172742D+03 0.000000000000000D+00 0.000000000000000D+00 -.277070408172742D+03
 0.147884024462245D+03 0.653009791686768D+02 0.102112802862121D+03 -.266688272714202D+02
 0.104819999633212D+03 -.842088746541513D+02 -.342347239838464D+02 -.521927334629823D+02
 0.824255220714870D+02 -.561871058543475D+02 0.522689788717259D+02 -.300820490022973D+02
 0.201161947229772D+03 0.928747380783357D+02 -.116208803381333D+03 0.108943609736700D+03
 0.182143383689934D+02 -.177797367385137D+02 -.393825436866754D+01 0.365015420225516D+00
0.369908260485D-05 0.000000000000D+00 0.000000000000D+00 0.381887502513D-06 0.000000000000D+00  7 2 -2 24 -11 11 -24 21 0 0.37852584D+00 0.44907464D-02 0.58084750D+05 0.58084750D+05 0.58084750D+05 0.11416136D+01  1  2  2  1  7  1        2 0.377995202562D-03 0.100000000000D+01
-.202690518262D-06 0.000000000000D+00 -.142054511934D-07 0.381887502513D-06 0.000000000000D+00  7 2 -2 24 -11 11 -24 21 2 0.37852584D+00 0.44907464D-02 0.58084750D+05 0.58084750D+05 0.58084750D+05 0.11416136D+01  1  2  3  1  7  1        2 -.269937936100D-04 0.100000000000D+01
0.239910977074D-06 0.000000000000D+00 0.000000000000D+00 0.381887502513D-06 0.000000000000D+00  7 2 -2 24 -11 11 -24 21 2 0.37852584D+00 0.44907464D-02 0.58084750D+05 0.58084750D+05 0.58084750D+05 0.11416136D+01  1  2 15  1  7  1        2 0.319507170609D-04 0.100000000000D+01
0.713860607356D-05 0.000000000000D+00 0.000000000000D+00 0.381887502513D-06 0.000000000000D+00  7 2 -2 24 -11 11 -24 21 2 0.39805928D+00 0.44907464D-02 0.62604995D+05 0.62604995D+05 0.62604995D+05 0.11388049D+01  1  2 12  1  7  1        2 0.800550175006D-03 0.100000000000D+01
-.555238800574D-05 0.000000000000D+00 0.000000000000D+00 0.381887502513D-06 0.000000000000D+00  7 2 -2 24 -11 11 -24 21 2 0.37852584D+00 0.44907464D-02 0.58084750D+05 0.58084750D+05 0.58084750D+05 0.11416136D+01  1  2  4  1  7  1        2 -.739452526714D-03 0.100000000000D+01
-.422094184740D-04 0.000000000000D+00 -.687249463308D-05 0.381887502513D-06 0.000000000000D+00  7 2 -2 24 -11 11 -24 21 2 0.39756522D+00 0.44907464D-02 0.58084750D+05 0.58084750D+05 0.58084750D+05 0.11416136D+01  1  2  5  1  7  1        2 -.478447717501D-02 0.100000000000D+01
0.425037594667D-04 0.000000000000D+00 0.686422733782D-05 0.381887502513D-06 0.000000000000D+00  7 2 -2 24 -11 11 -24 21 2 0.37852584D+00 0.44907464D-02 0.58084750D+05 0.58084750D+05 0.58084750D+05 0.11416136D+01  1  2  6  1  7  1        2 0.566053962728D-02 0.100000000000D+01
0.796009222561D-07 0.000000000000D+00 0.000000000000D+00 0.381887502513D-06 0.000000000000D+00  7 21 -2 24 -11 11 -24 -2 2 0.39805928D+00 0.44907464D-02 0.62604995D+05 0.62604995D+05 0.62604995D+05 0.11388049D+01  1  2 12  3  7  1        2 0.104376776041D-05 0.100000000000D+01
-.355507927118D-06 0.000000000000D+00 -.588331231754D-07 0.381887502513D-06 0.000000000000D+00  7 21 -2 24 -11 11 -24 -2 2 0.39756522D+00 0.44907464D-02 0.58084750D+05 0.58084750D+05 0.58084750D+05 0.11416136D+01  1  2  5  3  7  1        2 -.475128704365D-05 0.100000000000D+01
  </mgrwgt>
  </event>
  <event>
  8     66 0.26993063E-05 0.14932254E+03 0.75467711E-02 0.95398063E-01
        2 -1    0    0  501    0 0.00000000E+00 0.00000000E+00 0.99526093E+03 0.99526098E+03 0.32000000E+00 0.0000E+00 0.9000E+01
       -2 -1    0    0    0  501 0.00000000E+00 0.00000000E+00 -.56641390E+02 0.56642294E+02 0.32000000E+00 0.0000E+00 0.9000E+01
       25  2    1    2    0    0 -.36018722E+02 -.14640319E+02 0.38739758E+03 0.49176252E+03 0.30040274E+03 0.0000E+00 0.0000E+00
       23  2    1    2    0    0 0.36018722E+02 0.14640319E+02 0.55122196E+03 0.56014076E+03 0.91653310E+02 0.0000E+00 0.0000E+00
       24  1    3    3    0    0 -.72053509E+02 0.81033810E+01 0.38583212E+03 0.40073808E+03 0.80419002E+02 0.0000E+00 0.9000E+01
      -13  1    4    4    0    0 0.63868764E+02 0.26416561E+02 0.36647463E+03 0.37293527E+03 0.10565837E+00 0.0000E+00 0.9000E+01
       13  1    4    4    0    0 -.27850042E+02 -.11776242E+02 0.18474734E+03 0.18720549E+03 0.10565837E+00 0.0000E+00 0.9000E+01
      -24  1    3    3    0    0 0.36034787E+02 -.22743700E+02 0.15654643E+01 0.91024439E+02 0.80419002E+02 0.0000E+00 0.9000E+01
#aMCatNLO 1  0  0  1  2 0.42136597D+03 0.00000000D+00  -5  7  0 0.00000000D+00 0.00000000D+00 0.00000000D+00 0.00000000D+00 0.00000000D+00
  <mgrwgt>
 0.6821254834D-03    5    2    0
 0.237430969468443D+03 0.000000000000000D+00 0.000000000000000D+00 0.237430969468443D+03
 0.237430969468443D+03 0.000000000000000D+00 0.000000000000000D+00 -.237430969468443D+03
 0.125064004854091D+03 -.720535070632009D+02 0.810337998636657D+01 0.625812808151400D+02
 0.101738251623299D+03 0.638688863757571D+02 0.264166119488343D+02 0.746565456583086D+02
 0.495187551307079D+02 -.278501621075208D+02 -.117762915047466D+02 0.392147234935433D+02
 0.198540927328787D+03 0.360347827949646D+02 -.227437004304542D+02 -.176452549966992D+03
 0.000000000000000D+00 0.000000000000000D+00 -.000000000000000D+00 0.000000000000000D+00
 0.951069289552563D+03 0.000000000000000D+00 0.000000000000000D+00 0.951069289552563D+03
 0.387479614598961D+03 0.000000000000000D+00 0.000000000000000D+00 -.387479614598961D+03
 0.177216628153949D+03 -.771365386243381D+02 0.122768298190034D+03 0.625812808151400D+02
 0.156924618573042D+03 0.595193138615717D+02 0.124535887928385D+03 0.746565456583086D+02
 0.568581220956444D+02 -.296389535988446D+02 0.285759328655021D+02 0.392147234935433D+02
 0.243857416338740D+03 0.285955872332792D+02 0.145072442420900D+03 -.176452549966992D+03
 0.703692118990148D+03 0.186605911283319D+02 -.420952561404821D+03 0.563589674953601D+03
0.278798558610D-05 0.000000000000D+00 0.000000000000D+00 0.388880670018D-06 0.000000000000D+00  7 2 -2 24 -13 13 -24 21 0 0.15311714D+00 0.87141335D-02 0.22297221D+05 0.22297221D+05 0.22297221D+05 0.11794850D+01  1  2  2  1  7  1        2 0.659767492778D-03 0.100000000000D+01
-.114383748229D-06 0.000000000000D+00 -.107065987441D-07 0.388880670018D-06 0.000000000000D+00  7 2 -2 24 -13 13 -24 21 2 0.15311714D+00 0.87141335D-02 0.22297221D+05 0.22297221D+05 0.22297221D+05 0.11794850D+01  1  2  3  1  7  1        2 -.376573304823D-04 0.100000000000D+01
0.175606302232D-06 0.000000000000D+00 0.000000000000D+00 0.388880670018D-06 0.000000000000D+00  7 2 -2 24 -13 13 -24 21 2 0.15311714D+00 0.87141335D-02 0.22297221D+05 0.22297221D+05 0.22297221D+05 0.11794850D+01  1  2 15  1  7  1        2 0.578129730869D-04 0.100000000000D+01
0.805213843211D-06 0.000000000000D+00 -.100710164620D-05 0.388880670018D-06 0.000000000000D+00  7 2 -2 24 -13 13 -24 21 2 0.66955891D+00 0.87141335D-02 0.22297221D+05 0.22297221D+05 0.22297221D+05 0.11794850D+01  1  2  5  1  7  1        2 0.219675329004D-05 0.100000000000D+01
0.139611266521D-06 0.000000000000D+00 -.179165568357D-06 0.388880670018D-06 0.000000000000D+00  7 21 -2 24 -13 13 -24 -2 2 0.66955891D+00 0.87141335D-02 0.22297221D+05 0.22297221D+05 0.22297221D+05 0.11794850D+01  1  2  5  3  7  1        2 0.559476712987D-08 0.100000000000D+01
  </mgrwgt>
  </event>
  <event>
  9     66 0.26993063E-05 0.44002897E+03 0.75467711E-02 0.95680775E-01
        2 -1    0    0  502    0 0.00000000E+00 0.00000000E+00 0.79385225E+03 0.79385232E+03 0.32000000E+00 0.0000E+00 0.9000E+01
       -2 -1    0    0    0  501 0.00000000E+00 0.00000000E+00 -.31400322E+03 0.31400338E+03 0.32000000E+00 0.0000E+00 0.9000E+01
       25  2    1    2    0    0 -.37329465E+03 -.39948337E+02 0.44949043E+02 0.48236600E+03 0.29951924E+03 0.0000E+00 0.0000E+00
       23  2    1    2    0    0 0.39840696E+03 0.21282271E+02 0.42950769E+03 0.59372983E+03 0.94112755E+02 0.0000E+00 0.0000E+00
       24  1    3    3    0    0 -.23266278E+03 0.98659723E+02 0.38298842E+01 0.26523121E+03 0.80419002E+02 0.0000E+00 0.9000E+01
      -11  1    4    4    0    0 0.63072330E+02 -.15829645E+02 0.32400161E+02 0.72653059E+02 0.51099893E-03 0.0000E+00 0.9000E+01
       11  1    4    4    0    0 0.33533463E+03 0.37111916E+02 0.39710753E+03 0.52107677E+03 0.51099893E-03 0.0000E+00 0.9000E+01
      -24  1    3    3    0    0 -.14063188E+03 -.13860806E+03 0.41119159E+02 0.21713480E+03 0.80419002E+02 0.0000E+00 0.9000E+01
       21  1    1    2  502  501 -.25112304E+02 0.18666066E+02 0.53923018E+01 0.31759868E+02 0.75000000E+00 0.0000E+00 0.9000E+01
#aMCatNLO 2  0  0  1  2 0.31289772D+02 0.00000000D+00  -5  7  0 0.00000000D+00 0.00000000D+00 0.00000000D+00 0.00000000D+00 0.00000000D+00
  <mgrwgt>
 0.8354414119D-03    2    2    0
 0.482673281952228D+03 0.000000000000000D+00 0.000000000000000D+00 0.482673281952228D+03
 0.482673281952228D+03 0.000000000000000D+00 0.000000000000000D+00 -.482673281952228D+03
 0.301737612460708D+03 -.240404534806303D+03 0.104414199715292D+03 -.126022638289705D+03
 0.631170323205054D+02 0.614059779713566D+02 -.145910394812465D+02 0.408907306982904D+00
 0.377677731981284D+03 0.325410913297594D+03 0.444882471640649D+02 0.186464480815036D+03
 0.222814187141959D+03 -.146412356462648D+03 -.134311407398111D+03 -.608507498323141D+02
 0.000000000000000D+00 -.000000000000000D+00 0.000000000000000D+00 -.000000000000000D+00
 0.494493712341796D+03 0.000000000000000D+00 0.000000000000000D+00 0.494493712341796D+03
 0.504087268492384D+03 0.000000000000000D+00 0.000000000000000D+00 -.504087268492384D+03
 0.293623279119171D+03 -.232662776923857D+03 0.986597230834629D+02 -.126022638289705D+03
 0.650297142937598D+02 0.630723304304141D+02 -.158296452903716D+02 0.408907306982904D+00
 0.385481008645845D+03 0.335334625586001D+03 0.371119159313206D+02 0.186464480815036D+03
 0.221719526312498D+03 -.140631875364844D+03 -.138608059903024D+03 -.608507498323141D+02
 0.327274524629061D+02 -.251123037277143D+02 0.186660661786118D+02 -.959355615058837D+01
-.113893044824D-04 0.000000000000D+00 0.000000000000D+00 0.577684400902D-06 0.000000000000D+00  7 2 -2 24 -11 11 -24 21 2 0.11921067D+00 0.46255638D-01 0.19362550D+06 0.19362550D+06 0.19362550D+06 0.10989074D+01  1  2  8  1  7  1        2 -.274110182935D-03 0.100000000000D+01
0.520440069474D-04 0.000000000000D+00 0.000000000000D+00 0.577684400902D-06 0.378907527538D-08  7 2 -2 24 -11 11 -24 21 2 0.12213008D+00 0.48307788D-01 0.20798598D+06 0.20798598D+06 0.20798598D+06 0.10965218D+01  1  2  1  1  7  1        2 0.110955159488D-02 0.100000000000D+01
  </mgrwgt>
  </event>
  <event>
  9     66 0.26993063E-05 0.37926948E+03 0.75467711E-02 0.94297229E-01
        2 -1    0    0  501    0 0.00000000E+00 0.00000000E+00 0.15758599E+04 0.15758600E+04 0.32000000E+00 0.0000E+00 0.9000E+01
       21 -1    0    0  502  501 0.00000000E+00 0.00000000E+00 -.17333505E+03 0.17333667E+03 0.75000000E+00 0.0000E+00 0.9000E+01
       25  2    1    2    0    0 0.28446598E+03 -.36741261E+03 0.76404998E+03 0.94307515E+03 0.29950869E+03 0.0000E+00 0.0000E+00
       23  2    1    2    0    0 -.17887091E+03 0.15373590E+03 0.29582740E+03 0.38873021E+03 0.89262509E+02 0.0000E+00 0.0000E+00
       24  1    3    3    0    0 0.21666741E+03 -.38214078E+03 0.61365715E+03 0.75895893E+03 0.80419002E+02 0.0000E+00 0.9000E+01
      -13  1    4    4    0    0 -.13487982E+03 0.13400025E+03 0.17408288E+03 0.25778575E+03 0.10565837E+00 0.0000E+00 0.9000E+01
       13  1    4    4    0    0 -.43991088E+02 0.19735650E+02 0.12174452E+03 0.13094446E+03 0.10565837E+00 0.0000E+00 0.9000E+01
      -24  1    3    3    0    0 0.67798565E+02 0.14728172E+02 0.15039282E+03 0.18411622E+03 0.80419002E+02 0.0000E+00 0.9000E+01
        2  1    1    2  502    0 -.10559507E+03 0.21367671E+03 0.34264750E+03 0.41739127E+03 0.32000000E+00 0.0000E+00 0.9000E+01
#aMCatNLO 2  0  0  2  2 0.23834441D+03 0.00000000D+00  -5  7  0 0.00000000D+00 0.00000000D+00 0.00000000D+00 0.00000000D+00 0.00000000D+00
  <mgrwgt>
 0.1739979875D-03    1    2    0
 0.385213382495813D+03 0.000000000000000D+00 0.000000000000000D+00 0.385213382495813D+03
 0.385213382495813D+03 0.000000000000000D+00 0.000000000000000D+00 -.385213382495813D+03
 0.332089504718922D+03 0.164504302324169D+03 -.276586216271686D+03 0.159569005586394D+02
 0.261789343872704D+03 -.165597852005339D+03 0.196159570762359D+03 -.513072585005829D+02
 0.703770363901948D+02 -.524700870425966D+02 0.368934101513246D+02 0.289602055278493D+02
 0.106170880009806D+03 0.535636367237660D+02 0.435332353580027D+02 0.639015241409419D+01
 0.000000000000000D+00 -.000000000000000D+00 0.000000000000000D+00 0.000000000000000D+00
 0.531364963888685D+03 0.000000000000000D+00 0.000000000000000D+00 0.531364963888685D+03
 0.514059274619093D+03 0.000000000000000D+00 0.000000000000000D+00 -.514059274619093D+03
 0.446876027717916D+03 0.216667413183237D+03 -.382140782413522D+03 0.159569005586394D+02
 0.196929285536347D+03 -.134879945085723D+03 0.134000407240736D+03 -.513072585005829D+02
 0.562440012132662D+02 -.439909606287009D+02 0.197354896373690D+02 0.289602055278493D+02
 0.106403075712723D+03 0.677985654290409D+02 0.147281718025562D+02 0.639015241409419D+01
 0.238971848327526D+03 -.105595072897855D+03 0.213676713732861D+03 0.173056892695927D+02
0.685820908881D-06 0.000000000000D+00 0.000000000000D+00 0.520738217862D-06 0.354954139714D-11  7 2 21 24 -13 13 -24 2 2 0.24244007D+00 0.26667052D-01 0.26496226D+06 0.26496226D+06 0.26496226D+06 0.10885651D+01  1  2  1  4  7  2       -2 0.173997987501D-03 0.100000000000D+01
  </mgrwgt>
  </event>
  <event>
  8     66 0.26993063E-05 0.29243219E+03 0.75467711E-02 0.95401583E-01
        2 -1    0    0  501    0 0.00000000E+00 0.00000000E+00 0.28756546E+04 0.28756546E+04 0.32000000E+00 0.0000E+00 0.9000E+01
       -2 -1    0    0    0  501 0.00000000E+00 0.00000000E+00 -.89842321E+02 0.89842891E+02 0.32000000E+00 0.0000E+00 0.9000E+01
       25  2    1    2    0    0 -.37988628E+03 -.11954881E+03 0.21685296E+04 0.22251930E+04 0.30059573E+03 0.0000E+00 0.0000E+00
       23  2    1    2    0    0 0.37988628E+03 0.11954881E+03 0.61728273E+03 0.74030455E+03 0.91691648E+02 0.0000E+00 0.0000E+00
       24  1    3    3    0    0 -.27247851E+03 0.19567079E+02 0.96142730E+03 0.10027149E+04 0.80419002E+02 0.0000E+00 0.9000E+01
      -11  1    4    4    0    0 0.98381818E+01 0.21464385E+01 0.61725768E+02 0.62541725E+02 0.51099893E-03 0.0000E+00 0.9000E+01
       11  1    4    4    0    0 0.37004809E+03 0.11740237E+03 0.55555696E+03 0.67776283E+03 0.51099893E-03 0.0000E+00 0.9000E+01
      -24  1    3    3    0    0 -.10740777E+03 -.13911589E+03 0.12071023E+04 0.12224781E+04 0.80419002E+02 0.0000E+00 0.9000E+01
#aMCatNLO 1  0  0  1  2 0.57578178D+02 0.00000000D+00  -5  7  0 0.00000000D+00 0.00000000D+00 0.00000000D+00 0.00000000D+00 0.00000000D+00
  <mgrwgt>
 0.1538866454D-02    9    2    0
 0.508287670560418D+03 0.000000000000000D+00 0.000000000000000D+00 0.508287670560418D+03
 0.508287670560418D+03 0.000000000000000D+00 0.000000000000000D+00 -.508287670560418D+03
 0.290379285976534D+03 -.272478507377001D+03 0.195670793458832D+02 0.567935400670216D+02
 0.132906325003282D+02 0.983818179358359D+01 0.214643846472162D+01 0.867432378761264D+01
 0.454689925166528D+03 0.370048094567912D+03 0.117402373406279D+03 -.236693934170634D+03
 0.258215497477446D+03 -.107407768984495D+03 -.139115891216884D+03 0.171226070316000D+03
 0.000000000000000D+00 -.000000000000000D+00 -.000000000000000D+00 0.000000000000000D+00
 0.577322386715905D+03 0.000000000000000D+00 0.000000000000000D+00 0.577322386715905D+03
 0.521251403307574D+03 0.000000000000000D+00 0.000000000000000D+00 -.521251403307574D+03
 0.289830137435757D+03 -.270231278729947D+03 0.358307467727455D+02 0.567935400670216D+02
 0.135086326859356D+02 0.994197892961144D+01 0.289764021823739D+01 0.867432378761264D+01
 0.464874468475223D+03 0.373609690372491D+03 0.143178393016265D+03 -.236693934170634D+03
 0.249991392460822D+03 -.105439415773368D+03 -.124870504105819D+03 0.171226070316000D+03
 0.803691589657400D+02 -.788097479878737D+01 -.570362759014290D+02 0.560709834083310D+02
0.769147853129D-04 0.000000000000D+00 0.000000000000D+00 0.284519971118D-05 0.000000000000D+00  7 2 -2 24 -11 11 -24 21 0 0.44240845D+00 0.13821941D-01 0.19199531D+06 0.19199531D+06 0.19199531D+06 0.10991904D+01  1  2  2  1  7  1        2 0.776462201279D-03 0.100000000000D+01
-.415857452671D-05 0.000000000000D+00 -.295373027730D-06 0.284519971118D-05 0.000000000000D+00  7 2 -2 24 -11 11 -24 21 2 0.44240845D+00 0.13821941D-01 0.19199531D+06 0.19199531D+06 0.19199531D+06 0.10991904D+01  1  2  3  1  7  1        2 -.507225224096D-04 0.100000000000D+01
0.494186310890D-05 0.000000000000D+00 0.000000000000D+00 0.284519971118D-05 0.000000000000D+00  7 2 -2 24 -11 11 -24 21 2 0.44240845D+00 0.13821941D-01 0.19199531D+06 0.19199531D+06 0.19199531D+06 0.10991904D+01  1  2 15  1  7  1        2 0.602763664993D-04 0.100000000000D+01
0.161163255478D-03 0.000000000000D+00 0.000000000000D+00 0.284519971118D-05 0.000000000000D+00  7 2 -2 24 -11 11 -24 21 2 0.50762660D+00 0.13821941D-01 0.21827433D+06 0.21827433D+06 0.21827433D+06 0.10949208D+01  1  2 12  1  7  1        2 0.103560377952D-02 0.100000000000D+01
-.163590154562D-03 0.000000000000D+00 0.000000000000D+00 0.284519971118D-05 0.000000000000D+00  7 2 -2 24 -11 11 -24 21 2 0.44240845D+00 0.13821941D-01 0.19199531D+06 0.19199531D+06 0.19199531D+06 0.10991904D+01  1  2  4  1  7  1        2 -.199532441405D-02 0.100000000000D+01
-.299257521215D-03 0.000000000000D+00 -.494049484222D-04 0.284519971118D-05 0.000000000000D+00  7 2 -2 24 -11 11 -24 21 2 0.50574970D+00 0.13821941D-01 0.19199531D+06 0.19199531D+06 0.19199531D+06 0.10991904D+01  1  2  5  1  7  1        2 -.198942797923D-02 0.100000000000D+01
0.303585472472D-03 0.000000000000D+00 0.489659345485D-04 0.284519971118D-05 0.000000000000D+00  7 2 -2 24 -11 11 -24 21 2 0.44240845D+00 0.13821941D-01 0.19199531D+06 0.19199531D+06 0.19199531D+06 0.10991904D+01  1  2  6  1  7  1        2 0.370286039887D-02 0.100000000000D+01
0.342463232060D-05 0.000000000000D+00 0.000000000000D+00 0.284519971118D-05 0.000000000000D+00  7 21 -2 24 -11 11 -24 -2 2 0.50762660D+00 0.13821941D-01 0.21827433D+06 0.21827433D+06 0.21827433D+06 0.10949208D+01  1  2 12  3  7  1        2 0.103063358278D-05 0.100000000000D+01
-.593867512584D-05 0.000000000000D+00 -.102647067167D-05 0.284519971118D-05 0.000000000000D+00  7 21 -2 24 -11 11 -24 -2 2 0.50574970D+00 0.13821941D-01 0.19199531D+06 0.19199531D+06 0.19199531D+06 0.10991904D+01  1  2  5  3  7  1        2 -.189200964434D-05 0.100000000000D+01
  </mgrwgt>
  </event>
  <event>
  8     66 0.26993063E-05 0.66406819E+02 0.75467711E-02 0.11143696E+00
        4 -1    0    0  501    0 0.00000000E+00 0.00000000E+00 0.21688541E+03 0.21689095E+03 0.15500000E+01 0.0000E+00 0.9000E+01
       -4 -1    0    0    0  501 0.00000000E+00 0.00000000E+00 -.28895060E+03 0.28895475E+03 0.15500000E+01 0.0000E+00 0.9000E+01
       25  2    1    2    0    0 0.46015679E+02 0.15855155E+02 -.18199721E+03 0.35374430E+03 0.29940477E+03 0.0000E+00 0.0000E+00
       23  2    1    2    0    0 -.46015679E+02 -.15855155E+02 0.10993203E+03 0.15210140E+03 0.93171660E+02 0.0000E+00 0.0000E+00
       24  1    3    3    0    0 0.57780300E+02 -.32099515E+02 0.40783612E+02 0.11180099E+03 0.80419002E+02 0.0000E+00 0.9000E+01
      -13  1    4    4    0    0 -.22101306E+02 0.18935004E+02 0.10574562E+03 0.10967748E+03 0.10565837E+00 0.0000E+00 0.9000E+01
       13  1    4    4    0    0 -.23914373E+02 -.34790160E+02 0.41864080E+01 0.42423927E+02 0.10565837E+00 0.0000E+00 0.9000E+01
      -24  1    3    3    0    0 -.11764622E+02 0.47954671E+02 -.22278082E+03 0.24194331E+03 0.80419002E+02 0.0000E+00 0.9000E+01
#aMCatNLO 1  0  0  1  2 0.17554429D+02 0.00000000D+00  -5  7  0 0.00000000D+00 0.00000000D+00 0.00000000D+00 0.00000000D+00 0.00000000D+00
  <mgrwgt>
 0.1009482523D-03    6    2    0
 0.250343007949169D+03 0.000000000000000D+00 0.000000000000000D+00 0.250343007949169D+03
 0.250343007949169D+03 0.000000000000000D+00 0.000000000000000D+00 -.250343007949169D+03
 0.118823225238485D+03 0.577803006625617D+02 -.320995147182375D+02 0.572957320566093D+02
 0.126028108785341D+03 -.221013061660794D+02 0.189350694847556D+02 0.122621693078225D+03
 0.434635697312013D+02 -.239143745573917D+02 -.347902255255073D+02 0.103356079256188D+02
 0.212371112143311D+03 -.117646199390906D+02 0.479546707589892D+02 -.190253033060453D+03
 0.000000000000000D+00 -.000000000000000D+00 -.000000000000000D+00 -.000000000000000D+00
 0.257742674002836D+03 0.000000000000000D+00 0.000000000000000D+00 0.257742674002836D+03
 0.261129057895141D+03 0.000000000000000D+00 0.000000000000000D+00 -.261129057895141D+03
 0.120915082657252D+03 0.619816329029052D+02 -.320736267114623D+02 0.572957320566093D+02
 0.125334762347273D+03 -.176962574119435D+02 0.189622127634750D+02 0.122621693078225D+03
 0.426443194936363D+02 -.224053631093525D+02 -.347809272133634D+02 0.103356079256188D+02
 0.212099492625288D+03 -.432591707785244D+01 0.480005069792770D+02 -.190253033060453D+03
 0.178780747745279D+02 -.175540953037568D+02 -.108165817926439D+00 -.338638389230562D+01
0.423399253642D-05 0.000000000000D+00 0.000000000000D+00 0.131854945140D-06 0.000000000000D+00  7 4 -4 24 -13 13 -24 21 0 0.33367732D-01 0.44454684D-01 0.18195953D+05 0.18195953D+05 0.18195953D+05 0.11880358D+01  1  2  2  1  7  1        4 0.426976301266D-04 0.100000000000D+01
-.125867848228D-06 0.000000000000D+00 -.162596461757D-07 0.131854945140D-06 0.000000000000D+00  7 4 -4 24 -13 13 -24 21 2 0.33367732D-01 0.44454684D-01 0.18195953D+05 0.18195953D+05 0.18195953D+05 0.11880358D+01  1  2  3  1  7  1        4 -.179154428713D-05 0.100000000000D+01
0.261401116039D-06 0.000000000000D+00 0.000000000000D+00 0.131854945140D-06 0.000000000000D+00  7 4 -4 24 -13 13 -24 21 2 0.33367732D-01 0.44454684D-01 0.18195953D+05 0.18195953D+05 0.18195953D+05 0.11880358D+01  1  2 15  1  7  1        4 0.372066165173D-05 0.100000000000D+01
0.848123297862D-05 0.000000000000D+00 0.000000000000D+00 0.131854945140D-06 0.000000000000D+00  7 4 -4 24 -13 13 -24 21 2 0.35047567D-01 0.44454684D-01 0.20320147D+05 0.20320147D+05 0.20320147D+05 0.11833673D+01  1  2 12  1  7  1        4 0.109162572128D-03 0.100000000000D+01
-.549096470314D-05 0.000000000000D+00 0.000000000000D+00 0.131854945140D-06 0.000000000000D+00  7 4 -4 24 -13 13 -24 21 2 0.33367732D-01 0.44454684D-01 0.18195953D+05 0.18195953D+05 0.18195953D+05 0.11880358D+01  1  2  4  1  7  1        4 -.781558323528D-04 0.100000000000D+01
0.875658392055D-07 0.000000000000D+00 0.000000000000D+00 0.131854945140D-06 0.000000000000D+00  7 21 -4 24 -13 13 -24 -4 2 0.35047567D-01 0.44454684D-01 0.20320147D+05 0.20320147D+05 0.20320147D+05 0.11833673D+01  1  2 12  3  7  1        4 0.253147650388D-04 0.100000000000D+01
  </mgrwgt>
  </event>
  <event>
  8     66 0.26993063E-05 0.26044668E+03 0.75467711E-02 0.10161181E+00
        2 -1    0    0  501    0 0.00000000E+00 0.00000000E+00 0.49946368E+03 0.49946378E+03 0.32000000E+00 0.0000E+00 0.9000E+01
       -2 -1    0    0    0  501 0.00000000E+00 0.00000000E+00 -.18360932E+03 0.18360960E+03 0.32000000E+00 0.0000E+00 0.9000E+01
       25  2    1    2    0    0 0.98472126E+02 -.15104238E+03 0.32521773E+03 0.48095778E+03 0.30502992E+03 0.0000E+00 0.0000E+00
       23  2    1    2    0    0 -.98472126E+02 0.15104238E+03 -.93633759E+01 0.20211560E+03 0.90843175E+02 0.0000E+00 0.0000E+00
       24  1    3    3    0    0 0.15834649E+03 -.72053935E+02 0.86528977E+02 0.21028519E+03 0.80419002E+02 0.0000E+00 0.9000E+01
      -11  1    4    4    0    0 -.93169574E+02 0.16343081E+03 -.11489548E+02 0.18847336E+03 0.51099893E-03 0.0000E+00 0.9000E+01
       11  1    4    4    0    0 -.53025521E+01 -.12388424E+02 0.21261724E+01 0.13642240E+02 0.51099893E-03 0.0000E+00 0.9000E+01
      -24  1    3    3    0    0 -.59874364E+02 -.78988447E+02 0.23868875E+03 0.27067259E+03 0.80419002E+02 0.0000E+00 0.9000E+01
#aMCatNLO 1  0  0  1  2 0.41460685D+02 0.00000000D+00  -5  7  0 0.00000000D+00 0.00000000D+00 0.00000000D+00 0.00000000D+00 0.00000000D+00
  <mgrwgt>
 0.7925674608D-03    4    2    0
 0.302830508855920D+03 0.000000000000000D+00 0.000000000000000D+00 0.302830508855920D+03
 0.302830508855920D+03 0.000000000000000D+00 0.000000000000000D+00 -.302830508855920D+03
 0.192037553271746D+03 0.158346490355998D+03 -.720539348795770D+02 -.120758176756515D+02
 0.218554859997609D+03 -.931695740129552D+02 0.163430805587139D+03 -.111247602634654D+03
 0.142771123217305D+02 -.530255213893273D+01 -.123884241140523D+02 -.471654799949891D+01
 0.180791492120753D+03 -.598743642041104D+02 -.789884465935094D+02 0.128039968309805D+03
 0.000000000000000D+00 -.000000000000000D+00 0.000000000000000D+00 -.000000000000000D+00
 0.312063676084950D+03 0.000000000000000D+00 0.000000000000000D+00 0.312063676084950D+03
 0.353952722036687D+03 0.000000000000000D+00 0.000000000000000D+00 -.353952722036687D+03
 0.199029483916777D+03 0.160404837756397D+03 -.852641904061525D+02 -.120758176756515D+02
 0.207030106719765D+03 -.909295444870990D+02 0.149054533429239D+03 -.111247602634654D+03
 0.150925830251885D+02 -.514796729715614D+01 -.133805332497641D+02 -.471654799949891D+01
 0.185926286457675D+03 -.579441770125652D+02 -.913761834786915D+02 0.128039968309805D+03
 0.589379380022314D+02 -.638314895957664D+01 0.409663737053689D+02 -.418890459517377D+02
0.135737156237D-04 0.000000000000D+00 0.000000000000D+00 0.234566720597D-07 0.000000000000D+00  7 2 -2 24 -11 11 -24 21 0 0.76840595D-01 0.28247617D-01 0.67832472D+05 0.67832472D+05 0.67832472D+05 0.11358227D+01  1  2  2  1  7  1        2 0.112827002748D-02 0.100000000000D+01
-.733251981784D-06 0.000000000000D+00 -.521266420364D-07 0.234566720597D-07 0.000000000000D+00  7 2 -2 24 -11 11 -24 21 2 0.76840595D-01 0.28247617D-01 0.67832472D+05 0.67832472D+05 0.67832472D+05 0.11358227D+01  1  2  3  1  7  1        2 -.786300688184D-04 0.100000000000D+01
0.870065139761D-06 0.000000000000D+00 0.000000000000D+00 0.234566720597D-07 0.000000000000D+00  7 2 -2 24 -11 11 -24 21 2 0.76840595D-01 0.28247617D-01 0.67832472D+05 0.67832472D+05 0.67832472D+05 0.11358227D+01  1  2 15  1  7  1        2 0.933011891075D-04 0.100000000000D+01
-.326735311552D-05 0.000000000000D+00 0.000000000000D+00 0.234566720597D-07 0.000000000000D+00  7 2 -2 24 -11 11 -24 21 2 0.76840595D-01 0.28247617D-01 0.67832472D+05 0.67832472D+05 0.67832472D+05 0.11358227D+01  1  2  4  1  7  1        2 -.350373686958D-03 0.100000000000D+01
  </mgrwgt>
  </event>
  <event>
  8     66 0.26993063E-05 0.23713190E+03 0.75467711E-02 0.10138899E+00
        2 -1    0    0  501    0 0.00000000E+00 0.00000000E+00 0.13315414E+04 0.13315414E+04 0.32000000E+00 0.0000E+00 0.9000E+01
       -2 -1    0    0    0  501 0.00000000E+00 0.00000000E+00 -.12933422E+03 0.12933462E+03 0.32000000E+00 0.0000E+00 0.9000E+01
       25  2    1    2    0    0 0.10634503E+03 -.99883957E+02 0.10433084E+03 0.34970532E+03 0.30020463E+03 0.0000E+00 0.0000E+00
       23  2    1    2    0    0 -.10634503E+03 0.99883957E+02 0.10978763E+04 0.11111707E+04 0.89899270E+02 0.0000E+00 0.0000E+00
       24  1    3    3    0    0 0.10381341E+03 0.48040940E+02 -.18815240E+02 0.14108999E+03 0.80419002E+02 0.0000E+00 0.9000E+01
      -11  1    4    4    0    0 -.97789463E+02 0.40168193E+02 0.55727622E+03 0.56721517E+03 0.51099893E-03 0.0000E+00 0.9000E+01
       11  1    4    4    0    0 -.85555660E+01 0.59715764E+02 0.54060009E+03 0.54395554E+03 0.51099893E-03 0.0000E+00 0.9000E+01
      -24  1    3    3    0    0 0.25316211E+01 -.14792490E+03 0.12314608E+03 0.20861533E+03 0.80419002E+02 0.0000E+00 0.9000E+01
#aMCatNLO 1  0  0  1  2 0.79427724D+02 0.00000000D+00  -5  7  0 0.00000000D+00 0.00000000D+00 0.00000000D+00 0.00000000D+00 0.00000000D+00
  <mgrwgt>
 0.9703314035D-03    3    2    0
 0.414986970011075D+03 0.000000000000000D+00 0.000000000000000D+00 0.414986970011075D+03
 0.414986970011075D+03 0.000000000000000D+00 0.000000000000000D+00 -.414986970011075D+03
 0.275592747577340D+03 0.103813407766988D+03 0.480409395892994D+02 -.237484717516810D+03
 0.191174180886044D+03 -.977894628807402D+02 0.401681932177490D+02 0.159283723715161D+03
 0.174388985096690D+03 -.855556595911605D+01 0.597157638314737D+02 0.163622577794742D+03
 0.188818026462077D+03 0.253162107286803D+01 -.147924896638522D+03 -.854215839930922D+02
 0.000000000000000D+00 0.000000000000000D+00 -.000000000000000D+00 -.000000000000000D+00
 0.418712006716780D+03 0.000000000000000D+00 0.000000000000000D+00 0.418712006716780D+03
 0.127917022165321D+04 0.000000000000000D+00 0.000000000000000D+00 -.127917022165321D+04
 0.277383342444018D+03 0.939026554350249D+02 0.725093301531357D+02 -.237484717516810D+03
 0.199123775072392D+03 -.104784605070389D+03 0.574383121161795D+02 0.159283723715161D+03
 0.180789839342772D+03 -.149212830779908D+02 0.754319120577982D+02 0.163622577794742D+03
 0.176468900268918D+03 -.401525921050021D+01 -.131761479535312D+03 -.854215839930922D+02
 0.864116371241893D+03 0.298184919238552D+02 -.736180747918013D+02 -.860458214936433D+03
0.223403949663D-04 0.000000000000D+00 0.000000000000D+00 0.146535088314D-05 0.000000000000D+00  7 2 -2 24 -11 11 -24 21 0 0.20485255D+00 0.19897606D-01 0.56231536D+05 0.56231536D+05 0.56231536D+05 0.11428354D+01  1  2  2  1  7  1        2 0.936346223300D-03 0.100000000000D+01
-.768523205210D-06 0.000000000000D+00 -.857929990317D-07 0.146535088314D-05 0.000000000000D+00  7 2 -2 24 -11 11 -24 21 2 0.20485255D+00 0.19897606D-01 0.56231536D+05 0.56231536D+05 0.56231536D+05 0.11428354D+01  1  2  3  1  7  1        2 -.420697557350D-04 0.100000000000D+01
0.138935874684D-05 0.000000000000D+00 0.000000000000D+00 0.146535088314D-05 0.000000000000D+00  7 2 -2 24 -11 11 -24 21 2 0.20485255D+00 0.19897606D-01 0.56231536D+05 0.56231536D+05 0.56231536D+05 0.11428354D+01  1  2 15  1  7  1        2 0.760549358971D-04 0.100000000000D+01
  </mgrwgt>
  </event>
  <event>
  8     66 0.26993063E-05 0.76713151E+03 0.75467711E-02 0.85307683E-01
        2 -1    0    0  501    0 0.00000000E+00 0.00000000E+00 0.27482248E+04 0.27482248E+04 0.32000000E+00 0.0000E+00 0.9000E+01
       -2 -1    0    0    0  501 0.00000000E+00 0.00000000E+00 -.29708498E+03 0.29708515E+03 0.32000000E+00 0.0000E+00 0.9000E+01
       25  2    1    2    0    0 0.53748414E+03 0.51126495E+03 0.46369129E+03 0.92199890E+03 0.29118947E+03 0.0000E+00 0.0000E+00
       23  2    1    2    0    0 -.53748414E+03 -.51126495E+03 0.19874485E+04 0.21233110E+04 0.90648711E+02 0.0000E+00 0.0000E+00
       24  1    3    3    0    0 0.77713136E+02 0.21347096E+02 0.11069161E+03 0.15879194E+03 0.80419002E+02 0.0000E+00 0.9000E+01
      -13  1    4    4    0    0 -.26448957E+03 -.21470686E+03 0.80767882E+03 0.87658362E+03 0.10565837E+00 0.0000E+00 0.9000E+01
       13  1    4    4    0    0 -.27299457E+03 -.29655808E+03 0.11797697E+04 0.12467274E+04 0.10565837E+00 0.0000E+00 0.9000E+01
      -24  1    3    3    0    0 0.45977100E+03 0.48991785E+03 0.35299968E+03 0.76320696E+03 0.80419002E+02 0.0000E+00 0.9000E+01
#aMCatNLO 1  0  0  1  1 0.77985553D+03 0.00000000D+00  -5  7  0 0.00000000D+00 0.00000000D+00 0.00000000D+00 0.00000000D+00 0.00000000D+00
  <mgrwgt>
 0.1416629053D-02    5    2    0
 0.903579872575365D+03 0.000000000000000D+00 0.000000000000000D+00 0.903579872575365D+03
 0.903579872575365D+03 0.000000000000000D+00 0.000000000000000D+00 -.903579872575365D+03
 0.117449520971342D+03 0.777131363367868D+02 0.213470963942858D+02 -.288469051764698D+02
 0.381667890735124D+03 -.264489557924109D+03 -.214706752979681D+03 0.172094923784029D+03
 0.500725664907208D+03 -.272994582386758D+03 -.296558194623004D+03 0.297074715662895D+03
 0.807316668537054D+03 0.459771003974081D+03 0.489917851208399D+03 -.440322734270454D+03
 0.000000000000000D+00 0.000000000000000D+00 -.000000000000000D+00 0.000000000000000D+00
 0.192985465056057D+04 0.000000000000000D+00 0.000000000000000D+00 0.192985465056057D+04
 0.114489257953837D+04 0.000000000000000D+00 0.000000000000000D+00 -.114489257953837D+04
 0.126774855748812D+03 0.627577216607043D+02 0.695267756296731D+02 -.288469051764698D+02
 0.361037160153288D+03 -.309970120377482D+03 -.681886551597069D+02 0.172094923784029D+03
 0.458061630434698D+03 -.331707237448330D+03 -.107412193044835D+03 0.297074715662895D+03
 0.102237455664824D+04 0.347727352274274D+03 0.850872549969865D+03 -.440322734270454D+03
 0.110649902711391D+04 0.231192283890834D+03 -.744798477394997D+03 0.784962071022204D+03
0.997271512774D-03 0.000000000000D+00 0.000000000000D+00 0.516447910645D-07 0.000000000000D+00  7 2 -2 24 -13 13 -24 21 0 0.42280382D+00 0.45705396D-01 0.58849075D+06 0.58849075D+06 0.58849075D+06 0.10635444D+01  1  2  2  1  7  1        2 0.140122530895D-02 0.100000000000D+01
-.535986577946D-04 0.000000000000D+00 -.382978519667D-05 0.516447910645D-07 0.000000000000D+00  7 2 -2 24 -13 13 -24 21 2 0.42280382D+00 0.45705396D-01 0.58849075D+06 0.58849075D+06 0.58849075D+06 0.10635444D+01  1  2  3  1  7  1        2 -.851843381980D-04 0.100000000000D+01
0.633473359944D-04 0.000000000000D+00 0.000000000000D+00 0.516447910645D-07 0.000000000000D+00  7 2 -2 24 -13 13 -24 21 2 0.42280382D+00 0.45705396D-01 0.58849075D+06 0.58849075D+06 0.58849075D+06 0.10635444D+01  1  2 15  1  7  1        2 0.100677910890D-03 0.100000000000D+01
-.294917952866D-03 0.000000000000D+00 -.201095395161D-03 0.516447910645D-07 0.000000000000D+00  7 2 -2 24 -13 13 -24 21 2 0.91143531D+00 0.45705396D-01 0.58849075D+06 0.58849075D+06 0.58849075D+06 0.10635444D+01  1  2  5  1  7  1        2 -.898200635675D-07 0.100000000000D+01
-.119299958667D-04 0.000000000000D+00 -.167214382364D-04 0.516447910645D-07 0.000000000000D+00  7 21 -2 24 -13 13 -24 -2 2 0.91143531D+00 0.45705396D-01 0.58849075D+06 0.58849075D+06 0.58849075D+06 0.10635444D+01  1  2  5  3  7  1        2 -.846831779840D-11 0.100000000000D+01
  </mgrwgt>
  </event>
  <event>
  8     66 0.26993063E-05 0.17063456E+03 0.75467711E-02 0.10122294E+00
        2 -1    0    0  501    0 0.00000000E+00 0.00000000E+00 0.20194260E+04 0.20194260E+04 0.32000000E+00 0.0000E+00 0.9000E+01
       -2 -1    0    0    0  501 0.00000000E+00 0.00000000E+00 -.74091040E+02 0.74091731E+02 0.32000000E+00 0.0000E+00 0.9000E+01
       25  2    1    2    0    0 -.12092196E+03 -.11047955E+02 0.19154817E+04 0.19426894E+04 0.30037920E+03 0.0000E+00 0.0000E+00
       23  2    1    2    0    0 0.12092196E+03 0.11047955E+02 0.29853206E+02 0.15082833E+03 0.84343317E+02 0.0000E+00 0.0000E+00
       24  1    3    3    0    0 0.58880067E+02 0.15181292E+02 0.33723209E+03 0.35198016E+03 0.80419002E+02 0.0000E+00 0.9000E+01
      -13  1    4    4    0    0 0.43584171E+02 -.27958212E+02 0.37411173E+02 0.63881520E+02 0.10565837E+00 0.0000E+00 0.9000E+01
       13  1    4    4    0    0 0.77337788E+02 0.39006167E+02 -.75579669E+01 0.86946814E+02 0.10565837E+00 0.0000E+00 0.9000E+01
      -24  1    3    3    0    0 -.17980203E+03 -.26229248E+02 0.15782496E+04 0.15907092E+04 0.80419002E+02 0.0000E+00 0.9000E+01
#aMCatNLO 1  0  0  1  2 0.12619716D+03 0.00000000D+00  -5  7  0 0.00000000D+00 0.00000000D+00 0.00000000D+00 0.00000000D+00 0.00000000D+00
  <mgrwgt>
 0.1148422657D-02    9    2    0
 0.386810187221466D+03 0.000000000000000D+00 0.000000000000000D+00 0.386810187221466D+03
 0.386810187221466D+03 0.000000000000000D+00 0.000000000000000D+00 -.386810187221466D+03
 0.104505182248626D+03 0.588800665145983D+02 0.151812924020324D+02 0.275096944855523D+02
 0.787978469750011D+02 0.435841174262742D+02 -.279583170057250D+02 -.593957734714838D+02
 0.254294864230946D+03 0.773378409961704D+02 0.390062721315585D+02 -.239088366631848D+03
 0.336022480988360D+03 -.179802024937043D+03 -.262292475278658D+02 0.270974445617780D+03
 0.000000000000000D+00 -.000000000000000D+00 -.000000000000000D+00 0.000000000000000D+00
 0.462144213429861D+03 0.000000000000000D+00 0.000000000000000D+00 0.462144213429861D+03
 0.448621210225857D+03 0.000000000000000D+00 0.000000000000000D+00 -.448621210225857D+03
 0.115648690219820D+03 0.766692847409386D+02 0.165057893423434D+02 0.275096944855523D+02
 0.865907882636196D+02 0.569481091263889D+02 -.269633004798759D+02 -.593957734714838D+02
 0.270709421910465D+03 0.119760060106907D+03 0.421648201182361D+02 -.239088366631848D+03
 0.310896880297521D+03 -.127528632860287D+03 -.223372300718751D+02 0.270974445617780D+03
 0.126919642964293D+03 -.125848821113948D+03 -.937007890882849D+01 0.135230032040043D+02
0.202590742541D-04 0.000000000000D+00 0.000000000000D+00 0.669814190924D-07 0.000000000000D+00  7 2 -2 24 -13 13 -24 21 0 0.31068097D+00 0.11398677D-01 0.47944258D+05 0.47944258D+05 0.47944258D+05 0.11489027D+01  1  2  2  1  7  1        2 0.890730418416D-03 0.100000000000D+01
-.682396204087D-06 0.000000000000D+00 -.778001794727D-07 0.669814190924D-07 0.000000000000D+00  7 2 -2 24 -13 13 -24 21 2 0.31068097D+00 0.11398677D-01 0.47944258D+05 0.47944258D+05 0.47944258D+05 0.11489027D+01  1  2  3  1  7  1        2 -.396031519897D-04 0.100000000000D+01
0.124685149827D-05 0.000000000000D+00 0.000000000000D+00 0.669814190924D-07 0.000000000000D+00  7 2 -2 24 -13 13 -24 21 2 0.31068097D+00 0.11398677D-01 0.47944258D+05 0.47944258D+05 0.47944258D+05 0.11489027D+01  1  2 15  1  7  1        2 0.723615534480D-04 0.100000000000D+01
0.545111717398D-05 0.000000000000D+00 0.000000000000D+00 0.669814190924D-07 0.000000000000D+00  7 2 -2 24 -13 13 -24 21 2 0.39178399D+00 0.11398677D-01 0.84365268D+05 0.84365268D+05 0.84365268D+05 0.11278320D+01  1  2 12  1  7  1        2 0.153818559041D-03 0.100000000000D+01
-.106031042188D-04 0.000000000000D+00 0.000000000000D+00 0.669814190924D-07 0.000000000000D+00  7 2 -2 24 -13 13 -24 21 2 0.31068097D+00 0.11398677D-01 0.47944258D+05 0.47944258D+05 0.47944258D+05 0.11489027D+01  1  2  4  1  7  1        2 -.615355632729D-03 0.100000000000D+01
-.196343850362D-04 0.000000000000D+00 -.951963069598D-05 0.669814190924D-07 0.000000000000D+00  7 2 -2 24 -13 13 -24 21 2 0.39628186D+00 0.11398677D-01 0.47944258D+05 0.47944258D+05 0.47944258D+05 0.11489027D+01  1  2  5  1  7  1        2 -.565019284660D-03 0.100000000000D+01
0.215838766238D-04 0.000000000000D+00 0.924452949608D-05 0.669814190924D-07 0.000000000000D+00  7 2 -2 24 -13 13 -24 21 2 0.31068097D+00 0.11398677D-01 0.47944258D+05 0.47944258D+05 0.47944258D+05 0.11489027D+01  1  2  6  1  7  1        2 0.125262939820D-02 0.100000000000D+01
0.174500688594D-06 0.000000000000D+00 0.000000000000D+00 0.669814190924D-07 0.000000000000D+00  7 21 -2 24 -13 13 -24 -2 2 0.39178399D+00 0.11398677D-01 0.84365268D+05 0.84365268D+05 0.84365268D+05 0.11278320D+01  1  2 12  3  7  1        2 0.589877113886D-06 0.100000000000D+01
-.498766429191D-06 0.000000000000D+00 -.315826488082D-06 0.669814190924D-07 0.000000000000D+00  7 21 -2 24 -13 13 -24 -2 2 0.39628186D+00 0.11398677D-01 0.47944258D+05 0.47944258D+05 0.47944258D+05 0.11489027D+01  1  2  5  3  7  1        2 -.172907990305D-05 0.100000000000D+01
  </mgrwgt>
  </event>
  <event>
  8     66 0.26993063E-05 0.12835213E+03 0.75467711E-02 0.10086605E+00
        2 -1    0    0  501    0 0.00000000E+00 0.00000000E+00 0.83010419E+03 0.83010425E+03 0.32000000E+00 0.0000E+00 0.9000E+01
       -2 -1    0    0    0  501 0.00000000E+00 0.00000000E+00 -.15325987E+03 0.15326021E+03 0.32000000E+00 0.0000E+00 0.9000E+01
       25  2    1    2    0    0 0.66536649E+02 -.12222708E+03 0.51401579E+02 0.33589745E+03 0.30136089E+03 0.0000E+00 0.0000E+00
       23  2    1    2    0    0 -.66536649E+02 0.12222708E+03 0.62544274E+03 0.64746701E+03 0.93103847E+02 0.0000E+00 0.0000E+00
       24  1    3    3    0    0 -.15997414E+02 0.70004824E+02 0.16142048E+02 0.10901548E+03 0.80419002E+02 0.0000E+00 0.9000E+01
      -13  1    4    4    0    0 -.33064011E+02 -.29360114E+01 0.19992381E+03 0.20266078E+03 0.10565837E+00 0.0000E+00 0.9000E+01
       13  1    4    4    0    0 -.33472638E+02 0.12516310E+03 0.42551893E+03 0.44480623E+03 0.10565837E+00 0.0000E+00 0.9000E+01
      -24  1    3    3    0    0 0.82534063E+02 -.19223191E+03 0.35259531E+02 0.22688197E+03 0.80419002E+02 0.0000E+00 0.9000E+01
#aMCatNLO 1  0  0  2  1 0.87803892D+02 0.00000000D+00  -5  7  0 0.00000000D+00 0.00000000D+00 0.00000000D+00 0.00000000D+00 0.00000000D+00
  <mgrwgt>
 0.1052420393D-02    9    2    0
 0.356681731103131D+03 0.000000000000000D+00 0.000000000000000D+00 0.356681731103131D+03
 0.356681731103131D+03 0.000000000000000D+00 0.000000000000000D+00 -.356681731103131D+03
 0.134961064306374D+03 -.159974141511601D+02 0.700048234077870D+02 -.811830053918899D+02
 0.896765858704709D+02 -.330640094735638D+02 -.293617407147663D+01 0.833069037519582D+02
 0.209425758308948D+03 -.334726396538950D+02 0.125163258708293D+03 0.164538412862770D+03
 0.279300053720469D+03 0.825340632786189D+02 -.192231908044604D+03 -.166662311222838D+03
 0.000000000000000D+00 0.000000000000000D+00 -.000000000000000D+00 -.000000000000000D+00
 0.385354686514785D+03 0.000000000000000D+00 0.000000000000000D+00 0.385354686514785D+03
 0.433556812737203D+03 0.000000000000000D+00 0.000000000000000D+00 -.433556812737203D+03
 0.142564282175728D+03 -.298865258153037D+02 0.798340391571265D+02 -.811830053918899D+02
 0.934665027600842D+02 -.422296400754157D+02 0.355027105495516D+01 0.833069037519582D+02
 0.223268532012508D+03 -.551273799898362D+02 0.140488149162402D+03 0.164538412862770D+03
 0.259447476155052D+03 0.555717526425877D+02 -.173150891579999D+03 -.166662311222838D+03
 0.100164706148616D+03 0.716717932379680D+02 -.507215677944855D+02 -.482021262224184D+02
0.140645759378D-04 0.000000000000D+00 0.000000000000D+00 0.116417492245D-06 0.000000000000D+00  7 2 -2 24 -13 13 -24 21 0 0.12770837D+00 0.23578472D-01 0.61180807D+05 0.61180807D+05 0.61180807D+05 0.11396650D+01  1  2  2  2  7  2       -2 0.877739214944D-03 0.100000000000D+01
-.654069197891D-06 0.000000000000D+00 -.540116748891D-07 0.116417492245D-06 0.000000000000D+00  7 2 -2 24 -13 13 -24 21 2 0.12770837D+00 0.23578472D-01 0.61180807D+05 0.61180807D+05 0.61180807D+05 0.11396650D+01  1  2  3  2  7  2       -2 -.530172266843D-04 0.100000000000D+01
0.862878757422D-06 0.000000000000D+00 0.000000000000D+00 0.116417492245D-06 0.000000000000D+00  7 2 -2 24 -13 13 -24 21 2 0.12770837D+00 0.23578472D-01 0.61180807D+05 0.61180807D+05 0.61180807D+05 0.11396650D+01  1  2 15  2  7  2       -2 0.699428116028D-04 0.100000000000D+01
0.131296613590D-04 0.000000000000D+00 0.000000000000D+00 0.116417492245D-06 0.000000000000D+00  7 2 -2 24 -13 13 -24 21 2 0.12770837D+00 0.29453748D-01 0.89140916D+05 0.89140916D+05 0.89140916D+05 0.11258420D+01  1  2 12  2  7  2       -2 0.706368848726D-03 0.100000000000D+01
-.148262393389D-04 0.000000000000D+00 0.000000000000D+00 0.116417492245D-06 0.000000000000D+00  7 2 -2 24 -13 13 -24 21 2 0.12770837D+00 0.23578472D-01 0.61180807D+05 0.61180807D+05 0.61180807D+05 0.11396650D+01  1  2  4  2  7  2       -2 -.120177818255D-02 0.100000000000D+01
-.228641591260D-04 0.000000000000D+00 -.776878305305D-05 0.116417492245D-06 0.000000000000D+00  7 2 -2 24 -13 13 -24 21 2 0.12770837D+00 0.30798564D-01 0.61180807D+05 0.61180807D+05 0.61180807D+05 0.11396650D+01  1  2  5  2  7  2       -2 -.117190977120D-02 0.100000000000D+01
0.243351859017D-04 0.000000000000D+00 0.749960016818D-05 0.116417492245D-06 0.000000000000D+00  7 2 -2 24 -13 13 -24 21 2 0.12770837D+00 0.23578472D-01 0.61180807D+05 0.61180807D+05 0.61180807D+05 0.11396650D+01  1  2  6  2  7  2       -2 0.197254980286D-02 0.100000000000D+01
0.407396914981D-06 0.000000000000D+00 0.000000000000D+00 0.116417492245D-06 0.000000000000D+00  7 2 21 24 -13 13 -24 2 2 0.12770837D+00 0.29453748D-01 0.89140916D+05 0.89140916D+05 0.89140916D+05 0.11258420D+01  1  2 12  4  7  2       -2 0.261804955454D-03 0.100000000000D+01
-.667394903366D-06 0.000000000000D+00 -.276033633222D-06 0.116417492245D-06 0.000000000000D+00  7 2 21 24 -13 13 -24 2 2 0.12770837D+00 0.30798564D-01 0.61180807D+05 0.61180807D+05 0.61180807D+05 0.11396650D+01  1  2  5  4  7  2       -2 -.409280060161D-03 0.100000000000D+01
  </mgrwgt>
  </event>
  <event>
  9     66 0.26993063E-05 0.22607155E+03 0.75467711E-02 0.99857575E-01
        2 -1    0    0  501    0 0.00000000E+00 0.00000000E+00 0.98849045E+03 0.98849050E+03 0.32000000E+00 0.0000E+00 0.9000E+01
       -2 -1    0    0    0  502 0.00000000E+00 0.00000000E+00 -.44840934E+03 0.44840946E+03 0.32000000E+00 0.0000E+00 0.9000E+01
       25  2    1    2    0    0 0.53817549E+02 -.22283219E+02 0.62230338E+03 0.69143022E+03 0.29567107E+03 0.0000E+00 0.0000E+00
       23  2    1    2    0    0 -.20543393E+03 0.67910292E+02 -.35769951E+03 0.42773144E+03 0.90500484E+02 0.0000E+00 0.0000E+00
       24  1    3    3    0    0 0.37370186E+02 0.83808092E+02 0.11854562E+03 0.17011939E+03 0.80419002E+02 0.0000E+00 0.9000E+01
      -13  1    4    4    0    0 -.24927273E+01 0.23853572E+02 -.19720240E+02 0.31050051E+02 0.10565837E+00 0.0000E+00 0.9000E+01
       13  1    4    4    0    0 -.20294120E+03 0.44056720E+02 -.33797927E+03 0.39668139E+03 0.10565837E+00 0.0000E+00 0.9000E+01
      -24  1    3    3    0    0 0.16447363E+02 -.10609131E+03 0.50375776E+03 0.52131083E+03 0.80419002E+02 0.0000E+00 0.9000E+01
       21  1    1    2  501  502 0.15161638E+03 -.45627073E+02 0.27547723E+03 0.31773830E+03 0.75000000E+00 0.0000E+00 0.9000E+01
#aMCatNLO 2  0  0  2  1 0.15833306D+03 0.00000000D+00  -5  7  0 0.00000000D+00 0.00000000D+00 0.00000000D+00 0.00000000D+00 0.00000000D+00
  <mgrwgt>
 0.1815002908D-03    1    2    0
 0.537921521257839D+03 0.000000000000000D+00 0.000000000000000D+00 0.537921521257839D+03
 0.537921521257839D+03 0.000000000000000D+00 0.000000000000000D+00 -.537921521257839D+03
 0.149525048837565D+03 0.580991637631591D+02 0.775699627555494D+02 0.806096292239951D+02
 0.357869498304874D+02 0.259168440727229D+01 0.223235363359258D+02 -.278504699343032D+02
 0.465311801373080D+03 -.135952174307039D+03 0.238971460499599D+02 -.444365846132347D+03
 0.425219242474544D+03 0.752613261366079D+02 -.123790645141435D+03 0.391606686842655D+03
 0.000000000000000D+00 0.000000000000000D+00 -.000000000000000D+00 0.000000000000000D+00
 0.776804228317559D+03 0.000000000000000D+00 0.000000000000000D+00 0.776804228317559D+03
 0.570604078565418D+03 0.000000000000000D+00 0.000000000000000D+00 -.570604078565418D+03
 0.146237667467743D+03 0.373701862747155D+02 0.838080920090579D+02 0.806096292239951D+02
 0.367539468272616D+02 -.249245409603306D+01 0.238535449021485D+02 -.278504699343032D+02
 0.490496936641126D+03 -.202941475937275D+03 0.440567473812194D+02 -.444365846132347D+03
 0.413943106141869D+03 0.164473632040295D+02 -.106091310821205D+03 0.391606686842655D+03
 0.259976649804978D+03 0.151616380554563D+03 -.456270734712205D+02 0.206200149752142D+03
0.221318477267D-04 0.000000000000D+00 0.000000000000D+00 0.114060066770D-06 0.327457385273D-10  7 2 -2 24 -13 13 -24 21 2 0.15207533D+00 0.68986002D-01 0.10437355D+06 0.10437355D+06 0.10437355D+06 0.11201997D+01  1  2  1  2  7  2       -2 0.181500290805D-03 0.100000000000D+01
  </mgrwgt>
  </event>
  <event>
  7     66 0.26993063E-05 0.46721446E+02 0.75467711E-02 0.10417132E+00
        2 -1    0    0  501    0 0.00000000E+00 0.00000000E+00 0.12573297E+04 0.12573297E+04 0.32000000E+00 0.0000E+00 0.9000E+01
       -2 -1    0    0    0  501 0.00000000E+00 0.00000000E+00 -.59433402E+02 0.59434264E+02 0.32000000E+00 0.0000E+00 0.9000E+01
       23  2    1    2    0    0 0.58356074E+02 0.42140407E+02 0.77417031E+03 0.78285422E+03 0.91322572E+02 0.0000E+00 0.0000E+00
       24  1    1    2    0    0 0.45138963E+02 -.13257859E+03 0.17107319E+03 0.23526126E+03 0.80419002E+02 0.0000E+00 0.9000E+01
      -11  1    3    3    0    0 0.71690396E+02 0.42388895E+02 0.40659981E+03 0.41504185E+03 0.51099893E-03 0.0000E+00 0.9000E+01
       11  1    3    3    0    0 -.13334321E+02 -.24848815E+00 0.36757050E+03 0.36781237E+03 0.51099893E-03 0.0000E+00 0.9000E+01
      -24  1    1    2    0    0 -.10349504E+03 0.90438180E+02 0.25265277E+03 0.29864850E+03 0.80419002E+02 0.0000E+00 0.9000E+01
#aMCatNLO 1  0  0  2  1 0.50041983D+02 0.00000000D+00  -5  7  0 0.00000000D+00 0.00000000D+00 0.00000000D+00 0.00000000D+00 0.00000000D+00
  <mgrwgt>
 0.5979305072D-03    9    2    0
 0.273364177541207D+03 0.000000000000000D+00 0.000000000000000D+00 0.273364177541207D+03
 0.273364177541207D+03 0.000000000000000D+00 0.000000000000000D+00 -.273364177541207D+03
 0.191787410154492D+03 0.451389628275226D+02 -.132578587088133D+03 -.103443641757077D+03
 0.108733632187257D+03 0.716903958442294D+02 0.423888948452134D+02 0.699047316433790D+02
 0.804983787616353D+02 -.133343213831701D+02 -.248488140470336D+00 0.793859125421260D+02
 0.165708933979030D+03 -.103495037288582D+03 0.904381803833904D+02 -.458470024284284D+02
 0.000000000000000D+00 -.000000000000000D+00 -.000000000000000D+00 -.000000000000000D+00
 0.289134009699759D+03 0.000000000000000D+00 0.000000000000000D+00 0.289134009699759D+03
 0.317307460177505D+03 0.000000000000000D+00 0.000000000000000D+00 -.317307460177505D+03
 0.191952361861765D+03 0.614279231577424D+02 -.126113109970770D+03 -.103443641757077D+03
 0.116718463346533D+03 0.812603714066250D+02 0.461874465488238D+02 0.699047316433790D+02
 0.796920862560855D+02 -.653456717410528D+01 0.245049659220426D+01 0.793859125421260D+02
 0.160650835452499D+03 -.896417394932608D+02 0.959368849096395D+02 -.458470024284284D+02
 0.574277229603824D+02 -.465119878970012D+02 -.184617180798977D+02 -.281734504777462D+02
0.325254420822D-05 0.000000000000D+00 0.000000000000D+00 0.131962777262D-08 0.000000000000D+00  7 2 -2 24 -11 11 -24 21 0 0.19343540D+00 0.91436697D-02 0.43547416D+05 0.43547416D+05 0.43547416D+05 0.11526113D+01  1  2  2  2  7  2       -2 0.509684242456D-03 0.100000000000D+01
-.164680445585D-06 0.000000000000D+00 -.124906261741D-07 0.131962777262D-08 0.000000000000D+00  7 2 -2 24 -11 11 -24 21 2 0.19343540D+00 0.91436697D-02 0.43547416D+05 0.43547416D+05 0.43547416D+05 0.11526113D+01  1  2  3  2  7  2       -2 -.342835513062D-04 0.100000000000D+01
0.204904484856D-06 0.000000000000D+00 0.000000000000D+00 0.131962777262D-08 0.000000000000D+00  7 2 -2 24 -11 11 -24 21 2 0.19343540D+00 0.91436697D-02 0.43547416D+05 0.43547416D+05 0.43547416D+05 0.11526113D+01  1  2 15  2  7  2       -2 0.426574836770D-04 0.100000000000D+01
0.446963971942D-05 0.000000000000D+00 0.000000000000D+00 0.131962777262D-08 0.000000000000D+00  7 2 -2 24 -11 11 -24 21 2 0.19343540D+00 0.10846042D-01 0.54325072D+05 0.54325072D+05 0.54325072D+05 0.11441396D+01  1  2 12  2  7  2       -2 0.705677569998D-03 0.100000000000D+01
-.453525602210D-05 0.000000000000D+00 0.000000000000D+00 0.131962777262D-08 0.000000000000D+00  7 2 -2 24 -11 11 -24 21 2 0.19343540D+00 0.91436697D-02 0.43547416D+05 0.43547416D+05 0.43547416D+05 0.11526113D+01  1  2  4  2  7  2       -2 -.944159957599D-03 0.100000000000D+01
-.843233918761D-05 0.000000000000D+00 -.225976873180D-05 0.131962777262D-08 0.000000000000D+00  7 2 -2 24 -11 11 -24 21 2 0.19343540D+00 0.11239690D-01 0.43547416D+05 0.43547416D+05 0.43547416D+05 0.11526113D+01  1  2  5  2  7  2       -2 -.128013583127D-02 0.100000000000D+01
0.875881022665D-05 0.000000000000D+00 0.221247918460D-05 0.131962777262D-08 0.000000000000D+00  7 2 -2 24 -11 11 -24 21 2 0.19343540D+00 0.91436697D-02 0.43547416D+05 0.43547416D+05 0.43547416D+05 0.11526113D+01  1  2  6  2  7  2       -2 0.182342911886D-02 0.100000000000D+01
0.113085165317D-06 0.000000000000D+00 0.000000000000D+00 0.131962777262D-08 0.000000000000D+00  7 2 21 24 -11 11 -24 2 2 0.19343540D+00 0.10846042D-01 0.54325072D+05 0.54325072D+05 0.54325072D+05 0.11441396D+01  1  2 12  4  7  2       -2 0.259887439944D-03 0.100000000000D+01
-.219713158850D-06 0.000000000000D+00 -.662413767816D-07 0.131962777262D-08 0.000000000000D+00  7 2 21 24 -11 11 -24 2 2 0.19343540D+00 0.11239690D-01 0.43547416D+05 0.43547416D+05 0.43547416D+05 0.11526113D+01  1  2  5  4  7  2       -2 -.484826007589D-03 0.100000000000D+01
  </mgrwgt>
  </event>
  <event>
  8     66 0.26993063E-05 0.20617177E+03 0.75467711E-02 0.83107873E-01
        2 -1    0    0  501    0 0.00000000E+00 0.00000000E+00 0.13304402E+03 0.13304440E+03 0.32000000E+00 0.0000E+00 0.9000E+01
       -2 -1    0    0    0  501 0.00000000E+00 0.00000000E+00 -.12057405E+04 0.12057405E+04 0.32000000E+00 0.0000E+00 0.9000E+01
       25  2    1    2    0    0 -.15849993E+03 -.34295451E+02 -.11099375E+03 0.35931642E+03 0.30081601E+03 0.0000E+00 0.0000E+00
       23  2    1    2    0    0 0.15849993E+03 0.34295451E+02 -.96170271E+03 0.97946851E+03 0.90487841E+02 0.0000E+00 0.0000E+00
       24  1    3    3    0    0 -.33595396E+02 -.11592948E+02 0.78223505E+02 0.11768254E+03 0.80419002E+02 0.0000E+00 0.9000E+01
      -11  1    4    4    0    0 0.11631088E+03 0.53214023E+02 -.52637863E+03 0.54169587E+03 0.51099893E-03 0.0000E+00 0.9000E+01
       11  1    4    4    0    0 0.42189051E+02 -.18918572E+02 -.43532408E+03 0.43777264E+03 0.51099893E-03 0.0000E+00 0.9000E+01
      -24  1    3    3    0    0 -.12490453E+03 -.22702504E+02 -.18921725E+03 0.24163388E+03 0.80419002E+02 0.0000E+00 0.9000E+01
#aMCatNLO 1  0  0  1  1 0.15615695D+04 0.00000000D+00  -5  7  0 0.00000000D+00 0.00000000D+00 0.00000000D+00 0.00000000D+00 0.00000000D+00
  <mgrwgt>
 0.8578073218D-03    5    2    0
 0.400520716092402D+03 0.000000000000000D+00 0.000000000000000D+00 0.400520716092402D+03
 0.400520716092402D+03 0.000000000000000D+00 0.000000000000000D+00 -.400520716092402D+03
 0.301434699859957D+03 -.335953956917937D+02 -.115929476653290D+02 0.288327271131318D+03
 0.200451266512910D+03 0.116310876589613D+03 0.532140229622539D+02 -.154339748586546D+03
 0.148697437698595D+03 0.421890512847467D+02 -.189185715801307D+02 -.141326216885573D+03
 0.150458028113342D+03 -.124904532182566D+03 -.227025037167941D+02 0.733869434080098D+01
 0.000000000000000D+00 -.000000000000000D+00 0.000000000000000D+00 0.000000000000000D+00
 0.107185671708787D+05 0.000000000000000D+00 0.000000000000000D+00 0.107185671708787D+05
 0.939467322157311D+03 0.000000000000000D+00 0.000000000000000D+00 -.939467322157311D+03
 0.681663843020137D+03 -.211353003460091D+02 -.612061322685777D+03 0.288327271131318D+03
 0.340167952921317D+03 0.123162851977737D+03 -.276991678744383D+03 -.154339748586546D+03
 0.364367031432493D+03 0.486917892352875D+02 -.332294062054689D+03 -.141326216885573D+03
 0.368841517980821D+03 -.118322768935924D+03 -.339886327098831D+03 0.733869434080098D+01
 0.990299414768128D+04 -.323965719310909D+02 0.156123339058368D+04 0.977909984872142D+04
0.144832558200D-03 0.000000000000D+00 0.000000000000D+00 0.776323884058D-06 0.000000000000D+00  7 2 -2 24 -11 11 -24 21 0 0.20468343D-01 0.18549857D+00 0.42506800D+05 0.42506800D+05 0.42506800D+05 0.11535497D+01  1  2  2  1  7  1        2 0.821193349094D-03 0.100000000000D+01
-.373221121209D-05 0.000000000000D+00 -.556195158777D-06 0.776323884058D-06 0.000000000000D+00  7 2 -2 24 -11 11 -24 21 2 0.20468343D-01 0.18549857D+00 0.42506800D+05 0.42506800D+05 0.42506800D+05 0.11535497D+01  1  2  3  1  7  1        2 -.281590529835D-04 0.100000000000D+01
0.890290364209D-05 0.000000000000D+00 0.000000000000D+00 0.776323884058D-06 0.000000000000D+00  7 2 -2 24 -11 11 -24 21 2 0.20468343D-01 0.18549857D+00 0.42506800D+05 0.42506800D+05 0.42506800D+05 0.11535497D+01  1  2 15  1  7  1        2 0.671712615171D-04 0.100000000000D+01
-.368905603607D-03 0.000000000000D+00 -.339960316706D-03 0.776323884058D-06 0.000000000000D+00  7 2 -2 24 -11 11 -24 21 2 0.66425082D+00 0.18549857D+00 0.42506800D+05 0.42506800D+05 0.42506800D+05 0.11535497D+01  1  2  5  1  7  1        2 -.237658786989D-05 0.100000000000D+01
-.227496302645D-03 0.000000000000D+00 -.116066599669D-03 0.776323884058D-06 0.000000000000D+00  7 21 -2 24 -11 11 -24 -2 2 0.66425082D+00 0.18549857D+00 0.42506800D+05 0.42506800D+05 0.42506800D+05 0.11535497D+01  1  2  5  3  7  1        2 -.216479211408D-07 0.100000000000D+01
  </mgrwgt>
  </event>
  <event>
  8     66 0.26993063E-05 0.45786325E+03 0.75467711E-02 0.90323354E-01
        2 -1    0    0  501    0 0.00000000E+00 0.00000000E+00 0.18531866E+04 0.18531866E+04 0.32000000E+00 0.0000E+00 0.9000E+01
       -2 -1    0    0    0  501 0.00000000E+00 0.00000000E+00 -.25970509E+03 0.25970529E+03 0.32000000E+00 0.0000E+00 0.9000E+01
       25  2    1    2    0    0 0.62124132E+03 -.15828682E+03 0.10537496E+04 0.12692928E+04 0.29953410E+03 0.0000E+00 0.0000E+00
       23  2    1    2    0    0 -.62124132E+03 0.15828682E+03 0.53973190E+03 0.84359903E+03 0.96712487E+02 0.0000E+00 0.0000E+00
       24  1    3    3    0    0 0.45073285E+03 -.15896640E+03 0.55904574E+03 0.73988497E+03 0.80419002E+02 0.0000E+00 0.9000E+01
      -11  1    4    4    0    0 -.32519760E+03 0.98937997E+02 0.22606831E+03 0.40822676E+03 0.51099893E-03 0.0000E+00 0.9000E+01
       11  1    4    4    0    0 -.29604372E+03 0.59348824E+02 0.31366358E+03 0.43537226E+03 0.51099893E-03 0.0000E+00 0.9000E+01
      -24  1    3    3    0    0 0.17050847E+03 0.67957923E+00 0.49470383E+03 0.52940787E+03 0.80419002E+02 0.0000E+00 0.9000E+01
#aMCatNLO 1  0  0  2  1 0.16404879D+03 0.00000000D+00  -5  7  0 0.00000000D+00 0.00000000D+00 0.00000000D+00 0.00000000D+00 0.00000000D+00
  <mgrwgt>
 0.6713558042D-03    7    2    0
 0.693745067977260D+03 0.000000000000000D+00 0.000000000000000D+00 0.693745067977260D+03
 0.693745067977260D+03 0.000000000000000D+00 0.000000000000000D+00 -.693745067977260D+03
 0.484665007074098D+03 0.450732846817096D+03 -.158966400296356D+03 0.159295471986168D+01
 0.362023001057201D+03 -.325197602877257D+03 0.989379971727978D+02 -.124573051230124D+03
 0.302760646619254D+03 -.296043716072261D+03 0.593488238983294D+02 -.223572005698495D+02
 0.238041481203969D+03 0.170508472132422D+03 0.679579225228771D+00 0.145337297080112D+03
 0.000000000000000D+00 0.000000000000000D+00 0.000000000000000D+00 -.000000000000000D+00
 0.704518732146431D+03 0.000000000000000D+00 0.000000000000000D+00 0.704518732146431D+03
 0.183096127364616D+04 0.000000000000000D+00 0.000000000000000D+00 -.183096127364616D+04
 0.506572952416687D+03 0.450444681999872D+03 -.217361429695066D+03 0.159295471986168D+01
 0.353036661231957D+03 -.325405479336098D+03 0.568129659414904D+02 -.124573051230124D+03
 0.298025248070354D+03 -.296218371770094D+03 0.239557987959086D+02 -.223572005698495D+02
 0.239519705001786D+03 0.170369639341951D+03 -.274541289738537D+02 0.145337297080112D+03
 0.113832543907180D+04 0.809529764368394D+00 0.164046793931520D+03 -.112644254149973D+04
0.118238272004D-03 0.000000000000D+00 0.000000000000D+00 0.359017589035D-06 0.000000000000D+00  7 2 -2 24 -11 11 -24 21 0 0.28510564D+00 0.39954647D-01 0.43232871D+06 0.43232871D+06 0.43232871D+06 0.10730027D+01  1  2  2  2  7  2       -2 0.711395817050D-03 0.100000000000D+01
-.654581847060D-05 0.000000000000D+00 -.454066097349D-06 0.359017589035D-06 0.000000000000D+00  7 2 -2 24 -11 11 -24 21 2 0.28510564D+00 0.39954647D-01 0.43232871D+06 0.43232871D+06 0.43232871D+06 0.10730027D+01  1  2  3  2  7  2       -2 -.453438986442D-04 0.100000000000D+01
0.754887179927D-05 0.000000000000D+00 0.000000000000D+00 0.359017589035D-06 0.000000000000D+00  7 2 -2 24 -11 11 -24 21 2 0.28510564D+00 0.39954647D-01 0.43232871D+06 0.43232871D+06 0.43232871D+06 0.10730027D+01  1  2 15  2  7  2       -2 0.522922044480D-04 0.100000000000D+01
0.125917833450D-02 0.000000000000D+00 0.000000000000D+00 0.359017589035D-06 0.000000000000D+00  7 2 -2 24 -11 11 -24 21 2 0.28510564D+00 0.10517019D+00 0.55392168D+06 0.55392168D+06 0.55392168D+06 0.10653810D+01  1  2 12  2  7  2       -2 0.106263656706D-02 0.100000000000D+01
-.127193241124D-02 0.000000000000D+00 -.353319494022D-04 0.359017589035D-06 0.000000000000D+00  7 2 -2 24 -11 11 -24 21 2 0.28510564D+00 0.10593968D+00 0.43232871D+06 0.43232871D+06 0.43232871D+06 0.10730027D+01  1  2  5  2  7  2       -2 -.108671458407D-02 0.100000000000D+01
0.135318027922D-03 0.000000000000D+00 0.000000000000D+00 0.359017589035D-06 0.000000000000D+00  7 2 21 24 -11 11 -24 2 2 0.28510564D+00 0.10517019D+00 0.55392168D+06 0.55392168D+06 0.55392168D+06 0.10653810D+01  1  2 12  4  7  2       -2 0.102233954368D-02 0.100000000000D+01
-.135803410269D-03 0.000000000000D+00 -.383051880110D-05 0.359017589035D-06 0.000000000000D+00  7 2 21 24 -11 11 -24 2 2 0.28510564D+00 0.10593968D+00 0.43232871D+06 0.43232871D+06 0.43232871D+06 0.10730027D+01  1  2  5  4  7  2       -2 -.104524984529D-02 0.100000000000D+01
  </mgrwgt>
  </event>
  <event>
  9     66 0.26993063E-05 0.34891216E+03 0.75467711E-02 0.94238075E-01
        2 -1    0    0  501    0 0.00000000E+00 0.00000000E+00 0.62001323E+03 0.62001331E+03 0.32000000E+00 0.0000E+00 0.9000E+01
       21 -1    0    0  502  501 0.00000000E+00 0.00000000E+00 -.12434865E+04 0.12434867E+04 0.75000000E+00 0.0000E+00 0.9000E+01
       25  2    1    2    0    0 0.15823765E+02 0.26669615E+03 0.35575863E+03 0.53682850E+03 0.30040540E+03 0.0000E+00 0.0000E+00
       23  2    1    2    0    0 -.29286208E+03 -.28975619E+03 -.14238069E+03 0.44485407E+03 0.88859626E+02 0.0000E+00 0.0000E+00
       24  1    3    3    0    0 -.54415317E+02 0.76832377E+02 0.28007936E+03 0.30622852E+03 0.80419002E+02 0.0000E+00 0.9000E+01
      -11  1    4    4    0    0 -.98047219E+02 -.64037386E+02 -.67787393E+01 0.11730301E+03 0.51099893E-03 0.0000E+00 0.9000E+01
       11  1    4    4    0    0 -.19481486E+03 -.22571881E+03 -.13560195E+03 0.32755106E+03 0.51099893E-03 0.0000E+00 0.9000E+01
      -24  1    3    3    0    0 0.70239082E+02 0.18986378E+03 0.75679271E+02 0.23059998E+03 0.80419002E+02 0.0000E+00 0.9000E+01
        2  1    1    2  502    0 0.27703831E+03 0.23060038E+02 -.83685123E+03 0.88181749E+03 0.32000000E+00 0.0000E+00 0.9000E+01
#aMCatNLO 2  0  0  2  1 0.27799639D+03 0.00000000D+00  -5  7  0 0.00000000D+00 0.00000000D+00 0.00000000D+00 0.00000000D+00 0.00000000D+00
  <mgrwgt>
 0.1102911119D-03    2    2    0
 0.458499870293084D+03 0.000000000000000D+00 0.000000000000000D+00 0.458499870293084D+03
 0.458499870293084D+03 0.000000000000000D+00 0.000000000000000D+00 -.458499870293084D+03
 0.248149548470818D+03 0.193807979393477D+02 0.829749977866561D+02 0.218747609965089D+03
 0.959228288545766D+02 -.658983672272612D+02 -.613613887672319D+02 -.330662102576340D+02
 0.317676609699241D+03 -.938444005541573D+02 -.217314254681079D+03 -.211863568239189D+03
 0.255250753561532D+03 0.140361969842071D+03 0.195700645661655D+03 0.261821685317341D+02
 0.000000000000000D+00 0.000000000000000D+00 0.000000000000000D+00 -.000000000000000D+00
 0.497133259480174D+03 0.000000000000000D+00 0.000000000000000D+00 0.497133259480174D+03
 0.155084837324179D+04 0.000000000000000D+00 0.000000000000000D+00 -.155084837324179D+04
 0.251360246932364D+03 -.544153168271125D+02 0.768323773723970D+02 0.218747609965089D+03
 0.121685735858159D+03 -.980472194889949D+02 -.640373859633292D+02 -.330662102576340D+02
 0.365770392939176D+03 -.194814859807691D+03 -.225718805601012D+03 -.211863568239189D+03
 0.219395770444563D+03 0.702390820000358D+02 0.189863776285423D+03 0.261821685317341D+02
 0.108976948654770D+04 0.277038314123763D+03 0.230600379065210D+02 -.105371511376162D+04
-.835924875088D-06 0.000000000000D+00 0.000000000000D+00 0.572802151786D-06 0.000000000000D+00  7 2 21 24 -11 11 -24 2 2 0.87973948D-01 0.18676425D+00 0.26776257D+06 0.26776257D+06 0.26776257D+06 0.10882236D+01  1  2 13  4  7  2       -2 -.810546362407D-05 0.100000000000D+01
0.145353438042D-04 0.000000000000D+00 0.000000000000D+00 0.572802151786D-06 0.151690924524D-10  7 2 21 24 -11 11 -24 2 2 0.95386670D-01 0.19130563D+00 0.26776257D+06 0.26776257D+06 0.26776257D+06 0.10882236D+01  1  2  1  4  7  2       -2 0.118396575551D-03 0.100000000000D+01
  </mgrwgt>
  </event>
  <event>
  8     66 0.26993063E-05 0.27142652E+03 0.75467711E-02 0.99022031E-01
        2 -1    0    0  501    0 0.00000000E+00 0.00000000E+00 0.50088522E+03 0.50088532E+03 0.32000000E+00 0.0000E+00 0.9000E+01
       -2 -1    0    0    0  501 0.00000000E+00 0.00000000E+00 -.16203626E+03 0.16203657E+03 0.32000000E+00 0.0000E+00 0.9000E+01
       25  2    1    2    0    0 0.10375416E+03 0.15539355E+03 0.15730433E+03 0.38673639E+03 0.29984713E+03 0.0000E+00 0.0000E+00
       23  2    1    2    0    0 -.10375416E+03 -.15539355E+03 0.18154463E+03 0.27618551E+03 0.91694623E+02 0.0000E+00 0.0000E+00
       24  1    3    3    0    0 -.60305916E+02 0.10966200E+03 0.12774840E+03 0.19608526E+03 0.80419002E+02 0.0000E+00 0.9000E+01
      -13  1    4    4    0    0 -.50749637E+02 -.14239853E+03 0.11393939E+03 0.18930151E+03 0.10565837E+00 0.0000E+00 0.9000E+01
       13  1    4    4    0    0 -.53004525E+02 -.12995021E+02 0.67605239E+02 0.86884001E+02 0.10565837E+00 0.0000E+00 0.9000E+01
      -24  1    3    3    0    0 0.16406008E+03 0.45731548E+02 0.29555928E+02 0.19065113E+03 0.80419002E+02 0.0000E+00 0.9000E+01
#aMCatNLO 1  0  0  2  1 0.13272333D+03 0.00000000D+00  -5  7  0 0.00000000D+00 0.00000000D+00 0.00000000D+00 0.00000000D+00 0.00000000D+00
  <mgrwgt>
 0.5817461420D-03    3    2    0
 0.284888935359357D+03 0.000000000000000D+00 0.000000000000000D+00 0.284888935359357D+03
 0.284888935359357D+03 0.000000000000000D+00 0.000000000000000D+00 -.284888935359357D+03
 0.152167715051734D+03 -.603059157796082D+02 0.109661998953225D+03 0.320193700322273D+02
 0.152487391401869D+03 -.507496342666369D+02 -.142398697563770D+03 0.199872481970717D+02
 0.608820987519936D+02 -.530045276524673D+02 -.129948496775720D+02 0.269867352349935D+02
 0.204240665513117D+03 0.164060077698712D+03 0.457315482881169D+02 -.789933534642926D+02
 0.000000000000000D+00 0.000000000000000D+00 -.000000000000000D+00 0.000000000000000D+00
 0.652313896114811D+03 0.000000000000000D+00 0.000000000000000D+00 0.652313896114811D+03
 0.304755785126456D+03 0.000000000000000D+00 0.000000000000000D+00 -.304755785126456D+03
 0.183274709893974D+03 -.901772162042400D+02 0.134034446888637D+03 0.320193700322273D+02
 0.144759616084806D+03 -.772196154039197D+02 -.120801437720748D+03 0.199872481970717D+02
 0.701649185085351D+02 -.646743241100106D+02 -.347328541571638D+01 0.269867352349935D+02
 0.186832638847374D+03 0.129234822173874D+03 0.741460034692056D+02 -.789933534642926D+02
 0.372037797906578D+03 0.102836333544296D+03 -.839057272213782D+02 0.347558110988355D+03
0.560560688006D-05 0.000000000000D+00 0.000000000000D+00 0.549683958922D-06 0.000000000000D+00  7 2 -2 24 -13 13 -24 21 0 0.77059297D-01 0.24928687D-01 0.73672357D+05 0.73672357D+05 0.73672357D+05 0.11327767D+01  1  2  2  2  7  2       -2 0.575439062794D-03 0.100000000000D+01
-.310535316112D-06 0.000000000000D+00 -.215270064096D-07 0.549683958922D-06 0.000000000000D+00  7 2 -2 24 -13 13 -24 21 2 0.77059297D-01 0.24928687D-01 0.73672357D+05 0.73672357D+05 0.73672357D+05 0.11327767D+01  1  2  3  2  7  2       -2 -.409049898999D-04 0.100000000000D+01
0.358416291825D-06 0.000000000000D+00 0.000000000000D+00 0.549683958922D-06 0.000000000000D+00  7 2 -2 24 -13 13 -24 21 2 0.77059297D-01 0.24928687D-01 0.73672357D+05 0.73672357D+05 0.73672357D+05 0.11327767D+01  1  2 15  2  7  2       -2 0.472120690833D-04 0.100000000000D+01
  </mgrwgt>
  </event>
  <event>
  8     66 0.26993063E-05 0.32155323E+03 0.75467711E-02 0.99917123E-01
        2 -1    0    0  501    0 0.00000000E+00 0.00000000E+00 0.82182560E+03 0.82182567E+03 0.32000000E+00 0.0000E+00 0.9000E+01
       -2 -1    0    0    0  501 0.00000000E+00 0.00000000E+00 -.14916499E+03 0.14916533E+03 0.32000000E+00 0.0000E+00 0.9000E+01
       25  2    1    2    0    0 -.13827431E+03 0.24046643E+03 0.43840603E+03 0.59673560E+03 0.29487225E+03 0.0000E+00 0.0000E+00
       23  2    1    2    0    0 0.13827431E+03 -.24046643E+03 0.23425459E+03 0.37425540E+03 0.90818540E+02 0.0000E+00 0.0000E+00
       24  1    3    3    0    0 -.29012321E+02 0.33824661E+01 0.66370908E+01 0.85816215E+02 0.80419002E+02 0.0000E+00 0.9000E+01
      -11  1    4    4    0    0 0.55391074E+02 -.42635753E+02 0.24014881E+02 0.73910034E+02 0.51099893E-03 0.0000E+00 0.9000E+01
       11  1    4    4    0    0 0.82883233E+02 -.19783067E+03 0.21023971E+03 0.30034537E+03 0.51099893E-03 0.0000E+00 0.9000E+01
      -24  1    3    3    0    0 -.10926199E+03 0.23708396E+03 0.43176894E+03 0.51091938E+03 0.80419002E+02 0.0000E+00 0.9000E+01
#aMCatNLO 1  0  0  1  1 0.21000435D+03 0.00000000D+00  -5  7  0 0.00000000D+00 0.00000000D+00 0.00000000D+00 0.00000000D+00 0.00000000D+00
  <mgrwgt>
 0.1104113214D-04    1    2    0
 0.350125413273656D+03 0.000000000000000D+00 0.000000000000000D+00 0.350125413273656D+03
 0.350125413273656D+03 0.000000000000000D+00 0.000000000000000D+00 -.350125413273656D+03
 0.112620021205153D+03 -.290123209531938D+02 0.338246612966208D+01 -.732318057791093D+02
 0.794174185718224D+02 0.553910743405848D+02 -.426357534239759D+02 -.376981138252005D+02
 0.214512676258582D+03 0.828832325311320D+02 -.197830673826801D+03 0.301372428127112D+01
 0.293700710511753D+03 -.109261985918523D+03 0.237083961121115D+03 0.107916195323039D+03
 0.000000000000000D+00 -.000000000000000D+00 0.000000000000000D+00 0.000000000000000D+00
 0.185801141581547D+04 0.000000000000000D+00 0.000000000000000D+00 0.185801141581547D+04
 0.611773608313884D+03 0.000000000000000D+00 0.000000000000000D+00 -.611773608313884D+03
 0.138440139643758D+03 0.527901024918466D+02 -.674445254371608D+02 -.732318057791093D+02
 0.189525866939846D+03 0.143020320054984D+03 -.118507782464665D+03 -.376981138252005D+02
 0.515801092655023D+03 0.320839887901742D+03 -.403860682638543D+03 0.301372428127112D+01
 0.175973599533959D+03 0.437710427456227D+02 0.104583375268386D+03 0.107916195323039D+03
 0.145004432535677D+04 -.560421353194195D+03 0.485229615271982D+03 0.124623780750159D+04
0.133534738545D-06 0.000000000000D+00 0.000000000000D+00 0.176430238266D-07 0.000000000000D+00  7 2 -2 24 -11 11 -24 21 2 0.12643474D+00 0.22948491D-01 0.10339648D+06 0.10339648D+06 0.10339648D+06 0.11205336D+01  1  2 14  1  7  1        2 0.110411321440D-04 0.100000000000D+01
  </mgrwgt>
  </event>
  <event>
  8     66 0.26993063E-05 0.17513239E+03 0.75467711E-02 0.98310378E-01
        2 -1    0    0  501    0 0.00000000E+00 0.00000000E+00 0.45670995E+04 0.45670995E+04 0.32000000E+00 0.0000E+00 0.9000E+01
       -2 -1    0    0    0  501 0.00000000E+00 0.00000000E+00 -.41210127E+02 0.41211369E+02 0.32000000E+00 0.0000E+00 0.9000E+01
       25  2    1    2    0    0 -.94528435E+02 -.25290014E+03 0.38957190E+04 0.39166973E+04 0.30165609E+03 0.0000E+00 0.0000E+00
       23  2    1    2    0    0 0.94528435E+02 0.25290014E+03 0.63017033E+03 0.69161362E+03 0.91217642E+02 0.0000E+00 0.0000E+00
       24  1    3    3    0    0 -.52392584E+02 -.28534499E+03 0.25936940E+04 0.26111075E+04 0.80419002E+02 0.0000E+00 0.9000E+01
      -11  1    4    4    0    0 0.52723884E+02 0.71255788E+02 0.12570350E+03 0.15381341E+03 0.51099893E-03 0.0000E+00 0.9000E+01
       11  1    4    4    0    0 0.41804551E+02 0.18164435E+03 0.50446682E+03 0.53780021E+03 0.51099893E-03 0.0000E+00 0.9000E+01
      -24  1    3    3    0    0 -.42135851E+02 0.32444846E+02 0.13020251E+04 0.13055898E+04 0.80419002E+02 0.0000E+00 0.9000E+01
#aMCatNLO 1  0  0  2  1 0.60531410D+02 0.00000000D+00  -5  7  0 0.00000000D+00 0.00000000D+00 0.00000000D+00 0.00000000D+00 0.00000000D+00
  <mgrwgt>
 0.2189306343D-03    9    2    0
 0.433835956280466D+03 0.000000000000000D+00 0.000000000000000D+00 0.433835956280466D+03
 0.433835956280466D+03 0.000000000000000D+00 0.000000000000000D+00 -.433835956280466D+03
 0.338864396327388D+03 -.523925836144980D+02 -.285344986265204D+03 0.155547803390030D+03
 0.161235913894930D+03 0.527238838877853D+02 0.712557879674924D+02 -.134684166398476D+03
 0.224957760166176D+03 0.418045512253104D+02 0.181644352558973D+03 -.125951191099032D+03
 0.142613842172438D+03 -.421358514985977D+02 0.324448457387385D+02 0.105087554107478D+03
 0.000000000000000D+00 0.000000000000000D+00 0.000000000000000D+00 -.000000000000000D+00
 0.449041777336840D+03 0.000000000000000D+00 0.000000000000000D+00 0.449041777336840D+03
 0.499619927847793D+03 0.000000000000000D+00 0.000000000000000D+00 -.499619927847793D+03
 0.351050956224383D+03 -.743929985895277D+02 -.295025626909050D+03 0.155547803390030D+03
 0.156259029890211D+03 0.425994237059506D+02 0.668008146933738D+02 -.134684166398476D+03
 0.217731372503448D+03 0.276878272132340D+02 0.175432700079491D+03 -.125951191099032D+03
 0.144739418029136D+03 -.512991364515701D+02 0.284128095772582D+02 0.105087554107478D+03
 0.788809285374547D+02 0.554048841219131D+02 0.243793025589273D+02 -.505781505109538D+02
0.108652682677D-03 0.000000000000D+00 0.000000000000D+00 0.371103126739D-06 0.000000000000D+00  7 2 -2 24 -11 11 -24 21 0 0.70263079D+00 0.63401159D-02 0.11306427D+06 0.11306427D+06 0.11306427D+06 0.11173722D+01  1  2  2  2  7  2       -2 0.188939874260D-03 0.100000000000D+01
-.555973640783D-05 0.000000000000D+00 -.417254910388D-06 0.371103126739D-06 0.000000000000D+00  7 2 -2 24 -11 11 -24 21 2 0.70263079D+00 0.63401159D-02 0.11306427D+06 0.11306427D+06 0.11306427D+06 0.11173722D+01  1  2  3  2  7  2       -2 -.120707171194D-04 0.100000000000D+01
0.696657096267D-05 0.000000000000D+00 0.000000000000D+00 0.371103126739D-06 0.000000000000D+00  7 2 -2 24 -11 11 -24 21 2 0.70263079D+00 0.63401159D-02 0.11306427D+06 0.11306427D+06 0.11306427D+06 0.11173722D+01  1  2 15  2  7  2       -2 0.151250888916D-04 0.100000000000D+01
0.189068249846D-03 0.000000000000D+00 0.000000000000D+00 0.371103126739D-06 0.000000000000D+00  7 2 -2 24 -11 11 -24 21 2 0.70263079D+00 0.74009840D-02 0.13381028D+06 0.13381028D+06 0.13381028D+06 0.11114876D+01  1  2 12  2  7  2       -2 0.317456274638D-03 0.100000000000D+01
-.192316230074D-03 0.000000000000D+00 0.000000000000D+00 0.371103126739D-06 0.000000000000D+00  7 2 -2 24 -11 11 -24 21 2 0.70263079D+00 0.63401159D-02 0.11306427D+06 0.11306427D+06 0.11306427D+06 0.11173722D+01  1  2  4  2  7  2       -2 -.417536847146D-03 0.100000000000D+01
-.297711015574D-03 0.000000000000D+00 -.695630878559D-04 0.371103126739D-06 0.000000000000D+00  7 2 -2 24 -11 11 -24 21 2 0.70263079D+00 0.79637859D-02 0.11306427D+06 0.11306427D+06 0.11306427D+06 0.11173722D+01  1  2  5  2  7  2       -2 -.457918510449D-03 0.100000000000D+01
0.307318743895D-03 0.000000000000D+00 0.677932431762D-04 0.371103126739D-06 0.000000000000D+00  7 2 -2 24 -11 11 -24 21 2 0.70263079D+00 0.63401159D-02 0.11306427D+06 0.11306427D+06 0.11306427D+06 0.11173722D+01  1  2  6  2  7  2       -2 0.667218254774D-03 0.100000000000D+01
0.442195781967D-05 0.000000000000D+00 0.000000000000D+00 0.371103126739D-06 0.000000000000D+00  7 2 21 24 -11 11 -24 2 2 0.70263079D+00 0.74009840D-02 0.13381028D+06 0.13381028D+06 0.13381028D+06 0.11114876D+01  1  2 12  4  7  2       -2 0.113378254244D-03 0.100000000000D+01
-.840826698067D-05 0.000000000000D+00 -.219852483853D-05 0.371103126739D-06 0.000000000000D+00  7 2 21 24 -11 11 -24 2 2 0.70263079D+00 0.79637859D-02 0.11306427D+06 0.11306427D+06 0.11306427D+06 0.11173722D+01  1  2  5  4  7  2       -2 -.195661037820D-03 0.100000000000D+01
  </mgrwgt>
  </event>
  <event>
  8     66 0.26993063E-05 0.24064698E+03 0.75467711E-02 0.95011506E-01
        2 -1    0    0  501    0 0.00000000E+00 0.00000000E+00 0.25959890E+04 0.25959890E+04 0.32000000E+00 0.0000E+00 0.9000E+01
       -2 -1    0    0    0  501 0.00000000E+00 0.00000000E+00 -.13087278E+03 0.13087317E+03 0.32000000E+00 0.0000E+00 0.9000E+01
       25  2    1    2    0    0 0.15881622E+03 0.47379315E+02 0.25076731E+04 0.25310914E+04 0.30088458E+03 0.0000E+00 0.0000E+00
       23  2    1    2    0    0 -.15881622E+03 -.47379315E+02 -.42556946E+02 0.19577080E+03 0.95119509E+02 0.0000E+00 0.0000E+00
       24  1    3    3    0    0 0.16965860E+03 0.78384525E+02 0.97725108E+03 0.99820592E+03 0.80419002E+02 0.0000E+00 0.9000E+01
      -11  1    4    4    0    0 -.16930312E+03 -.54989887E+02 -.37882315E+02 0.18199589E+03 0.51099893E-03 0.0000E+00 0.9000E+01
       11  1    4    4    0    0 0.10486901E+02 0.76105722E+01 -.46746312E+01 0.13774908E+02 0.51099893E-03 0.0000E+00 0.9000E+01
      -24  1    3    3    0    0 -.10842382E+02 -.31005209E+02 0.15304221E+04 0.15328854E+04 0.80419002E+02 0.0000E+00 0.9000E+01
#aMCatNLO 1  0  0  2  2 0.43353368D+03 0.00000000D+00  -5  7  0 0.00000000D+00 0.00000000D+00 0.00000000D+00 0.00000000D+00 0.00000000D+00
  <mgrwgt>
 0.1507674289D-02    3    2    0
 0.582876364383245D+03 0.000000000000000D+00 0.000000000000000D+00 0.582876364383245D+03
 0.582876364383245D+03 0.000000000000000D+00 0.000000000000000D+00 -.582876364383245D+03
 0.268438148096934D+03 0.169658604947996D+03 0.783845247359536D+02 0.175110386466251D+03
 0.505820839665196D+03 -.169303124248022D+03 -.549898874729854D+02 -.473463078006270D+03
 0.421065142897814D+02 0.104869013047761D+02 0.761057217861013D+01 -.400632329920293D+02
 0.349387226714579D+03 -.108423820047497D+02 -.310052094415783D+02 0.338415924532048D+03
 0.000000000000000D+00 -.000000000000000D+00 0.000000000000000D+00 0.000000000000000D+00
 0.851029233307859D+03 0.000000000000000D+00 0.000000000000000D+00 0.851029233307859D+03
 0.826930481275852D+03 0.000000000000000D+00 0.000000000000000D+00 -.826930481275852D+03
 0.349341628505410D+03 0.280811804065581D+03 0.778038604538055D+02 0.175110386466251D+03
 0.476812112854865D+03 0.749579401968916D+01 -.559134849742313D+02 -.473463078006270D+03
 0.488091404828654D+02 0.268447787565568D+02 0.752511863122318D+01 -.400632329920293D+02
 0.368793878901975D+03 0.118375391801512D+03 -.316802430570177D+02 0.338415924532048D+03
 0.434202953838596D+03 -.433527768643339D+03 0.226474894622032D+01 0.240987520320064D+02
0.164655686139D-03 0.000000000000D+00 0.000000000000D+00 0.419978833429D-06 0.000000000000D+00  7 2 -2 24 -11 11 -24 21 0 0.39938295D+00 0.20134306D-01 0.57910969D+05 0.57910969D+05 0.57910969D+05 0.11417263D+01  1  2  2  2  7  2       -2 0.140307033861D-02 0.100000000000D+01
-.443458617903D-06 0.000000000000D+00 -.632321189611D-06 0.419978833429D-06 0.000000000000D+00  7 2 -2 24 -11 11 -24 21 2 0.39938295D+00 0.20134306D-01 0.57910969D+05 0.57910969D+05 0.57910969D+05 0.11417263D+01  1  2  3  2  7  2       -2 -.492583449337D-05 0.100000000000D+01
0.986064938496D-05 0.000000000000D+00 0.000000000000D+00 0.419978833429D-06 0.000000000000D+00  7 2 -2 24 -11 11 -24 21 2 0.39938295D+00 0.20134306D-01 0.57910969D+05 0.57910969D+05 0.57910969D+05 0.11417263D+01  1  2 15  2  7  2       -2 0.109529784531D-03 0.100000000000D+01
  </mgrwgt>
  </event>
  <event>
  8     66 0.26993063E-05 0.20652264E+03 0.75467711E-02 0.10122729E+00
        2 -1    0    0  501    0 0.00000000E+00 0.00000000E+00 0.22976775E+03 0.22976797E+03 0.32000000E+00 0.0000E+00 0.9000E+01
       -2 -1    0    0    0  501 0.00000000E+00 0.00000000E+00 -.26312801E+03 0.26312820E+03 0.32000000E+00 0.0000E+00 0.9000E+01
       25  2    1    2    0    0 -.92952640E+02 0.28540065E+02 -.11646602E+03 0.33625498E+03 0.30008057E+03 0.0000E+00 0.0000E+00
       23  2    1    2    0    0 0.92952640E+02 -.28540065E+02 0.83105758E+02 0.15664120E+03 0.90416644E+02 0.0000E+00 0.0000E+00
       24  1    3    3    0    0 -.16724111E+03 -.15049945E+02 -.11415897E+03 0.21839317E+03 0.80419002E+02 0.0000E+00 0.9000E+01
      -13  1    4    4    0    0 0.71085543E+02 -.42746658E+02 0.96561606E+02 0.12729723E+03 0.10565837E+00 0.0000E+00 0.9000E+01
       13  1    4    4    0    0 0.21867097E+02 0.14206592E+02 -.13455848E+02 0.29343964E+02 0.10565837E+00 0.0000E+00 0.9000E+01
      -24  1    3    3    0    0 0.74288475E+02 0.43590010E+02 -.23070485E+01 0.11786180E+03 0.80419002E+02 0.0000E+00 0.9000E+01
#aMCatNLO 1  0  0  1  2 0.15202138D+03 0.00000000D+00  -5  7  0 0.00000000D+00 0.00000000D+00 0.00000000D+00 0.00000000D+00 0.00000000D+00
  <mgrwgt>
 0.7409622814D-03    3    2    0
 0.245882965668308D+03 0.000000000000000D+00 0.000000000000000D+00 0.245882965668308D+03
 0.245882965668308D+03 0.000000000000000D+00 0.000000000000000D+00 -.245882965668308D+03
 0.211150832224024D+03 -.167241114061551D+03 -.150499441981558D+02 -.996060587595504D+02
 0.134140467731992D+03 0.710856116123690D+02 -.427467355398428D+02 0.105419246372472D+03
 0.284984477578185D+02 0.218670301099528D+02 0.142066695611971D+02 -.114963063091795D+02
 0.117976183622782D+03 0.742884723392291D+02 0.435900101768015D+02 0.568311869625840D+01
 0.000000000000000D+00 0.000000000000000D+00 0.000000000000000D+00 -.000000000000000D+00
 0.279433946757893D+03 0.000000000000000D+00 0.000000000000000D+00 0.279433946757893D+03
 0.519146748823392D+03 0.000000000000000D+00 0.000000000000000D+00 -.519146748823392D+03
 0.272833404456338D+03 -.240303921828321D+03 -.174215052501856D+02 -.996060587595504D+02
 0.118869039012791D+03 0.328910103145009D+02 -.439865021407238D+02 0.105419246372472D+03
 0.229303358781736D+02 0.141032827651050D+02 0.139546644523925D+02 -.114963063091795D+02
 0.100094558574358D+03 0.413682664540338D+02 0.425214462865203D+02 0.568311869625840D+01
 0.283853357659624D+03 0.151941362294682D+03 0.493189665199667D+01 -.239712802065498D+03
0.717812099435D-05 0.000000000000D+00 0.000000000000D+00 0.678778542342D-06 0.000000000000D+00  7 2 -2 24 -13 13 -24 21 0 0.35348917D-01 0.40481264D-01 0.42651599D+05 0.42651599D+05 0.42651599D+05 0.11534176D+01  1  2  2  1  7  1        2 0.730204245638D-03 0.100000000000D+01
-.384029470802D-06 0.000000000000D+00 -.275658746610D-07 0.678778542342D-06 0.000000000000D+00  7 2 -2 24 -13 13 -24 21 2 0.35348917D-01 0.40481264D-01 0.42651599D+05 0.42651599D+05 0.42651599D+05 0.11534176D+01  1  2  3  1  7  1        2 -.519722221340D-04 0.100000000000D+01
0.463521988034D-06 0.000000000000D+00 0.000000000000D+00 0.678778542342D-06 0.000000000000D+00  7 2 -2 24 -13 13 -24 21 2 0.35348917D-01 0.40481264D-01 0.42651599D+05 0.42651599D+05 0.42651599D+05 0.11534176D+01  1  2 15  1  7  1        2 0.627302578518D-04 0.100000000000D+01
  </mgrwgt>
  </event>
  <event>
  8     66 0.26993063E-05 0.14804528E+03 0.75467711E-02 0.10018944E+00
        2 -1    0    0  501    0 0.00000000E+00 0.00000000E+00 0.12970632E+03 0.12970671E+03 0.32000000E+00 0.0000E+00 0.9000E+01
       -2 -1    0    0    0  501 0.00000000E+00 0.00000000E+00 -.12111491E+04 0.12111492E+04 0.32000000E+00 0.0000E+00 0.9000E+01
       25  2    1    2    0    0 0.84840671E+01 0.26700395E+03 -.27701304E+03 0.48832339E+03 0.30060010E+03 0.0000E+00 0.0000E+00
       23  2    1    2    0    0 -.84840671E+01 -.26700395E+03 -.80442976E+03 0.85253249E+03 0.91330806E+02 0.0000E+00 0.0000E+00
       24  1    3    3    0    0 -.55859377E+02 0.21855809E+03 -.65748612E+02 0.24835057E+03 0.80419002E+02 0.0000E+00 0.9000E+01
      -11  1    4    4    0    0 0.10276737E+02 -.13596017E+03 -.27693997E+03 0.30868516E+03 0.51099893E-03 0.0000E+00 0.9000E+01
       11  1    4    4    0    0 -.18760804E+02 -.13104377E+03 -.52748979E+03 0.54384733E+03 0.51099893E-03 0.0000E+00 0.9000E+01
      -24  1    3    3    0    0 0.64343444E+02 0.48445855E+02 -.21126443E+03 0.23997282E+03 0.80419002E+02 0.0000E+00 0.9000E+01
#aMCatNLO 1  0  0  1  2 0.72354578D+01 0.00000000D+00  -5  7  0 0.00000000D+00 0.00000000D+00 0.00000000D+00 0.00000000D+00 0.00000000D+00
  <mgrwgt>
 0.5583655060D-03   11    2    0
 0.396350838823886D+03 0.000000000000000D+00 0.000000000000000D+00 0.396350838823886D+03
 0.396350838823886D+03 0.000000000000000D+00 0.000000000000000D+00 -.396350838823886D+03
 0.330387791765315D+03 -.558593765409187D+02 0.218558090579007D+03 0.227598260292360D+03
 0.144326139008808D+03 0.102767369143909D+02 -.135960174296078D+03 -.473207574428220D+02
 0.200290795830462D+03 -.187608039748335D+02 -.131043771307373D+03 -.150306237828504D+03
 0.117696951043188D+03 0.643434436013614D+02 0.484458550244435D+02 -.299712650210338D+02
 0.000000000000000D+00 0.000000000000000D+00 0.000000000000000D+00 0.000000000000000D+00
 0.401855209624257D+03 0.000000000000000D+00 0.000000000000000D+00 0.401855209624257D+03
 0.398752242449842D+03 0.000000000000000D+00 0.000000000000000D+00 -.398752242449842D+03
 0.329684934663477D+03 -.583358594917863D+02 0.216843029860164D+03 0.227598260292360D+03
 0.144961578968050D+03 0.919137757021509D+01 -.136711827836181D+03 -.473207574428220D+02
 0.201120910586437D+03 -.202668338521752D+02 -.132086755545615D+03 -.150306237828504D+03
 0.116967273896867D+03 0.634630225068757D+02 0.478361291893985D+02 -.299712650210338D+02
 0.787275395926934D+01 0.594829326687074D+01 0.411942433223304D+01 0.310296717441509D+01
0.671758888818D-04 0.000000000000D+00 0.000000000000D+00 0.147545029266D-05 0.000000000000D+00  7 2 -2 24 -11 11 -24 21 0 0.19954852D-01 0.18633067D+00 0.96731621D+05 0.96731621D+05 0.96731621D+05 0.11229082D+01  1  2  2  1  7  1        2 0.379092831413D-03 0.100000000000D+01
-.346526262556D-05 0.000000000000D+00 -.257973101124D-06 0.147545029266D-05 0.000000000000D+00  7 2 -2 24 -11 11 -24 21 2 0.19954852D-01 0.18633067D+00 0.96731621D+05 0.96731621D+05 0.96731621D+05 0.11229082D+01  1  2  3  1  7  1        2 -.246579431090D-04 0.100000000000D+01
0.420209688851D-05 0.000000000000D+00 0.000000000000D+00 0.147545029266D-05 0.000000000000D+00  7 2 -2 24 -11 11 -24 21 2 0.19954852D-01 0.18633067D+00 0.96731621D+05 0.96731621D+05 0.96731621D+05 0.11229082D+01  1  2 15  1  7  1        2 0.299010716392D-04 0.100000000000D+01
0.509179401299D-04 0.000000000000D+00 0.000000000000D+00 0.147545029266D-05 0.000000000000D+00  7 2 -2 24 -11 11 -24 21 2 0.20291822D-01 0.18633067D+00 0.99057936D+05 0.99057936D+05 0.99057936D+05 0.11220595D+01  1  2 12  1  7  1        2 0.354448227584D-03 0.100000000000D+01
-.726053371409D-04 0.000000000000D+00 0.000000000000D+00 0.147545029266D-05 0.000000000000D+00  7 2 -2 24 -11 11 -24 21 2 0.19954852D-01 0.18633067D+00 0.96731621D+05 0.96731621D+05 0.96731621D+05 0.11229082D+01  1  2  4  1  7  1        2 -.516641439939D-03 0.100000000000D+01
-.400363510877D-02 0.000000000000D+00 -.481604774874D-03 0.147545029266D-05 0.000000000000D+00  7 2 -2 24 -11 11 -24 21 2 0.20352772D-01 0.18633067D+00 0.96731621D+05 0.96731621D+05 0.96731621D+05 0.11229082D+01  1  2  5  1  7  1        2 -.278309531692D-01 0.100000000000D+01
0.401245599667D-02 0.000000000000D+00 0.481510911540D-03 0.147545029266D-05 0.000000000000D+00  7 2 -2 24 -11 11 -24 21 2 0.19954852D-01 0.18633067D+00 0.96731621D+05 0.96731621D+05 0.96731621D+05 0.11229082D+01  1  2  6  1  7  1        2 0.285516344313D-01 0.100000000000D+01
0.243226229841D-04 0.000000000000D+00 0.000000000000D+00 0.147545029266D-05 0.189260750687D-06  7 2 -2 24 -11 11 -24 21 2 0.20231977D-01 0.18745961D+00 0.99057936D+05 0.99057936D+05 0.99057936D+05 0.11220595D+01  1  2 11  1  7  1        2 0.166871344990D-03 0.100000000000D+01
0.276739071536D-05 0.000000000000D+00 0.000000000000D+00 0.147545029266D-05 0.000000000000D+00  7 21 -2 24 -11 11 -24 -2 2 0.20291822D-01 0.18633067D+00 0.99057936D+05 0.99057936D+05 0.99057936D+05 0.11220595D+01  1  2 12  3  7  1        2 0.133392089349D-03 0.100000000000D+01
-.143239773908D-04 0.000000000000D+00 -.173132019410D-05 0.147545029266D-05 0.000000000000D+00  7 21 -2 24 -11 11 -24 -2 2 0.20352772D-01 0.18633067D+00 0.96731621D+05 0.96731621D+05 0.96731621D+05 0.11229082D+01  1  2  5  3  7  1        2 -.688500535648D-03 0.100000000000D+01
0.793833870837D-07 0.000000000000D+00 0.000000000000D+00 0.147545029266D-05 0.478901426074D-09  7 21 -2 24 -11 11 -24 -2 2 0.20231977D-01 0.18745961D+00 0.99057936D+05 0.99057936D+05 0.99057936D+05 0.11220595D+01  1  2 11  3  7  1        2 0.377859757944D-05 0.100000000000D+01
  </mgrwgt>
  </event>
  <event>
  9     66 -.26993063E-05 0.18378707E+03 0.75467711E-02 0.10492218E+00
        2 -1    0    0  502    0 0.00000000E+00 0.00000000E+00 0.27488110E+03 0.27488128E+03 0.32000000E+00 0.0000E+00 0.9000E+01
       -2 -1    0    0    0  501 0.00000000E+00 0.00000000E+00 -.31562788E+03 0.31562804E+03 0.32000000E+00 0.0000E+00 0.9000E+01
       25  2    1    2    0    0 0.65347522E+02 0.38088399E+02 -.16655264E+03 0.35183659E+03 0.30054647E+03 0.0000E+00 0.0000E+00
       23  2    1    2    0    0 -.32237116E+01 -.71999367E+02 0.12652414E+03 0.16788855E+03 0.83569765E+02 0.0000E+00 0.0000E+00
       24  1    3    3    0    0 0.12954488E+03 0.92349443E+02 -.45562174E+02 0.18399300E+03 0.80419002E+02 0.0000E+00 0.9000E+01
      -11  1    4    4    0    0 0.10636813E+02 -.22947005E+02 -.59183888E+01 0.25975646E+02 0.51099893E-03 0.0000E+00 0.9000E+01
       11  1    4    4    0    0 -.13860525E+02 -.49052362E+02 0.13244253E+03 0.14191291E+03 0.51099893E-03 0.0000E+00 0.9000E+01
      -24  1    3    3    0    0 -.64197363E+02 -.54261044E+02 -.12099046E+03 0.16784359E+03 0.80419002E+02 0.0000E+00 0.9000E+01
       21  1    1    2  502  501 -.62123810E+02 0.33910969E+02 -.71829083E+00 0.70784179E+02 0.75000000E+00 0.0000E+00 0.9000E+01
#aMCatNLO 2  0  0  1  2 0.70776561D+02 0.00000000D+00  -5  7  0 0.00000000D+00 0.00000000D+00 0.00000000D+00 0.00000000D+00 0.00000000D+00
  <mgrwgt>
 -.6842685215D-04    2    2    0
 0.256662531915441D+03 0.000000000000000D+00 0.000000000000000D+00 0.256662531915441D+03
 0.256662531915441D+03 0.000000000000000D+00 0.000000000000000D+00 -.256662531915441D+03
 0.173157024401488D+03 0.108214020869089D+03 0.103993130825636D+03 -.314848149690244D+02
 0.230347946302869D+02 0.770796962863632D+01 -.213482637240104D+02 -.392945337593122D+01
 0.152446941012956D+03 -.322303608473271D+02 -.390249839045486D+02 0.143799597687575D+03
 0.164686303786151D+03 -.836916296503979D+02 -.436198831970768D+02 -.108385329342619D+03
 0.000000000000000D+00 -.000000000000000D+00 0.000000000000000D+00 0.000000000000000D+00
 0.296932230774574D+03 0.000000000000000D+00 0.000000000000000D+00 0.296932230774574D+03
 0.292184755029541D+03 0.000000000000000D+00 0.000000000000000D+00 -.292184755029541D+03
 0.181021563010967D+03 0.129544884599091D+03 0.923494429931096D+02 -.314848149690244D+02
 0.255958482224738D+02 0.106368130219458D+02 -.229470052758626D+02 -.392945337593122D+01
 0.152566617150108D+03 -.138605246228614D+02 -.490523621316884D+02 0.143799597687575D+03
 0.158997351805821D+03 -.641973626493812D+02 -.542610443969627D+02 -.108385329342619D+03
 0.709356056147449D+02 -.621238103487941D+02 0.339109688114040D+02 0.474747574503265D+01
-.474072051529D-05 0.000000000000D+00 0.000000000000D+00 0.204371321414D-07 0.000000000000D+00  7 2 -2 24 -11 11 -24 21 2 0.44461673D-01 0.42654439D-01 0.48760359D+05 0.48760359D+05 0.48760359D+05 0.11482557D+01  1  2 13  1  7  1        2 -.449292142838D-03 0.100000000000D+01
0.486922923763D-05 0.000000000000D+00 0.000000000000D+00 0.204371321414D-07 0.289972825708D-10  7 2 -2 24 -11 11 -24 21 2 0.42289141D-01 0.48557835D-01 0.48760359D+05 0.48760359D+05 0.48760359D+05 0.11482557D+01  1  2  1  1  7  1        2 0.380865290689D-03 0.100000000000D+01
  </mgrwgt>
  </event>
  <event>
  8     66 0.26993063E-05 0.32156201E+03 0.75467711E-02 0.98775989E-01
        2 -1    0    0  501    0 0.00000000E+00 0.00000000E+00 0.10963352E+04 0.10963353E+04 0.32000000E+00 0.0000E+00 0.9000E+01
       -2 -1    0    0    0  501 0.00000000E+00 0.00000000E+00 -.10425440E+03 0.10425489E+03 0.32000000E+00 0.0000E+00 0.9000E+01
       25  2    1    2    0    0 0.17501537E+03 -.17698934E+03 0.73379605E+03 0.83089010E+03 0.29994352E+03 0.0000E+00 0.0000E+00
       23  2    1    2    0    0 -.17501537E+03 0.17698934E+03 0.25828477E+03 0.36970004E+03 0.89506955E+02 0.0000E+00 0.0000E+00
       24  1    3    3    0    0 0.31018614E+02 0.53300442E+02 0.25757245E+03 0.27679212E+03 0.80419002E+02 0.0000E+00 0.9000E+01
      -11  1    4    4    0    0 -.17934705E+03 0.15791131E+03 0.21198000E+03 0.31943210E+03 0.51099893E-03 0.0000E+00 0.9000E+01
       11  1    4    4    0    0 0.43316807E+01 0.19078031E+02 0.46304767E+02 0.50267944E+02 0.51099893E-03 0.0000E+00 0.9000E+01
      -24  1    3    3    0    0 0.14399675E+03 -.23028979E+03 0.47622360E+03 0.55409799E+03 0.80419002E+02 0.0000E+00 0.9000E+01
#aMCatNLO 1  0  0  1  2 0.60020680D+02 0.00000000D+00  -5  7  0 0.00000000D+00 0.00000000D+00 0.00000000D+00 0.00000000D+00 0.00000000D+00
  <mgrwgt>
 0.3384870343D-03    4    2    0
 0.338080004013073D+03 0.000000000000000D+00 0.000000000000000D+00 0.338080004013073D+03
 0.338080004013073D+03 0.000000000000000D+00 0.000000000000000D+00 -.338080004013073D+03
 0.113554777298966D+03 0.310186139171570D+02 0.533004419613607D+02 0.512287026034167D+02
 0.256160876359761D+03 -.179347046521047D+03 0.157911313507890D+03 -.922878569899134D+02
 0.213161479510584D+02 0.433168073586000D+01 0.190780305109773D+02 0.846424581969411D+01
 0.285128206416361D+03 0.143996751868030D+03 -.230289785980228D+03 0.325949085668026D+02
 0.000000000000000D+00 0.000000000000000D+00 0.000000000000000D+00 -.000000000000000D+00
 0.361480274078012D+03 0.000000000000000D+00 0.000000000000000D+00 0.361480274078012D+03
 0.380215107416046D+03 0.000000000000000D+00 0.000000000000000D+00 -.380215107416046D+03
 0.108777942427495D+03 0.288391598469887D+02 0.436960832716092D+02 0.512287026034167D+02
 0.247021417350773D+03 -.184279576017440D+03 0.136174777198373D+03 -.922878569899134D+02
 0.196633620480755D+02 0.392997216156198D+01 0.173077921338002D+02 0.846424581969411D+01
 0.303355986316979D+03 0.138228036086294D+03 -.255711205181206D+03 0.325949085668026D+02
 0.628766733507347D+02 0.132824079225959D+02 0.585325525774236D+02 -.187348333380335D+02
0.128186099926D-04 0.000000000000D+00 0.000000000000D+00 0.882143897061D-06 0.000000000000D+00  7 2 -2 24 -11 11 -24 21 0 0.16866700D+00 0.16039179D-01 0.10340213D+06 0.10340213D+06 0.10340213D+06 0.11205317D+01  1  2  2  1  7  1        2 0.102612211084D-02 0.100000000000D+01
-.709972350934D-06 0.000000000000D+00 -.492268375892D-07 0.882143897061D-06 0.000000000000D+00  7 2 -2 24 -11 11 -24 21 2 0.16866700D+00 0.16039179D-01 0.10340213D+06 0.10340213D+06 0.10340213D+06 0.11205317D+01  1  2  3  1  7  1        2 -.713588474202D-04 0.100000000000D+01
0.822999299948D-06 0.000000000000D+00 0.000000000000D+00 0.882143897061D-06 0.000000000000D+00  7 2 -2 24 -11 11 -24 21 2 0.16866700D+00 0.16039179D-01 0.10340213D+06 0.10340213D+06 0.10340213D+06 0.11205317D+01  1  2 15  1  7  1        2 0.827191106734D-04 0.100000000000D+01
-.695453167467D-05 0.000000000000D+00 0.000000000000D+00 0.882143897061D-06 0.000000000000D+00  7 2 -2 24 -11 11 -24 21 2 0.16866700D+00 0.16039179D-01 0.10340213D+06 0.10340213D+06 0.10340213D+06 0.11205317D+01  1  2  4  1  7  1        2 -.698995339746D-03 0.100000000000D+01
  </mgrwgt>
  </event>
  <event>
  8     66 0.26993063E-05 0.27390247E+03 0.75467711E-02 0.95707722E-01
        2 -1    0    0  501    0 0.00000000E+00 0.00000000E+00 0.39178446E+03 0.39178459E+03 0.32000000E+00 0.0000E+00 0.9000E+01
       -2 -1    0    0    0  501 0.00000000E+00 0.00000000E+00 -.30591230E+03 0.30591247E+03 0.32000000E+00 0.0000E+00 0.9000E+01
       25  2    1    2    0    0 -.20144251E+03 -.12462600E+03 -.84889180E+02 0.39186635E+03 0.30040362E+03 0.0000E+00 0.0000E+00
       23  2    1    2    0    0 0.20144251E+03 0.12462600E+03 0.17076133E+03 0.30583071E+03 0.90896996E+02 0.0000E+00 0.0000E+00
       24  1    3    3    0    0 -.15155489E+03 -.70507872E+02 -.17150491E+03 0.25262897E+03 0.80419002E+02 0.0000E+00 0.9000E+01
      -13  1    4    4    0    0 0.51699167E+02 -.91455946E+01 0.28398404E+02 0.59690253E+02 0.10565837E+00 0.0000E+00 0.9000E+01
       13  1    4    4    0    0 0.14974335E+03 0.13377160E+03 0.14236293E+03 0.24614046E+03 0.10565837E+00 0.0000E+00 0.9000E+01
      -24  1    3    3    0    0 -.49887621E+02 -.54118132E+02 0.86615729E+02 0.13923738E+03 0.80419002E+02 0.0000E+00 0.9000E+01
#aMCatNLO 1  0  0  2  2 0.32122534D+03 0.00000000D+00  -5  7  0 0.00000000D+00 0.00000000D+00 0.00000000D+00 0.00000000D+00 0.00000000D+00
  <mgrwgt>
 0.9412238557D-03    3    2    0
 0.346196170896423D+03 0.000000000000000D+00 0.000000000000000D+00 0.346196170896423D+03
 0.346196170896423D+03 0.000000000000000D+00 0.000000000000000D+00 -.346196170896423D+03
 0.275834914245422D+03 -.151554892091248D+03 -.705078718490263D+02 -.204150529396669D+03
 0.566252929185877D+02 0.516990346171609D+02 -.914578738511156D+01 0.212129250900432D+02
 0.230370289033739D+03 0.149743479000264D+03 0.133771791451252D+03 0.112926827540264D+03
 0.129561845595098D+03 -.498876215261774D+02 -.541181322171140D+02 0.700107767663614D+02
 0.000000000000000D+00 -.000000000000000D+00 -.000000000000000D+00 0.000000000000000D+00
 0.105744033442050D+04 0.000000000000000D+00 0.000000000000000D+00 0.105744033442050D+04
 0.419810470001008D+03 0.000000000000000D+00 0.000000000000000D+00 -.419810470001008D+03
 0.226773577242584D+03 -.475780291013689D+02 -.319050446625106D+02 -.204150529396669D+03
 0.834310181739357D+02 0.806731091024955D+02 0.161123257187138D+01 0.212129250900432D+02
 0.340683217020882D+03 0.267879867788969D+03 0.177631535530022D+03 0.112926827540264D+03
 0.112389907022313D+03 0.166017952896027D+00 -.355350365234604D+02 0.700107767663614D+02
 0.713973084961796D+03 -.301140965742991D+03 -.111802686915922D+03 0.637629864419495D+03
0.216490352995D-04 0.000000000000D+00 0.000000000000D+00 0.119029192927D-05 0.000000000000D+00  7 2 -2 24 -13 13 -24 21 0 0.60274555D-01 0.47063454D-01 0.75022563D+05 0.75022563D+05 0.75022563D+05 0.11321102D+01  1  2  2  2  7  2       -2 0.926845010726D-03 0.100000000000D+01
-.112249257302D-05 0.000000000000D+00 -.831379958719D-07 0.119029192927D-05 0.000000000000D+00  7 2 -2 24 -13 13 -24 21 2 0.60274555D-01 0.47063454D-01 0.75022563D+05 0.75022563D+05 0.75022563D+05 0.11321102D+01  1  2  3  2  7  2       -2 -.615927282992D-04 0.100000000000D+01
0.138453887568D-05 0.000000000000D+00 0.000000000000D+00 0.119029192927D-05 0.000000000000D+00  7 2 -2 24 -13 13 -24 21 2 0.60274555D-01 0.47063454D-01 0.75022563D+05 0.75022563D+05 0.75022563D+05 0.11321102D+01  1  2 15  2  7  2       -2 0.759715732997D-04 0.100000000000D+01
  </mgrwgt>
  </event>
  <event>
  8     66 0.26993063E-05 0.15138144E+03 0.75467711E-02 0.10094306E+00
        2 -1    0    0  501    0 0.00000000E+00 0.00000000E+00 0.18935187E+04 0.18935187E+04 0.32000000E+00 0.0000E+00 0.9000E+01
       -2 -1    0    0    0  501 0.00000000E+00 0.00000000E+00 -.86864520E+02 0.86865109E+02 0.32000000E+00 0.0000E+00 0.9000E+01
       25  2    1    2    0    0 -.15182483E+03 -.49648321E+02 0.27474755E+03 0.43711386E+03 0.30011094E+03 0.0000E+00 0.0000E+00
       23  2    1    2    0    0 0.15182483E+03 0.49648321E+02 0.15319066E+04 0.15432700E+04 0.97100766E+02 0.0000E+00 0.0000E+00
       24  1    3    3    0    0 -.89225298E+02 0.10168729E+03 0.13355262E+03 0.20640974E+03 0.80419002E+02 0.0000E+00 0.9000E+01
      -11  1    4    4    0    0 0.20015117E+02 -.26770455E+02 0.34749903E+03 0.34910290E+03 0.51099893E-03 0.0000E+00 0.9000E+01
       11  1    4    4    0    0 0.13180971E+03 0.76418776E+02 0.11844076E+04 0.11941671E+04 0.51099893E-03 0.0000E+00 0.9000E+01
      -24  1    3    3    0    0 -.62599534E+02 -.15133561E+03 0.14119492E+03 0.23070412E+03 0.80419002E+02 0.0000E+00 0.9000E+01
#aMCatNLO 1  0  0  1  2 0.67978968D+02 0.00000000D+00  -5  7  0 0.00000000D+00 0.00000000D+00 0.00000000D+00 0.00000000D+00 0.00000000D+00
  <mgrwgt>
 0.1615962031D-02    9    2    0
 0.405561590059714D+03 0.000000000000000D+00 0.000000000000000D+00 0.405561590059714D+03
 0.405561590059714D+03 0.000000000000000D+00 0.000000000000000D+00 -.405561590059714D+03
 0.206487869411524D+03 -.892252980580595D+02 0.101687293729901D+03 -.133673350897176D+03
 0.783446655889973D+02 0.200151172480773D+02 -.267704546918886D+02 0.708563650167512D+02
 0.277509298027110D+03 0.131809714906212D+03 0.764187758030536D+02 0.231943485040225D+03
 0.248781347091797D+03 -.625995340962296D+02 -.151335614841066D+03 -.169126499159801D+03
 0.000000000000000D+00 0.000000000000000D+00 -.000000000000000D+00 0.000000000000000D+00
 0.450357594868632D+03 0.000000000000000D+00 0.000000000000000D+00 0.450357594868632D+03
 0.433618708527956D+03 0.000000000000000D+00 0.000000000000000D+00 -.433618708527956D+03
 0.218435838601508D+03 -.989429528434869D+02 0.116570695175526D+03 -.133673350897176D+03
 0.758236476423207D+02 0.164894150606446D+02 -.213705467725447D+02 0.708563650167512D+02
 0.277805538744993D+03 0.119110122534181D+03 0.958692641813990D+02 0.231943485040225D+03
 0.241901776184698D+03 -.738210524796898D+02 -.134148920456640D+03 -.169126499159801D+03
 0.700095022230690D+02 0.371644677283511D+02 -.569204921277407D+02 0.167388863406758D+02
0.217496761396D-04 0.000000000000D+00 0.000000000000D+00 0.204453148470D-06 0.000000000000D+00  7 2 -2 24 -11 11 -24 21 0 0.29131062D+00 0.13363820D-01 0.69068411D+05 0.69068411D+05 0.69068411D+05 0.11351546D+01  1  2  2  1  7  1        2 0.862599471790D-03 0.100000000000D+01
-.931790767496D-06 0.000000000000D+00 -.835244831975D-07 0.204453148470D-06 0.000000000000D+00  7 2 -2 24 -11 11 -24 21 2 0.29131062D+00 0.13363820D-01 0.69068411D+05 0.69068411D+05 0.69068411D+05 0.11351546D+01  1  2  3  1  7  1        2 -.476194982449D-04 0.100000000000D+01
0.134102179533D-05 0.000000000000D+00 0.000000000000D+00 0.204453148470D-06 0.000000000000D+00  7 2 -2 24 -11 11 -24 21 2 0.29131062D+00 0.13363820D-01 0.69068411D+05 0.69068411D+05 0.69068411D+05 0.11351546D+01  1  2 15  1  7  1        2 0.685333953251D-04 0.100000000000D+01
0.256238308187D-04 0.000000000000D+00 0.000000000000D+00 0.204453148470D-06 0.000000000000D+00  7 2 -2 24 -11 11 -24 21 2 0.33265082D+00 0.13363820D-01 0.88085046D+05 0.88085046D+05 0.88085046D+05 0.11262717D+01  1  2 12  1  7  1        2 0.918290791354D-03 0.100000000000D+01
-.241596280840D-04 0.000000000000D+00 0.000000000000D+00 0.204453148470D-06 0.000000000000D+00  7 2 -2 24 -11 11 -24 21 2 0.29131062D+00 0.13363820D-01 0.69068411D+05 0.69068411D+05 0.69068411D+05 0.11351546D+01  1  2  4  1  7  1        2 -.123468637733D-02 0.100000000000D+01
-.648164564474D-04 0.000000000000D+00 -.175013106280D-04 0.204453148470D-06 0.000000000000D+00  7 2 -2 24 -11 11 -24 21 2 0.33372871D+00 0.13363820D-01 0.69068411D+05 0.69068411D+05 0.69068411D+05 0.11351546D+01  1  2  5  1  7  1        2 -.235696618645D-02 0.100000000000D+01
0.667384371348D-04 0.000000000000D+00 0.173408410980D-04 0.204453148470D-06 0.000000000000D+00  7 2 -2 24 -11 11 -24 21 2 0.29131062D+00 0.13363820D-01 0.69068411D+05 0.69068411D+05 0.69068411D+05 0.11351546D+01  1  2  6  1  7  1        2 0.341069154242D-02 0.100000000000D+01
0.528741571430D-06 0.000000000000D+00 0.000000000000D+00 0.204453148470D-06 0.000000000000D+00  7 21 -2 24 -11 11 -24 -2 2 0.33265082D+00 0.13363820D-01 0.88085046D+05 0.88085046D+05 0.88085046D+05 0.11262717D+01  1  2 12  3  7  1        2 0.338832776676D-05 0.100000000000D+01
-.126264949684D-05 0.000000000000D+00 -.368386473954D-06 0.204453148470D-06 0.000000000000D+00  7 21 -2 24 -11 11 -24 -2 2 0.33372871D+00 0.13363820D-01 0.69068411D+05 0.69068411D+05 0.69068411D+05 0.11351546D+01  1  2  5  3  7  1        2 -.826943547482D-05 0.100000000000D+01
  </mgrwgt>
  </event>
  <event>
  8     66 0.26993063E-05 0.18083965E+03 0.75467711E-02 0.91778003E-01
        2 -1    0    0  501    0 0.00000000E+00 0.00000000E+00 0.15968137E+04 0.15968137E+04 0.32000000E+00 0.0000E+00 0.9000E+01
       -2 -1    0    0    0  501 0.00000000E+00 0.00000000E+00 -.15089384E+03 0.15089418E+03 0.32000000E+00 0.0000E+00 0.9000E+01
       25  2    1    2    0    0 -.35480995E+03 0.21196025E+03 0.10497469E+04 0.11678100E+04 0.30165284E+03 0.0000E+00 0.0000E+00
       23  2    1    2    0    0 0.35480995E+03 -.21196025E+03 0.39617294E+03 0.57989788E+03 0.92256695E+02 0.0000E+00 0.0000E+00
       24  1    3    3    0    0 -.14334778E+03 -.28505852E+02 0.49378747E+03 0.52120480E+03 0.80419002E+02 0.0000E+00 0.9000E+01
      -11  1    4    4    0    0 0.19904437E+03 -.12965540E+03 0.16492593E+03 0.28918808E+03 0.51099893E-03 0.0000E+00 0.9000E+01
       11  1    4    4    0    0 0.15576558E+03 -.82304854E+02 0.23124701E+03 0.29070980E+03 0.51099893E-03 0.0000E+00 0.9000E+01
      -24  1    3    3    0    0 -.21146217E+03 0.24046611E+03 0.55595946E+03 0.64660524E+03 0.80419002E+02 0.0000E+00 0.9000E+01
#aMCatNLO 1  0  0  2  1 0.32500502D+03 0.00000000D+00  -5  7  0 0.00000000D+00 0.00000000D+00 0.00000000D+00 0.00000000D+00 0.00000000D+00
  <mgrwgt>
 0.8177982058D-03    9    2    0
 0.490866247103621D+03 0.000000000000000D+00 0.000000000000000D+00 0.490866247103621D+03
 0.490866247103621D+03 0.000000000000000D+00 0.000000000000000D+00 -.490866247103621D+03
 0.200601132722657D+03 -.143347775536154D+03 -.285058522873011D+02 0.111411086205340D+03
 0.271913801952388D+03 0.199044366607589D+03 -.129655400259999D+03 -.132317546067806D+03
 0.176943476704908D+03 0.155765578490242D+03 -.823048538784994D+02 -.164921052039867D+02
 0.332274082827288D+03 -.211462169561677D+03 0.240466106425799D+03 0.373985650664531D+02
 0.000000000000000D+00 0.000000000000000D+00 0.000000000000000D+00 -.000000000000000D+00
 0.628034711927967D+03 0.000000000000000D+00 0.000000000000000D+00 0.628034711927967D+03
 0.755033015881504D+03 0.000000000000000D+00 0.000000000000000D+00 -.755033015881504D+03
 0.251415023924549D+03 -.194645057428875D+03 -.802693577255181D+02 0.111411086205340D+03
 0.270531816406887D+03 0.137484651568100D+03 -.191774610608917D+03 -.132317546067806D+03
 0.169443472045086D+03 0.116455680618923D+03 -.121972026039653D+03 -.164921052039867D+02
 0.342740700576090D+03 -.288066563269273D+03 0.163165481442058D+03 0.373985650664531D+02
 0.348936714856859D+03 0.228771288511125D+03 0.230850512932030D+03 -.126998303953537D+03
0.344449069166D-04 0.000000000000D+00 0.000000000000D+00 0.368543257992D-06 0.000000000000D+00  7 2 -2 24 -11 11 -24 21 0 0.24566368D+00 0.23214465D-01 0.20734482D+06 0.20734482D+06 0.20734482D+06 0.10966244D+01  1  2  2  2  7  2       -2 0.775647113039D-03 0.100000000000D+01
-.190048266562D-05 0.000000000000D+00 -.132277512112D-06 0.368543257992D-06 0.000000000000D+00  7 2 -2 24 -11 11 -24 21 2 0.24566368D+00 0.23214465D-01 0.20734482D+06 0.20734482D+06 0.20734482D+06 0.10966244D+01  1  2  3  2  7  2       -2 -.514658219078D-04 0.100000000000D+01
0.216899783391D-05 0.000000000000D+00 0.000000000000D+00 0.368543257992D-06 0.000000000000D+00  7 2 -2 24 -11 11 -24 21 2 0.24566368D+00 0.23214465D-01 0.20734482D+06 0.20734482D+06 0.20734482D+06 0.10966244D+01  1  2 15  2  7  2       -2 0.587373188179D-04 0.100000000000D+01
0.255017994880D-05 0.000000000000D+00 0.000000000000D+00 0.368543257992D-06 0.000000000000D+00  7 2 -2 24 -11 11 -24 21 2 0.24566368D+00 0.37542768D-01 0.41970014D+06 0.41970014D+06 0.41970014D+06 0.10739257D+01  1  2 12  2  7  2       -2 0.275216896504D-04 0.100000000000D+01
-.132328243459D-04 0.000000000000D+00 0.000000000000D+00 0.368543257992D-06 0.000000000000D+00  7 2 -2 24 -11 11 -24 21 2 0.24566368D+00 0.23214465D-01 0.20734482D+06 0.20734482D+06 0.20734482D+06 0.10966244D+01  1  2  4  2  7  2       -2 -.358350114653D-03 0.100000000000D+01
-.113844344483D-04 0.000000000000D+00 -.107857207825D-04 0.368543257992D-06 0.000000000000D+00  7 2 -2 24 -11 11 -24 21 2 0.24566368D+00 0.46245019D-01 0.20734482D+06 0.20734482D+06 0.20734482D+06 0.10966244D+01  1  2  5  2  7  2       -2 -.887623390615D-04 0.100000000000D+01
0.168033497397D-04 0.000000000000D+00 0.864910554906D-05 0.368543257992D-06 0.000000000000D+00  7 2 -2 24 -11 11 -24 21 2 0.24566368D+00 0.23214465D-01 0.20734482D+06 0.20734482D+06 0.20734482D+06 0.10966244D+01  1  2  6  2  7  2       -2 0.455041353863D-03 0.100000000000D+01
0.139410474560D-06 0.000000000000D+00 0.000000000000D+00 0.368543257992D-06 0.000000000000D+00  7 2 21 24 -11 11 -24 2 2 0.24566368D+00 0.37542768D-01 0.41970014D+06 0.41970014D+06 0.41970014D+06 0.10739257D+01  1  2 12  4  7  2       -2 0.164495152710D-04 0.100000000000D+01
-.204037308328D-06 0.000000000000D+00 -.804442563770D-06 0.368543257992D-06 0.000000000000D+00  7 2 21 24 -11 11 -24 2 2 0.24566368D+00 0.46245019D-01 0.20734482D+06 0.20734482D+06 0.20734482D+06 0.10966244D+01  1  2  5  4  7  2       -2 -.170205091753D-04 0.100000000000D+01
  </mgrwgt>
  </event>
  <event>
  8     66 0.26993063E-05 0.79336202E+02 0.75467711E-02 0.10936623E+00
        2 -1    0    0  501    0 0.00000000E+00 0.00000000E+00 0.79989696E+03 0.79989702E+03 0.32000000E+00 0.0000E+00 0.9000E+01
       -2 -1    0    0    0  501 0.00000000E+00 0.00000000E+00 -.12922141E+03 0.12922181E+03 0.32000000E+00 0.0000E+00 0.9000E+01
       25  2    1    2    0    0 -.22997833E+01 -.17705421E+02 0.55405661E+02 0.30557240E+03 0.29997655E+03 0.0000E+00 0.0000E+00
       23  2    1    2    0    0 0.22997833E+01 0.17705421E+02 0.61526988E+03 0.62354643E+03 0.99671214E+02 0.0000E+00 0.0000E+00
       24  1    3    3    0    0 -.14666755E+02 0.43317760E+02 0.14368880E+03 0.17089538E+03 0.80419002E+02 0.0000E+00 0.9000E+01
      -13  1    4    4    0    0 0.21813079E+02 0.52176297E+02 0.26024788E+03 0.26632151E+03 0.10565837E+00 0.0000E+00 0.9000E+01
       13  1    4    4    0    0 -.19513296E+02 -.34470876E+02 0.35502200E+03 0.35722492E+03 0.10565837E+00 0.0000E+00 0.9000E+01
      -24  1    3    3    0    0 0.12366972E+02 -.61023181E+02 -.88283141E+02 0.13467702E+03 0.80419002E+02 0.0000E+00 0.9000E+01
#aMCatNLO 1  0  0  1  2 0.39398026D+02 0.00000000D+00  -5  7  0 0.00000000D+00 0.00000000D+00 0.00000000D+00 0.00000000D+00 0.00000000D+00
  <mgrwgt>
 0.9037924514D-03    9    2    0
 0.321502764350586D+03 0.000000000000000D+00 0.000000000000000D+00 0.321502764350586D+03
 0.321502764350586D+03 0.000000000000000D+00 0.000000000000000D+00 -.321502764350586D+03
 0.970653312263948D+02 -.146667551877219D+02 0.433177593447416D+02 0.293755100267839D+02
 0.113377575862052D+03 0.218130935858882D+02 0.521763265140679D+02 0.982664470104927D+02
 0.145877192138393D+03 -.195133099069578D+02 -.344709030217224D+02 0.140396377330484D+03
 0.286685429474332D+03 0.123669715087915D+02 -.610231828370872D+02 -.268038334367761D+03
 0.000000000000000D+00 0.000000000000000D+00 -.000000000000000D+00 0.000000000000000D+00
 0.347867432981297D+03 0.000000000000000D+00 0.000000000000000D+00 0.347867432981297D+03
 0.337168774707323D+03 0.000000000000000D+00 0.000000000000000D+00 -.337168774707323D+03
 0.998683489829355D+02 -.184943844802409D+02 0.479740380577891D+02 0.293755100267839D+02
 0.115211095512864D+03 0.173702136602066D+02 0.575810524270527D+02 0.982664470104927D+02
 0.145278419778731D+03 -.251722492395834D+02 -.275868511088500D+02 0.140396377330484D+03
 0.283853525276578D+03 0.127790023664295D+01 -.475334212729544D+02 -.268038334367761D+03
 0.408248181375111D+02 0.250185198229749D+02 -.304348181030374D+02 0.106986582739749D+02
0.610520320847D-05 0.000000000000D+00 0.000000000000D+00 0.490153397343D-07 0.000000000000D+00  7 2 -2 24 -13 13 -24 21 0 0.12306111D+00 0.19880253D-01 0.21080450D+05 0.21080450D+05 0.21080450D+05 0.11818267D+01  1  2  2  1  7  1        2 0.531532750774D-03 0.100000000000D+01
-.785657723988D-07 0.000000000000D+00 -.234455878575D-07 0.490153397343D-07 0.000000000000D+00  7 2 -2 24 -13 13 -24 21 2 0.12306111D+00 0.19880253D-01 0.21080450D+05 0.21080450D+05 0.21080450D+05 0.11818267D+01  1  2  3  1  7  1        2 -.955368348371D-05 0.100000000000D+01
0.372351747253D-06 0.000000000000D+00 0.000000000000D+00 0.490153397343D-07 0.000000000000D+00  7 2 -2 24 -13 13 -24 21 2 0.12306111D+00 0.19880253D-01 0.21080450D+05 0.21080450D+05 0.21080450D+05 0.11818267D+01  1  2 15  1  7  1        2 0.452783779659D-04 0.100000000000D+01
0.108666257673D-04 0.000000000000D+00 0.000000000000D+00 0.490153397343D-07 0.000000000000D+00  7 2 -2 24 -13 13 -24 21 2 0.13595271D+00 0.19880253D-01 0.26530379D+05 0.26530379D+05 0.26530379D+05 0.11723210D+01  1  2 12  1  7  1        2 0.114725332564D-02 0.100000000000D+01
-.104057497917D-04 0.000000000000D+00 0.000000000000D+00 0.490153397343D-07 0.000000000000D+00  7 2 -2 24 -13 13 -24 21 2 0.12306111D+00 0.19880253D-01 0.21080450D+05 0.21080450D+05 0.21080450D+05 0.11818267D+01  1  2  4  1  7  1        2 -.126535050679D-02 0.100000000000D+01
-.245532646570D-04 0.000000000000D+00 -.721854865036D-05 0.490153397343D-07 0.000000000000D+00  7 2 -2 24 -13 13 -24 21 2 0.13776521D+00 0.19880253D-01 0.21080450D+05 0.21080450D+05 0.21080450D+05 0.11818267D+01  1  2  5  1  7  1        2 -.259291360319D-02 0.100000000000D+01
0.252527333611D-04 0.000000000000D+00 0.717281073818D-05 0.490153397343D-07 0.000000000000D+00  7 2 -2 24 -13 13 -24 21 2 0.12306111D+00 0.19880253D-01 0.21080450D+05 0.21080450D+05 0.21080450D+05 0.11818267D+01  1  2  6  1  7  1        2 0.307075987754D-02 0.100000000000D+01
0.175928546340D-06 0.000000000000D+00 0.000000000000D+00 0.490153397343D-07 0.000000000000D+00  7 21 -2 24 -13 13 -24 -2 2 0.13595271D+00 0.19880253D-01 0.26530379D+05 0.26530379D+05 0.26530379D+05 0.11723210D+01  1  2 12  3  7  1        2 0.175385260073D-04 0.100000000000D+01
-.412553191653D-06 0.000000000000D+00 -.130055148679D-06 0.490153397343D-07 0.000000000000D+00  7 21 -2 24 -13 13 -24 -2 2 0.13776521D+00 0.19880253D-01 0.21080450D+05 0.21080450D+05 0.21080450D+05 0.11818267D+01  1  2  5  3  7  1        2 -.407526131135D-04 0.100000000000D+01
  </mgrwgt>
  </event>
  <event>
  8     66 0.26993063E-05 0.11855801E+04 0.75467711E-02 0.81251470E-01
        2 -1    0    0  501    0 0.00000000E+00 0.00000000E+00 0.14697007E+04 0.14697008E+04 0.32000000E+00 0.0000E+00 0.9000E+01
       -2 -1    0    0    0  501 0.00000000E+00 0.00000000E+00 -.96288933E+03 0.96288938E+03 0.32000000E+00 0.0000E+00 0.9000E+01
       25  2    1    2    0    0 0.18502952E+03 0.11513598E+04 0.34176538E+03 0.12514480E+04 0.29908725E+03 0.0000E+00 0.0000E+00
       23  2    1    2    0    0 -.18502952E+03 -.11513598E+04 0.16504603E+03 0.11811422E+04 0.89394900E+02 0.0000E+00 0.0000E+00
       24  1    3    3    0    0 0.23048224E+03 0.66479057E+03 0.21744423E+03 0.74082236E+03 0.80419002E+02 0.0000E+00 0.9000E+01
      -13  1    4    4    0    0 -.18876589E+03 -.10892141E+04 0.17100972E+03 0.11185993E+04 0.10565837E+00 0.0000E+00 0.9000E+01
       13  1    4    4    0    0 0.37363713E+01 -.62145639E+02 -.59636925E+01 0.62542927E+02 0.10565837E+00 0.0000E+00 0.9000E+01
      -24  1    3    3    0    0 -.45452722E+02 0.48656920E+03 0.12432116E+03 0.51062560E+03 0.80419002E+02 0.0000E+00 0.9000E+01
#aMCatNLO 1  0  0  2  1 0.12725637D+04 0.00000000D+00  -5  7  0 0.00000000D+00 0.00000000D+00 0.00000000D+00 0.00000000D+00 0.00000000D+00
  <mgrwgt>
 0.2025406757D-02    5    2    0
 0.118960466570563D+04 0.000000000000000D+00 0.000000000000000D+00 0.118960466570563D+04
 0.118960466570563D+04 0.000000000000000D+00 0.000000000000000D+00 -.118960466570563D+04
 0.711124463636040D+03 0.230482239481574D+03 0.664790566320713D+03 0.645153240851989D+02
 0.110727009553882D+04 -.188766157720284D+03 -.108921556466220D+04 -.634338700668804D+02
 0.652150735240780D+02 0.373664025770822D+01 -.621442039540319D+02 -.194201248516849D+02
 0.495599698712319D+03 -.454527220189983D+02 0.486569202295521D+03 0.183386708333663D+02
 0.000000000000000D+00 -.000000000000000D+00 -.000000000000000D+00 -.000000000000000D+00
 0.182975506496791D+04 0.000000000000000D+00 0.000000000000000D+00 0.182975506496791D+04
 0.219133938725829D+04 0.000000000000000D+00 0.000000000000000D+00 -.219133938725829D+04
 0.970179915068124D+03 0.649025804493192D+03 0.713712217709188D+03 0.645153240851989D+02
 0.108778903840659D+04 0.357671410021567D+03 -.102534496568670D+04 -.634338700668804D+02
 0.720837925604985D+02 0.379157916421720D+02 -.581491585906221D+02 -.194201248516849D+02
 0.568105015747678D+03 0.219345710048899D+03 0.517520285204850D+03 0.183386708333663D+02
 0.132293669044331D+04 -.126395871620583D+04 -.147738378636714D+03 -.361584322290386D+03
0.432621611235D-02 0.000000000000D+00 0.000000000000D+00 0.295493626433D-05 0.000000000000D+00  7 2 -2 24 -13 13 -24 21 0 0.22610781D+00 0.14813683D+00 0.14056002D+07 0.14056002D+07 0.14056002D+07 0.10381608D+01  1  2  2  2  7  2       -2 0.201965629275D-02 0.100000000000D+01
-.240341983600D-03 0.000000000000D+00 -.166138089903D-04 0.295493626433D-05 0.000000000000D+00  7 2 -2 24 -13 13 -24 21 2 0.22610781D+00 0.14813683D+00 0.14056002D+07 0.14056002D+07 0.14056002D+07 0.10381608D+01  1  2  3  2  7  2       -2 -.120928367740D-03 0.100000000000D+01
0.273246544050D-03 0.000000000000D+00 0.000000000000D+00 0.295493626433D-05 0.000000000000D+00  7 2 -2 24 -13 13 -24 21 2 0.22610781D+00 0.14813683D+00 0.14056002D+07 0.14056002D+07 0.14056002D+07 0.10381608D+01  1  2 15  2  7  2       -2 0.137484338223D-03 0.100000000000D+01
-.599266269129D-03 0.000000000000D+00 -.114015271673D-02 0.295493626433D-05 0.000000000000D+00  7 2 -2 24 -13 13 -24 21 2 0.22610781D+00 0.34589479D+00 0.14056002D+07 0.14056002D+07 0.14056002D+07 0.10381608D+01  1  2  5  2  7  2       -2 -.133117231768D-04 0.100000000000D+01
0.166389450207D-04 0.000000000000D+00 -.105405617504D-03 0.295493626433D-05 0.000000000000D+00  7 2 21 24 -13 13 -24 2 2 0.22610781D+00 0.34589479D+00 0.14056002D+07 0.14056002D+07 0.14056002D+07 0.10381608D+01  1  2  5  4  7  2       -2 0.250621666897D-05 0.100000000000D+01
  </mgrwgt>
  </event>
  <event>
  8     66 0.26993063E-05 0.50300891E+03 0.75467711E-02 0.88526401E-01
        2 -1    0    0  501    0 0.00000000E+00 0.00000000E+00 0.16748978E+04 0.16748978E+04 0.32000000E+00 0.0000E+00 0.9000E+01
       -2 -1    0    0    0  501 0.00000000E+00 0.00000000E+00 -.20043044E+03 0.20043069E+03 0.32000000E+00 0.0000E+00 0.9000E+01
       25  2    1    2    0    0 0.47885141E+03 -.47435314E+02 0.39743764E+03 0.69208397E+03 0.29912332E+03 0.0000E+00 0.0000E+00
       23  2    1    2    0    0 -.47885141E+03 0.47435314E+02 0.10770297E+04 0.11832445E+04 0.92335647E+02 0.0000E+00 0.0000E+00
       24  1    3    3    0    0 0.10980318E+03 -.27150416E+02 -.61867699E+01 0.13892219E+03 0.80419002E+02 0.0000E+00 0.9000E+01
      -13  1    4    4    0    0 -.41157020E+03 0.71084771E+02 0.89176455E+03 0.98472692E+03 0.10565837E+00 0.0000E+00 0.9000E+01
       13  1    4    4    0    0 -.67281210E+02 -.23649457E+02 0.18526516E+03 0.19851762E+03 0.10565837E+00 0.0000E+00 0.9000E+01
      -24  1    3    3    0    0 0.36904823E+03 -.20284898E+02 0.40362441E+03 0.55316178E+03 0.80419002E+02 0.0000E+00 0.9000E+01
#aMCatNLO 1  0  0  2  1 0.61139387D+03 0.00000000D+00  -5  7  0 0.00000000D+00 0.00000000D+00 0.00000000D+00 0.00000000D+00 0.00000000D+00
  <mgrwgt>
 0.7362721257D-03    5    2    0
 0.579396896789381D+03 0.000000000000000D+00 0.000000000000000D+00 0.579396896789381D+03
 0.579396896789381D+03 0.000000000000000D+00 0.000000000000000D+00 -.579396896789381D+03
 0.232696218206966D+03 0.109803177545872D+03 -.271504158317455D+02 -.186779097156096D+03
 0.458933517958994D+03 -.411570647989792D+03 0.710848954916343D+02 0.190201244087479D+03
 0.855352964008039D+02 -.672807588629667D+02 -.236495811813698D+02 0.472258798450861D+02
 0.381628761011998D+03 0.369048229306887D+03 -.202848984785189D+02 -.506480267764688D+02
 0.000000000000000D+00 -.000000000000000D+00 -.000000000000000D+00 -.000000000000000D+00
 0.723019790921640D+03 0.000000000000000D+00 0.000000000000000D+00 0.723019790921640D+03
 0.203092153584026D+04 0.000000000000000D+00 0.000000000000000D+00 -.203092153584026D+04
 0.302414433086751D+03 0.218476697315572D+03 0.486700624659950D+02 -.186779097156096D+03
 0.362265404118101D+03 -.244796585321738D+03 0.187441568450660D+03 0.190201244087479D+03
 0.604582248763071D+02 -.376315082221909D+02 -.296358178135770D+01 0.472258798450861D+02
 0.585054868101499D+03 0.565368209530656D+03 0.116685679372585D+03 -.506480267764688D+02
 0.144374839657924D+04 -.501416813302299D+03 -.349833728507882D+03 -.130790174491862D+04
0.646038275638D-04 0.000000000000D+00 0.000000000000D+00 0.844565755801D-06 0.000000000000D+00  7 2 -2 24 -13 13 -24 21 0 0.25767660D+00 0.30835474D-01 0.25301796D+06 0.25301796D+06 0.25301796D+06 0.10900673D+01  1  2  2  2  7  2       -2 0.799603881950D-03 0.100000000000D+01
-.350187626954D-05 0.000000000000D+00 -.248095708424D-06 0.844565755801D-06 0.000000000000D+00  7 2 -2 24 -13 13 -24 21 2 0.25767660D+00 0.30835474D-01 0.25301796D+06 0.25301796D+06 0.25301796D+06 0.10900673D+01  1  2  3  2  7  2       -2 -.515019943534D-04 0.100000000000D+01
0.413874386186D-05 0.000000000000D+00 0.000000000000D+00 0.844565755801D-06 0.000000000000D+00  7 2 -2 24 -13 13 -24 21 2 0.25767660D+00 0.30835474D-01 0.25301796D+06 0.25301796D+06 0.25301796D+06 0.10900673D+01  1  2 15  2  7  2       -2 0.608683878576D-04 0.100000000000D+01
-.401319454394D-04 0.000000000000D+00 -.229692878475D-04 0.844565755801D-06 0.000000000000D+00  7 2 -2 24 -13 13 -24 21 2 0.25767660D+00 0.12587573D+00 0.25301796D+06 0.25301796D+06 0.25301796D+06 0.10900673D+01  1  2  5  2  7  2       -2 -.296464083256D-04 0.100000000000D+01
-.656367387092D-05 0.000000000000D+00 -.386573968238D-05 0.844565755801D-06 0.000000000000D+00  7 2 21 24 -13 13 -24 2 2 0.25767660D+00 0.12587573D+00 0.25301796D+06 0.25301796D+06 0.25301796D+06 0.10900673D+01  1  2  5  4  7  2       -2 -.430517414354D-04 0.100000000000D+01
  </mgrwgt>
  </event>
  <event>
  8     66 0.26993063E-05 0.16790482E+03 0.75467711E-02 0.10067351E+00
        2 -1    0    0  501    0 0.00000000E+00 0.00000000E+00 0.61315915E+03 0.61315923E+03 0.32000000E+00 0.0000E+00 0.9000E+01
       -2 -1    0    0    0  501 0.00000000E+00 0.00000000E+00 -.27042442E+03 0.27042461E+03 0.32000000E+00 0.0000E+00 0.9000E+01
       25  2    1    2    0    0 -.16803562E+03 -.62779454E+02 0.51217626E+03 0.62046735E+03 0.30079558E+03 0.0000E+00 0.0000E+00
       23  2    1    2    0    0 0.16803562E+03 0.62779454E+02 -.16944154E+03 0.26311649E+03 0.91337948E+02 0.0000E+00 0.0000E+00
       24  1    3    3    0    0 0.34782075E+02 -.33386526E+02 0.44968486E+02 0.10398958E+03 0.80419002E+02 0.0000E+00 0.9000E+01
      -13  1    4    4    0    0 -.11310649E+02 0.23078297E+01 -.58178612E+01 0.12927317E+02 0.10565837E+00 0.0000E+00 0.9000E+01
       13  1    4    4    0    0 0.17934627E+03 0.60471625E+02 -.16362367E+03 0.25018917E+03 0.10565837E+00 0.0000E+00 0.9000E+01
      -24  1    3    3    0    0 -.20281770E+03 -.29392928E+02 0.46720778E+03 0.51647777E+03 0.80419002E+02 0.0000E+00 0.9000E+01
#aMCatNLO 1  0  0  2  1 0.83005451D+02 0.00000000D+00  -5  7  0 0.00000000D+00 0.00000000D+00 0.00000000D+00 0.00000000D+00 0.00000000D+00
  <mgrwgt>
 0.8346538993D-03    6    2    0
 0.407201825646992D+03 0.000000000000000D+00 0.000000000000000D+00 0.407201825646992D+03
 0.407201825646992D+03 0.000000000000000D+00 0.000000000000000D+00 -.407201825646992D+03
 0.938984663574174D+02 0.347820745248377D+02 -.333865262671707D+02 0.502525476614571D+01
 0.164734015028478D+02 -.113109035367948D+02 0.230775189925509D+01 -.117520508604599D+02
 0.340301734825130D+03 0.179346526006571D+03 0.604717023444013D+02 -.282813131855538D+03
 0.363730048608588D+03 -.202817696994614D+03 -.293929279764857D+02 0.289539927949852D+03
 0.000000000000000D+00 -.000000000000000D+00 -.000000000000000D+00 0.000000000000000D+00
 0.454721916983049D+03 0.000000000000000D+00 0.000000000000000D+00 0.454721916983049D+03
 0.447242575141186D+03 0.000000000000000D+00 0.000000000000000D+00 -.447242575141186D+03
 0.927748877915342D+02 0.387471657028153D+02 -.247662636442222D+02 0.502525476614571D+01
 0.162906820632380D+02 -.106149682261840D+02 0.382074236448520D+01 -.117520508604599D+02
 0.355302795762101D+03 0.194121721964061D+03 0.925935537072375D+02 -.282813131855538D+03
 0.354254387625674D+03 -.187567133961573D+03 0.376238991955632D+01 0.289539927949852D+03
 0.833417388816874D+02 -.346867854791195D+02 -.754104223470568D+02 0.747934184186260D+01
0.226354879080D-04 0.000000000000D+00 0.000000000000D+00 0.160508887374D-05 0.000000000000D+00  7 2 -2 24 -13 13 -24 21 0 0.94332198D-01 0.41603778D-01 0.66235507D+05 0.66235507D+05 0.66235507D+05 0.11367061D+01  1  2  2  2  7  2       -2 0.745662886483D-03 0.100000000000D+01
-.935650687238D-06 0.000000000000D+00 -.869262336276D-07 0.160508887374D-05 0.000000000000D+00  7 2 -2 24 -13 13 -24 21 2 0.94332198D-01 0.41603778D-01 0.66235507D+05 0.66235507D+05 0.66235507D+05 0.11367061D+01  1  2  3  2  7  2       -2 -.398256450237D-04 0.100000000000D+01
0.139896860958D-05 0.000000000000D+00 0.000000000000D+00 0.160508887374D-05 0.000000000000D+00  7 2 -2 24 -13 13 -24 21 2 0.94332198D-01 0.41603778D-01 0.66235507D+05 0.66235507D+05 0.66235507D+05 0.11367061D+01  1  2 15  2  7  2       -2 0.595466107217D-04 0.100000000000D+01
0.166682335610D-04 0.000000000000D+00 0.000000000000D+00 0.160508887374D-05 0.000000000000D+00  7 2 -2 24 -13 13 -24 21 2 0.94332198D-01 0.47878397D-01 0.91843675D+05 0.91843675D+05 0.91843675D+05 0.11247669D+01  1  2 12  2  7  2       -2 0.529001710916D-03 0.100000000000D+01
-.137256276147D-04 0.000000000000D+00 0.000000000000D+00 0.160508887374D-05 0.000000000000D+00  7 2 -2 24 -13 13 -24 21 2 0.94332198D-01 0.41603778D-01 0.66235507D+05 0.66235507D+05 0.66235507D+05 0.11367061D+01  1  2  4  2  7  2       -2 -.584226550106D-03 0.100000000000D+01
0.360436528545D-06 0.000000000000D+00 0.000000000000D+00 0.160508887374D-05 0.000000000000D+00  7 2 21 24 -13 13 -24 2 2 0.94332198D-01 0.47878397D-01 0.91843675D+05 0.91843675D+05 0.91843675D+05 0.11247669D+01  1  2 12  4  7  2       -2 0.124494886307D-03 0.100000000000D+01
  </mgrwgt>
  </event>
  <event>
  8     66 0.26993063E-05 0.50079488E+03 0.75467711E-02 0.81917049E-01
        2 -1    0    0  501    0 0.00000000E+00 0.00000000E+00 0.50131569E+03 0.50131580E+03 0.32000000E+00 0.0000E+00 0.9000E+01
       -2 -1    0    0    0  501 0.00000000E+00 0.00000000E+00 -.56560616E+03 0.56560625E+03 0.32000000E+00 0.0000E+00 0.9000E+01
       25  2    1    2    0    0 -.24824516E+03 -.38710423E+03 -.19139742E+03 0.58137211E+03 0.29980864E+03 0.0000E+00 0.0000E+00
       23  2    1    2    0    0 0.24824516E+03 0.38710423E+03 0.12710696E+03 0.48554993E+03 0.90151050E+02 0.0000E+00 0.0000E+00
       24  1    3    3    0    0 0.46945995E+01 -.20010683E+03 -.26839304E+02 0.21737604E+03 0.80419002E+02 0.0000E+00 0.9000E+01
      -11  1    4    4    0    0 0.19248301E+01 0.13939074E+02 -.10685682E+02 0.17668802E+02 0.51099893E-03 0.0000E+00 0.9000E+01
       11  1    4    4    0    0 0.24632033E+03 0.37316515E+03 0.13779264E+03 0.46788113E+03 0.51099893E-03 0.0000E+00 0.9000E+01
      -24  1    3    3    0    0 -.25293976E+03 -.18699740E+03 -.16455812E+03 0.36399607E+03 0.80419002E+02 0.0000E+00 0.9000E+01
#aMCatNLO 1  0  0  2  2 0.17097561D+04 0.00000000D+00  -5  7  0 0.00000000D+00 0.00000000D+00 0.00000000D+00 0.00000000D+00 0.00000000D+00
  <mgrwgt>
 0.1379794996D-02    5    2    0
 0.532491638494715D+03 0.000000000000000D+00 0.000000000000000D+00 0.532491638494715D+03
 0.532491638494715D+03 0.000000000000000D+00 0.000000000000000D+00 -.532491638494715D+03
 0.216151546737091D+03 0.469459948285710D+01 -.200106825199230D+03 -.137656981968429D+02
 0.170558987711260D+02 0.192483009724076D+01 0.139390741164955D+02 -.963851258039842D+01
 0.477051094614090D+03 0.246320327327029D+03 0.373165153582033D+03 0.166288338046010D+03
 0.354724736867122D+03 -.252939756907127D+03 -.186997402499298D+03 -.142884127268769D+03
 0.000000000000000D+00 -.000000000000000D+00 -.000000000000000D+00 -.000000000000000D+00
 0.132318680205328D+04 0.000000000000000D+00 0.000000000000000D+00 0.132318680205328D+04
 0.331964334460711D+04 0.000000000000000D+00 0.000000000000000D+00 -.331964334460711D+04
 0.368973083861096D+03 0.326038284317459D+03 -.152261168299991D+03 -.137656981968429D+02
 0.386116812912866D+02 0.324968217168605D+02 0.184910136466332D+02 -.963851258039842D+01
 0.138166159434419D+04 0.126710385494586D+04 0.525152140524016D+03 0.166288338046010D+03
 0.225066229361947D+03 0.654747410971553D+02 -.139587879480049D+03 -.142884127268769D+03
 0.262851755780187D+04 -.169111370207734D+04 -.251794106390610D+03 -.199645654255382D+04
0.156164282651D-03 0.000000000000D+00 0.000000000000D+00 0.454096420870D-05 0.000000000000D+00  7 2 -2 24 -11 11 -24 21 0 0.77125506D-01 0.87016346D-01 0.25079551D+06 0.25079551D+06 0.25079551D+06 0.10903553D+01  1  2  2  2  7  2       -2 0.136734690605D-02 0.100000000000D+01
-.863606412227D-05 0.000000000000D+00 -.599711964381D-06 0.454096420870D-05 0.000000000000D+00  7 2 -2 24 -11 11 -24 21 2 0.77125506D-01 0.87016346D-01 0.25079551D+06 0.25079551D+06 0.25079551D+06 0.10903553D+01  1  2  3  2  7  2       -2 -.898977780820D-04 0.100000000000D+01
0.982017498344D-05 0.000000000000D+00 0.000000000000D+00 0.454096420870D-05 0.000000000000D+00  7 2 -2 24 -11 11 -24 21 2 0.77125506D-01 0.87016346D-01 0.25079551D+06 0.25079551D+06 0.25079551D+06 0.10903553D+01  1  2 15  2  7  2       -2 0.102223871765D-03 0.100000000000D+01
0.115890835557D-03 0.000000000000D+00 -.832843390654D-04 0.454096420870D-05 0.000000000000D+00  7 2 -2 24 -11 11 -24 21 2 0.77125506D-01 0.68159177D+00 0.25079551D+06 0.25079551D+06 0.25079551D+06 0.10903553D+01  1  2  5  2  7  2       -2 0.812060888000D-07 0.100000000000D+01
0.193635490956D-04 0.000000000000D+00 -.208365004749D-04 0.454096420870D-05 0.000000000000D+00  7 2 21 24 -11 11 -24 2 2 0.77125506D-01 0.68159177D+00 0.25079551D+06 0.25079551D+06 0.25079551D+06 0.10903553D+01  1  2  5  4  7  2       -2 0.407903295503D-07 0.100000000000D+01
  </mgrwgt>
  </event>
  <event>
  8     66 0.26993063E-05 0.15385749E+03 0.75467711E-02 0.97412962E-01
        2 -1    0    0  501    0 0.00000000E+00 0.00000000E+00 0.15977291E+04 0.15977291E+04 0.32000000E+00 0.0000E+00 0.9000E+01
       -2 -1    0    0    0  501 0.00000000E+00 0.00000000E+00 -.31728640E+02 0.31730254E+02 0.32000000E+00 0.0000E+00 0.9000E+01
       25  2    1    2    0    0 -.76337163E+01 -.53784198E+00 0.75174076E+03 0.81005192E+03 0.30168093E+03 0.0000E+00 0.0000E+00
       23  2    1    2    0    0 0.76337163E+01 0.53784198E+00 0.81425971E+03 0.81940748E+03 0.91384741E+02 0.0000E+00 0.0000E+00
       24  1    3    3    0    0 0.66085449E+02 0.45671424E+02 0.11250909E+03 0.15993335E+03 0.80419002E+02 0.0000E+00 0.9000E+01
      -11  1    4    4    0    0 -.31112612E+02 0.14576540E+02 0.61351293E+03 0.61447423E+03 0.51099893E-03 0.0000E+00 0.9000E+01
       11  1    4    4    0    0 0.38746328E+02 -.14038698E+02 0.20074679E+03 0.20493325E+03 0.51099893E-03 0.0000E+00 0.9000E+01
      -24  1    3    3    0    0 -.73719166E+02 -.46209266E+02 0.63923167E+03 0.65011857E+03 0.80419002E+02 0.0000E+00 0.9000E+01
#aMCatNLO 1  0  0  1  2 0.32747843D+03 0.00000000D+00  -5  7  0 0.00000000D+00 0.00000000D+00 0.00000000D+00 0.00000000D+00 0.00000000D+00
  <mgrwgt>
 0.1037703735D-02    3    2    0
 0.225155752622041D+03 0.000000000000000D+00 0.000000000000000D+00 0.225155752622041D+03
 0.225155752622041D+03 0.000000000000000D+00 0.000000000000000D+00 -.225155752622041D+03
 0.187460487721881D+03 0.660854494476756D+02 0.456714243828605D+02 -.149067276317420D+03
 0.899361405338821D+02 -.311126115791847D+02 0.145765403494329D+02 0.831146151184876D+02
 0.434384661409314D+02 0.387463279268327D+02 -.140386983702842D+02 0.137308907552048D+02
 0.129476410847388D+03 -.737191657953236D+02 -.462092663620092D+02 0.522217704437281D+02
 0.000000000000000D+00 0.000000000000000D+00 -.000000000000000D+00 -.000000000000000D+00
 0.375231379122120D+03 0.000000000000000D+00 0.000000000000000D+00 0.375231379122120D+03
 0.555272180019549D+03 0.000000000000000D+00 0.000000000000000D+00 -.555272180019549D+03
 0.227485012599943D+03 -.185949793507149D+02 0.150716252864375D+03 -.149067276317420D+03
 0.133656249689332D+03 -.767424580661909D+02 0.711796948903378D+02 0.831146151184876D+02
 0.280778680952335D+02 0.241515586269836D+02 0.406589863736642D+01 0.137308907552048D+02
 0.167577576711673D+03 -.134340763145490D+03 0.289909349865779D+02 0.522217704437281D+02
 0.373706852045488D+03 0.205526641935412D+03 -.254952781378657D+03 -.180040800897429D+03
0.387171783346D-05 0.000000000000D+00 0.000000000000D+00 0.545866136499D-07 0.000000000000D+00  7 2 -2 24 -11 11 -24 21 0 0.24580461D+00 0.48814559D-02 0.23672129D+05 0.23672129D+05 0.23672129D+05 0.11770037D+01  1  2  2  1  7  1        2 0.101473301304D-02 0.100000000000D+01
-.177178950640D-06 0.000000000000D+00 -.148684159272D-07 0.545866136499D-07 0.000000000000D+00  7 2 -2 24 -11 11 -24 21 2 0.24580461D+00 0.48814559D-02 0.23672129D+05 0.23672129D+05 0.23672129D+05 0.11770037D+01  1  2  3  1  7  1        2 -.643303467391D-04 0.100000000000D+01
0.240445024748D-06 0.000000000000D+00 0.000000000000D+00 0.545866136499D-07 0.000000000000D+00  7 2 -2 24 -11 11 -24 21 2 0.24580461D+00 0.48814559D-02 0.23672129D+05 0.23672129D+05 0.23672129D+05 0.11770037D+01  1  2 15  1  7  1        2 0.873010691049D-04 0.100000000000D+01
  </mgrwgt>
  </event>
  <event>
  8     66 0.26993063E-05 0.21072330E+03 0.75467711E-02 0.10009419E+00
        2 -1    0    0  501    0 0.00000000E+00 0.00000000E+00 0.91337771E+03 0.91337776E+03 0.32000000E+00 0.0000E+00 0.9000E+01
       -2 -1    0    0    0  501 0.00000000E+00 0.00000000E+00 -.17984170E+03 0.17984198E+03 0.32000000E+00 0.0000E+00 0.9000E+01
       25  2    1    2    0    0 0.63206458E+02 -.10468341E+03 -.19080816E+02 0.32520879E+03 0.30073743E+03 0.0000E+00 0.0000E+00
       23  2    1    2    0    0 -.63206458E+02 0.10468341E+03 0.75261683E+03 0.76801096E+03 0.91951448E+02 0.0000E+00 0.0000E+00
       24  1    3    3    0    0 0.11998485E+03 -.87444518E+02 -.10032982E+03 0.19640824E+03 0.80419002E+02 0.0000E+00 0.9000E+01
      -11  1    4    4    0    0 0.30434291E+01 -.15298879E+02 0.93868206E+02 0.95155443E+02 0.51099893E-03 0.0000E+00 0.9000E+01
       11  1    4    4    0    0 -.66249887E+02 0.11998229E+03 0.65874862E+03 0.67285552E+03 0.51099893E-03 0.0000E+00 0.9000E+01
      -24  1    3    3    0    0 -.56778390E+02 -.17238891E+02 0.81249002E+02 0.12880055E+03 0.80419002E+02 0.0000E+00 0.9000E+01
#aMCatNLO 1  0  0  1  1 0.18513866D+03 0.00000000D+00  -5  7  0 0.00000000D+00 0.00000000D+00 0.00000000D+00 0.00000000D+00 0.00000000D+00
  <mgrwgt>
 0.1404426024D-02    4    2    0
 0.405294438507137D+03 0.000000000000000D+00 0.000000000000000D+00 0.405294438507137D+03
 0.405294438507137D+03 0.000000000000000D+00 0.000000000000000D+00 -.405294438507137D+03
 0.355683264776012D+03 0.119984848302004D+03 -.874445180068676D+02 -.313050253690751D+03
 0.433883317690325D+02 0.304342912823997D+01 -.152988794175025D+02 0.404873950929141D+02
 0.311333036882590D+03 -.662498872480871D+02 0.119982288609855D+03 0.279541522343450D+03
 0.100184243586639D+03 -.567783901821566D+02 -.172388911854851D+02 -.697866374561256D+01
 0.000000000000000D+00 0.000000000000000D+00 0.000000000000000D+00 -.000000000000000D+00
 0.453954258558260D+03 0.000000000000000D+00 0.000000000000000D+00 0.453954258558260D+03
 0.639919281697817D+03 0.000000000000000D+00 0.000000000000000D+00 -.639919281697817D+03
 0.351480654610614D+03 0.514340815824876D+02 -.128162040117412D+03 -.313050253690751D+03
 0.456924756004373D+02 -.559184973393294D+01 -.204280293136647D+02 0.404873950929141D+02
 0.318365263691917D+03 -.127291323502075D+03 0.837251298752097D+02 0.279541522343450D+03
 0.115924564490966D+03 -.777274574103181D+02 -.296821379772838D+02 -.697866374561256D+01
 0.262410581862143D+03 0.159176549063838D+03 0.945470775331512D+02 -.185965023139557D+03
0.369644686241D-04 0.000000000000D+00 0.000000000000D+00 0.160829076199D-05 0.000000000000D+00  7 2 -2 24 -11 11 -24 21 0 0.14051967D+00 0.27667979D-01 0.44404309D+05 0.44404309D+05 0.44404309D+05 0.11518570D+01  1  2  2  1  7  1        2 0.156001722833D-02 0.100000000000D+01
-.985414593599D-06 0.000000000000D+00 -.141953292485D-06 0.160829076199D-05 0.000000000000D+00  7 2 -2 24 -11 11 -24 21 2 0.14051967D+00 0.27667979D-01 0.44404309D+05 0.44404309D+05 0.44404309D+05 0.11518570D+01  1  2  3  1  7  1        2 -.551773803271D-04 0.100000000000D+01
0.229046360601D-05 0.000000000000D+00 0.000000000000D+00 0.160829076199D-05 0.000000000000D+00  7 2 -2 24 -11 11 -24 21 2 0.14051967D+00 0.27667979D-01 0.44404309D+05 0.44404309D+05 0.44404309D+05 0.11518570D+01  1  2 15  1  7  1        2 0.128252394815D-03 0.100000000000D+01
-.408375728812D-05 0.000000000000D+00 0.000000000000D+00 0.160829076199D-05 0.000000000000D+00  7 2 -2 24 -11 11 -24 21 2 0.14051967D+00 0.27667979D-01 0.44404309D+05 0.44404309D+05 0.44404309D+05 0.11518570D+01  1  2  4  1  7  1        2 -.228666218782D-03 0.100000000000D+01
  </mgrwgt>
  </event>
  <event>
  7     66 0.26993063E-05 0.35088063E+03 0.75467711E-02 0.79471966E-01
        2 -1    0    0  501    0 0.00000000E+00 0.00000000E+00 0.18825826E+04 0.18825827E+04 0.32000000E+00 0.0000E+00 0.9000E+01
       -2 -1    0    0    0  501 0.00000000E+00 0.00000000E+00 -.14164480E+03 0.14164517E+03 0.32000000E+00 0.0000E+00 0.9000E+01
       25  2    1    2    0    0 -.19780361E+02 0.31207283E+03 0.14680976E+04 0.15301837E+04 0.29727273E+03 0.0000E+00 0.0000E+00
       24  1    3    3    0    0 0.24069685E+02 0.20519044E+03 0.12573833E+04 0.12767782E+04 0.80419002E+02 0.0000E+00 0.9000E+01
      -11  1    1    2    0    0 -.56463815E+02 -.11885328E+03 0.25326221E+03 0.28540500E+03 0.51099893E-03 0.0000E+00 0.9000E+01
       11  1    1    2    0    0 0.76244176E+02 -.19321955E+03 0.19578044E+02 0.20863909E+03 0.51099893E-03 0.0000E+00 0.9000E+01
      -24  1    3    3    0    0 -.43850045E+02 0.10688239E+03 0.21071427E+03 0.25340559E+03 0.80419002E+02 0.0000E+00 0.9000E+01
#aMCatNLO 1  0  0  1  1 0.24356417D+04 0.00000000D+00  -5  7  0 0.00000000D+00 0.00000000D+00 0.00000000D+00 0.00000000D+00 0.00000000D+00
  <mgrwgt>
 0.7706441965D-02    3    2    0
 0.516389814995006D+03 0.000000000000000D+00 0.000000000000000D+00 0.516389814995006D+03
 0.516389814995006D+03 0.000000000000000D+00 0.000000000000000D+00 -.516389814995006D+03
 0.382911997746929D+03 0.240696843923134D+02 0.205190443312506D+03 0.312204923616918D+03
 0.132468688068162D+03 -.564638094312220D+02 -.118853273474559D+03 0.152869528486325D+02
 0.375926173062573D+03 0.762441703466638D+02 -.193219560996690D+03 -.313326531480925D+03
 0.141472771112348D+03 -.438500453077552D+02 0.106882391158743D+03 -.141653449846258D+02
 0.000000000000000D+00 0.000000000000000D+00 0.000000000000000D+00 -.000000000000000D+00
 0.145693560912983D+04 0.000000000000000D+00 0.000000000000000D+00 0.145693560912983D+04
 0.123777352603972D+05 0.000000000000000D+00 0.000000000000000D+00 -.123777352603972D+05
 0.493705975881966D+03 -.531763601271196D+02 -.370106383436139D+03 0.312204923616918D+03
 0.634854263770280D+03 -.124078967552070D+03 -.622423212220688D+03 0.152869528486325D+02
 0.139066444563677D+04 -.794247090110749D+02 -.135257746566577D+04 -.313326531480925D+03
 0.126334703130441D+03 -.674487721195704D+02 -.688712378407339D+02 -.141653449846258D+02
 0.111891114811076D+05 0.324128808809835D+03 0.241397829916334D+04 -.109207996512674D+05
0.421890082206D-03 0.000000000000D+00 0.000000000000D+00 0.333008595027D-10 0.000000000000D+00  7 2 -2 24 -11 11 -24 21 0 0.28962813D+00 0.21791538D-01 0.12311722D+06 0.12311722D+06 0.12311722D+06 0.11143848D+01  1  2  2  1  7  1        2 0.754192865401D-02 0.100000000000D+01
-.191831552990D-04 0.000000000000D+00 -.162016900188D-05 0.333008595027D-10 0.000000000000D+00  7 2 -2 24 -11 11 -24 21 2 0.28962813D+00 0.21791538D-01 0.12311722D+06 0.12311722D+06 0.12311722D+06 0.11143848D+01  1  2  3  1  7  1        2 -.425866561059D-03 0.100000000000D+01
0.265936558702D-04 0.000000000000D+00 0.000000000000D+00 0.333008595027D-10 0.000000000000D+00  7 2 -2 24 -11 11 -24 21 2 0.28962813D+00 0.21791538D-01 0.12311722D+06 0.12311722D+06 0.12311722D+06 0.11143848D+01  1  2 15  1  7  1        2 0.590379872074D-03 0.100000000000D+01
  </mgrwgt>
  </event>
  <event>
  8     66 0.26993063E-05 0.30660364E+03 0.75467711E-02 0.98427527E-01
        2 -1    0    0  501    0 0.00000000E+00 0.00000000E+00 0.11719613E+04 0.11719614E+04 0.32000000E+00 0.0000E+00 0.9000E+01
       -2 -1    0    0    0  501 0.00000000E+00 0.00000000E+00 -.95237371E+02 0.95237908E+02 0.32000000E+00 0.0000E+00 0.9000E+01
       25  2    1    2    0    0 0.23872636E+03 -.52397798E+02 0.48008518E+03 0.61594772E+03 0.29862017E+03 0.0000E+00 0.0000E+00
       23  2    1    2    0    0 -.23872636E+03 0.52397798E+02 0.59663878E+03 0.65125156E+03 0.91733090E+02 0.0000E+00 0.0000E+00
       24  1    3    3    0    0 0.11760375E+03 -.13748661E+03 0.35372196E+03 0.40536360E+03 0.80419002E+02 0.0000E+00 0.9000E+01
      -13  1    4    4    0    0 -.16881069E+03 0.20984215E+02 0.30002950E+03 0.34489867E+03 0.10565837E+00 0.0000E+00 0.9000E+01
       13  1    4    4    0    0 -.69915675E+02 0.31413584E+02 0.29660928E+03 0.30635288E+03 0.10565837E+00 0.0000E+00 0.9000E+01
      -24  1    3    3    0    0 0.12112261E+03 0.85088807E+02 0.12636322E+03 0.21058412E+03 0.80419002E+02 0.0000E+00 0.9000E+01
#aMCatNLO 1  0  0  2  1 0.10475941D+03 0.00000000D+00  -5  7  0 0.00000000D+00 0.00000000D+00 0.00000000D+00 0.00000000D+00 0.00000000D+00
  <mgrwgt>
 0.4772146940D-03    4    2    0
 0.334088137483484D+03 0.000000000000000D+00 0.000000000000000D+00 0.334088137483484D+03
 0.334088137483484D+03 0.000000000000000D+00 0.000000000000000D+00 -.334088137483484D+03
 0.198773230998068D+03 0.117603754052810D+03 -.137486605323567D+03 0.176173720040306D+02
 0.170623334390652D+03 -.168810817590568D+03 0.209842011824962D+02 0.132247269809499D+02
 0.103032360423707D+03 -.699155439775717D+02 0.314135972492999D+02 0.688525229215291D+02
 0.195747349154542D+03 0.121122607515330D+03 0.850888068917710D+02 -.996946219065096D+02
 0.000000000000000D+00 0.000000000000000D+00 0.000000000000000D+00 0.000000000000000D+00
 0.399914635664072D+03 0.000000000000000D+00 0.000000000000000D+00 0.399914635664072D+03
 0.382604076146622D+03 0.000000000000000D+00 0.000000000000000D+00 -.382604076146622D+03
 0.197776485147924D+03 0.918709117449420D+02 -.154588763828168D+03 0.176173720040306D+02
 0.192929337436371D+03 -.192402420846904D+03 0.530511943006337D+01 0.132247269809499D+02
 0.110694201712095D+03 -.837846547006735D+02 0.221961261644276D+02 0.688525229215291D+02
 0.174938699184426D+03 0.970681063033765D+02 0.691020811521834D+02 -.996946219065096D+02
 0.106179988329879D+03 0.872480574992593D+02 0.579854370814941D+02 0.173105595174501D+02
0.103492878263D-04 0.000000000000D+00 0.000000000000D+00 0.242616255116D-06 0.000000000000D+00  7 2 -2 24 -13 13 -24 21 0 0.18030179D+00 0.14651948D-01 0.94005794D+05 0.94005794D+05 0.94005794D+05 0.11239317D+01  1  2  2  2  7  2       -2 0.866650623558D-03 0.100000000000D+01
-.569808268114D-06 0.000000000000D+00 -.397439902832D-07 0.242616255116D-06 0.000000000000D+00  7 2 -2 24 -13 13 -24 21 2 0.18030179D+00 0.14651948D-01 0.94005794D+05 0.94005794D+05 0.94005794D+05 0.11239317D+01  1  2  3  2  7  2       -2 -.602756876055D-04 0.100000000000D+01
0.667855301083D-06 0.000000000000D+00 0.000000000000D+00 0.242616255116D-06 0.000000000000D+00  7 2 -2 24 -13 13 -24 21 2 0.18030179D+00 0.14651948D-01 0.94005794D+05 0.94005794D+05 0.94005794D+05 0.11239317D+01  1  2 15  2  7  2       -2 0.706473383178D-04 0.100000000000D+01
-.377952826298D-05 0.000000000000D+00 0.000000000000D+00 0.242616255116D-06 0.000000000000D+00  7 2 -2 24 -13 13 -24 21 2 0.18030179D+00 0.14651948D-01 0.94005794D+05 0.94005794D+05 0.94005794D+05 0.11239317D+01  1  2  4  2  7  2       -2 -.399807580240D-03 0.100000000000D+01
  </mgrwgt>
  </event>
  <event>
  8     66 0.26993063E-05 0.24002624E+03 0.75467711E-02 0.99734713E-01
        2 -1    0    0  501    0 0.00000000E+00 0.00000000E+00 0.49306192E+03 0.49306203E+03 0.32000000E+00 0.0000E+00 0.9000E+01
       -2 -1    0    0    0  501 0.00000000E+00 0.00000000E+00 -.21440623E+03 0.21440647E+03 0.32000000E+00 0.0000E+00 0.9000E+01
       25  2    1    2    0    0 0.16882418E+03 0.17277627E+03 0.17697215E+03 0.42903901E+03 0.30724923E+03 0.0000E+00 0.0000E+00
       23  2    1    2    0    0 -.16882418E+03 -.17277627E+03 0.10168354E+03 0.27842949E+03 0.93969111E+02 0.0000E+00 0.0000E+00
       24  1    3    3    0    0 0.54548061E+02 -.63162684E+02 0.40748171E+02 0.12285213E+03 0.80419002E+02 0.0000E+00 0.9000E+01
      -11  1    4    4    0    0 -.14432216E+03 -.17099327E+03 0.62744743E+02 0.23238865E+03 0.51099893E-03 0.0000E+00 0.9000E+01
       11  1    4    4    0    0 -.24502024E+02 -.17829945E+01 0.38938796E+02 0.46040831E+02 0.51099893E-03 0.0000E+00 0.9000E+01
      -24  1    3    3    0    0 0.11427612E+03 0.23593895E+03 0.13622398E+03 0.30618689E+03 0.80419002E+02 0.0000E+00 0.9000E+01
#aMCatNLO 1  0  0  2  1 0.13706140D+02 0.00000000D+00  -5  7  0 0.00000000D+00 0.00000000D+00 0.00000000D+00 0.00000000D+00 0.00000000D+00
  <mgrwgt>
 0.9392836766D-03    6    2    0
 0.325139462845315D+03 0.000000000000000D+00 0.000000000000000D+00 0.325139462845315D+03
 0.325139462845315D+03 0.000000000000000D+00 0.000000000000000D+00 -.325139462845315D+03
 0.116195215262992D+03 0.545480614534932D+02 -.631626837849515D+02 -.831242830890750D+01
 0.225939157726640D+03 -.144322156428187D+03 -.170993272570722D+03 -.313196247374767D+02
 0.334040046342554D+02 -.245020242450409D+02 -.178299453764376D+01 0.226340288941124D+02
 0.274740548066742D+03 0.114276119219735D+03 0.235938950893317D+03 0.169980241522718D+02
 0.000000000000000D+00 0.000000000000000D+00 0.000000000000000D+00 0.000000000000000D+00
 0.333769480274961D+03 0.000000000000000D+00 0.000000000000000D+00 0.333769480274961D+03
 0.330699600080524D+03 0.000000000000000D+00 0.000000000000000D+00 -.330699600080524D+03
 0.116547482000532D+03 0.530216568010079D+02 -.650823098236325D+02 -.831242830890750D+01
 0.230703541472366D+03 -.147316972372043D+03 -.174759591454461D+03 -.313196247374767D+02
 0.337622594038054D+02 -.249425231269528D+02 -.233697157273157D+01 0.226340288941124D+02
 0.269410071148275D+03 0.110707396993051D+03 0.231450880118633D+03 0.169980241522718D+02
 0.140457263305064D+02 0.853044170493632D+01 0.107279927321921D+02 0.306988019443712D+01
0.830537564335D-05 0.000000000000D+00 0.000000000000D+00 0.197053569482D-08 0.000000000000D+00  7 2 -2 24 -11 11 -24 21 0 0.75855707D-01 0.32985601D-01 0.10190026D+06 0.10190026D+06 0.10190026D+06 0.11210518D+01  1  2  2  2  7  2       -2 0.532413843335D-03 0.100000000000D+01
-.461220250080D-06 0.000000000000D+00 -.318948293261D-07 0.197053569482D-08 0.000000000000D+00  7 2 -2 24 -11 11 -24 21 2 0.75855707D-01 0.32985601D-01 0.10190026D+06 0.10190026D+06 0.10190026D+06 0.11210518D+01  1  2  3  2  7  2       -2 -.371577813131D-04 0.100000000000D+01
0.522880991889D-06 0.000000000000D+00 0.000000000000D+00 0.197053569482D-08 0.000000000000D+00  7 2 -2 24 -11 11 -24 21 2 0.75855707D-01 0.32985601D-01 0.10190026D+06 0.10190026D+06 0.10190026D+06 0.11210518D+01  1  2 15  2  7  2       -2 0.421254217394D-04 0.100000000000D+01
0.100940118759D-04 0.000000000000D+00 0.000000000000D+00 0.197053569482D-08 0.000000000000D+00  7 2 -2 24 -11 11 -24 21 2 0.75855707D-01 0.33978087D-01 0.10642262D+06 0.10642262D+06 0.10642262D+06 0.11195103D+01  1  2 12  2  7  2       -2 0.768802014094D-03 0.100000000000D+01
-.623894560527D-05 0.000000000000D+00 0.000000000000D+00 0.197053569482D-08 0.000000000000D+00  7 2 -2 24 -11 11 -24 21 2 0.75855707D-01 0.32985601D-01 0.10190026D+06 0.10190026D+06 0.10190026D+06 0.11210518D+01  1  2  4  2  7  2       -2 -.502634861293D-03 0.100000000000D+01
0.154134299893D-06 0.000000000000D+00 0.000000000000D+00 0.197053569482D-08 0.000000000000D+00  7 2 21 24 -11 11 -24 2 2 0.75855707D-01 0.33978087D-01 0.10642262D+06 0.10642262D+06 0.10642262D+06 0.11195103D+01  1  2 12  4  7  2       -2 0.135735040040D-03 0.100000000000D+01
  </mgrwgt>
  </event>
  <event>
  8     66 0.26993063E-05 0.22471293E+03 0.75467711E-02 0.95878405E-01
        2 -1    0    0  501    0 0.00000000E+00 0.00000000E+00 0.32616778E+03 0.32616794E+03 0.32000000E+00 0.0000E+00 0.9000E+01
       -2 -1    0    0    0  501 0.00000000E+00 0.00000000E+00 -.62335029E+03 0.62335038E+03 0.32000000E+00 0.0000E+00 0.9000E+01
       25  2    1    2    0    0 0.33042021E+03 -.35756259E+02 -.38973139E+03 0.59339795E+03 0.29962402E+03 0.0000E+00 0.0000E+00
       23  2    1    2    0    0 -.33042021E+03 0.35756259E+02 0.92548877E+02 0.35612036E+03 0.88319828E+02 0.0000E+00 0.0000E+00
       24  1    3    3    0    0 0.32154750E+03 -.97367539E+02 -.29154516E+03 0.45203874E+03 0.80419002E+02 0.0000E+00 0.9000E+01
      -13  1    4    4    0    0 -.97514880E+02 0.20470906E+02 0.69698491E+02 0.12159811E+03 0.10565837E+00 0.0000E+00 0.9000E+01
       13  1    4    4    0    0 -.23290533E+03 0.15285353E+02 0.22850387E+02 0.23452225E+03 0.10565837E+00 0.0000E+00 0.9000E+01
      -24  1    3    3    0    0 0.88727116E+01 0.61611280E+02 -.98186229E+02 0.14135921E+03 0.80419002E+02 0.0000E+00 0.9000E+01
#aMCatNLO 1  0  0  2  1 0.10627119D+03 0.00000000D+00  -5  7  0 0.00000000D+00 0.00000000D+00 0.00000000D+00 0.00000000D+00 0.00000000D+00
  <mgrwgt>
 0.9952568112D-03    9    2    0
 0.450906747958113D+03 0.000000000000000D+00 0.000000000000000D+00 0.450906747958113D+03
 0.450906747958113D+03 0.000000000000000D+00 0.000000000000000D+00 -.450906747958113D+03
 0.379875599393061D+03 0.321547495098723D+03 -.973675391427840D+02 -.158003246096027D+03
 0.150998707342093D+03 -.975146859191380D+02 0.204709136221426D+02 0.113456764208000D+03
 0.254458420934081D+03 -.232905520842858D+03 0.152853456888519D+02 0.101343300480866D+03
 0.116480768246990D+03 0.887271166327329D+01 0.616112798317896D+02 -.567968185928390D+02
 0.000000000000000D+00 0.000000000000000D+00 -.000000000000000D+00 -.000000000000000D+00
 0.472347044706973D+03 0.000000000000000D+00 0.000000000000000D+00 0.472347044706973D+03
 0.608139485630059D+03 0.000000000000000D+00 0.000000000000000D+00 -.608139485630059D+03
 0.343577575921885D+03 0.279327504255142D+03 -.926793089729311D+02 -.158003246096027D+03
 0.163730854131163D+03 -.115881982735301D+03 0.225104715034127D+02 0.113456764208000D+03
 0.283696219054350D+03 -.264311677796763D+03 0.187727763966399D+02 0.101343300480866D+03
 0.117048844179772D+03 -.475583878723884D+01 0.631246335800215D+02 -.567968185928390D+02
 0.172433037049861D+03 0.105621995064161D+03 -.117285725071431D+02 -.135792440923086D+03
0.676192367713D-04 0.000000000000D+00 0.000000000000D+00 0.472198161916D-06 0.000000000000D+00  7 2 -2 24 -13 13 -24 21 0 0.50179677D-01 0.95900064D-01 0.15217751D+06 0.15217751D+06 0.15217751D+06 0.11070583D+01  1  2  2  2  7  2       -2 0.769177942907D-03 0.100000000000D+01
-.366077901159D-05 0.000000000000D+00 -.259675673756D-06 0.472198161916D-06 0.000000000000D+00  7 2 -2 24 -13 13 -24 21 2 0.50179677D-01 0.95900064D-01 0.15217751D+06 0.15217751D+06 0.15217751D+06 0.11070583D+01  1  2  3  2  7  2       -2 -.510353445111D-04 0.100000000000D+01
0.430010697763D-05 0.000000000000D+00 0.000000000000D+00 0.472198161916D-06 0.000000000000D+00  7 2 -2 24 -13 13 -24 21 2 0.50179677D-01 0.95900064D-01 0.15217751D+06 0.15217751D+06 0.15217751D+06 0.11070583D+01  1  2 15  2  7  2       -2 0.599482897884D-04 0.100000000000D+01
0.110767976546D-03 0.000000000000D+00 0.000000000000D+00 0.472198161916D-06 0.000000000000D+00  7 2 -2 24 -13 13 -24 21 2 0.50179677D-01 0.13102783D+00 0.20103255D+06 0.20103255D+06 0.20103255D+06 0.10976537D+01  1  2 12  2  7  2       -2 0.691911187633D-03 0.100000000000D+01
-.115771257195D-03 0.000000000000D+00 0.000000000000D+00 0.472198161916D-06 0.000000000000D+00  7 2 -2 24 -13 13 -24 21 2 0.50179677D-01 0.95900064D-01 0.15217751D+06 0.15217751D+06 0.15217751D+06 0.11070583D+01  1  2  4  2  7  2       -2 -.161398051528D-02 0.100000000000D+01
-.148047096137D-03 0.000000000000D+00 -.297500312516D-04 0.472198161916D-06 0.000000000000D+00  7 2 -2 24 -13 13 -24 21 2 0.50179677D-01 0.13264987D+00 0.15217751D+06 0.15217751D+06 0.15217751D+06 0.11070583D+01  1  2  5  2  7  2       -2 -.918400017586D-03 0.100000000000D+01
0.151173109368D-03 0.000000000000D+00 0.282504181777D-04 0.472198161916D-06 0.000000000000D+00  7 2 -2 24 -13 13 -24 21 2 0.50179677D-01 0.95900064D-01 0.15217751D+06 0.15217751D+06 0.15217751D+06 0.11070583D+01  1  2  6  2  7  2       -2 0.210752183975D-02 0.100000000000D+01
0.440574866398D-05 0.000000000000D+00 0.000000000000D+00 0.472198161916D-06 0.000000000000D+00  7 2 21 24 -13 13 -24 2 2 0.50179677D-01 0.13102783D+00 0.20103255D+06 0.20103255D+06 0.20103255D+06 0.10976537D+01  1  2 12  4  7  2       -2 0.244362237145D-03 0.100000000000D+01
-.530309222121D-05 0.000000000000D+00 -.121672612825D-05 0.472198161916D-06 0.000000000000D+00  7 2 21 24 -13 13 -24 2 2 0.50179677D-01 0.13264987D+00 0.15217751D+06 0.15217751D+06 0.15217751D+06 0.11070583D+01  1  2  5  4  7  2       -2 -.294248808634D-03 0.100000000000D+01
  </mgrwgt>
  </event>
  <event>
  8     66 0.26993063E-05 0.16971827E+03 0.75467711E-02 0.98462656E-01
        2 -1    0    0  501    0 0.00000000E+00 0.00000000E+00 0.18403255E+03 0.18403282E+03 0.32000000E+00 0.0000E+00 0.9000E+01
       -2 -1    0    0    0  501 0.00000000E+00 0.00000000E+00 -.65251305E+03 0.65251313E+03 0.32000000E+00 0.0000E+00 0.9000E+01
       25  2    1    2    0    0 0.98274657E+02 0.24459085E+03 -.18135668E+03 0.43637063E+03 0.29672629E+03 0.0000E+00 0.0000E+00
       23  2    1    2    0    0 -.98274657E+02 -.24459085E+03 -.28712382E+03 0.40017533E+03 0.90651043E+02 0.0000E+00 0.0000E+00
       24  1    3    3    0    0 0.17143124E+03 0.20675240E+03 -.11149740E+03 0.30171860E+03 0.80419002E+02 0.0000E+00 0.9000E+01
      -13  1    4    4    0    0 -.84054462E+02 -.21325370E+03 -.28493709E+03 0.36569311E+03 0.10565837E+00 0.0000E+00 0.9000E+01
       13  1    4    4    0    0 -.14220195E+02 -.31337142E+02 -.21867375E+01 0.34482219E+02 0.10565837E+00 0.0000E+00 0.9000E+01
      -24  1    3    3    0    0 -.73156584E+02 0.37838442E+02 -.69859280E+02 0.13465203E+03 0.80419002E+02 0.0000E+00 0.9000E+01
#aMCatNLO 1  0  0  2  1 0.60025367D+02 0.00000000D+00  -5  7  0 0.00000000D+00 0.00000000D+00 0.00000000D+00 0.00000000D+00 0.00000000D+00
  <mgrwgt>
 0.2211316411D-02    9    2    0
 0.346531076427995D+03 0.000000000000000D+00 0.000000000000000D+00 0.346531076427995D+03
 0.346531076427995D+03 0.000000000000000D+00 0.000000000000000D+00 -.346531076427995D+03
 0.288815532278586D+03 0.171431241440350D+03 0.206752403925175D+03 0.693683548916548D+02
 0.248797044764236D+03 -.840545573235230D+02 -.213253950704541D+03 -.967344477705280D+02
 0.401426046127571D+02 -.142200998920754D+02 -.313368949667260D+02 0.206692157083894D+02
 0.115306971200412D+03 -.731565842247512D+02 0.378384417460921D+02 0.669687717048383D+01
 0.000000000000000D+00 -.000000000000000D+00 0.000000000000000D+00 -.000000000000000D+00
 0.356526160292968D+03 0.000000000000000D+00 0.000000000000000D+00 0.356526160292968D+03
 0.451389940350142D+03 0.000000000000000D+00 0.000000000000000D+00 -.451389940350142D+03
 0.288080840225329D+03 0.189325502949258D+03 0.189386482683419D+03 0.693683548916548D+02
 0.257367143237815D+03 -.683542777269623D+02 -.228490668845252D+03 -.967344477705280D+02
 0.412992245720707D+02 -.116939245533888D+02 -.337884832567852D+02 0.206692157083894D+02
 0.108909454666670D+03 -.662018042152250D+02 0.310890063564819D+02 0.669687717048383D+01
 0.112259437941225D+03 -.430754964536823D+02 0.418036630621361D+02 -.948637800571739D+02
0.814720922842D-04 0.000000000000D+00 0.000000000000D+00 0.661762519590D-07 0.000000000000D+00  7 2 -2 24 -13 13 -24 21 0 0.28312727D-01 0.10038665D+00 0.10860561D+06 0.10860561D+06 0.10860561D+06 0.11187918D+01  1  2  2  2  7  2       -2 0.158250626810D-02 0.100000000000D+01
-.451234057075D-05 0.000000000000D+00 -.312874286466D-06 0.661762519590D-07 0.000000000000D+00  7 2 -2 24 -13 13 -24 21 2 0.28312727D-01 0.10038665D+00 0.10860561D+06 0.10860561D+06 0.10860561D+06 0.11187918D+01  1  2  3  2  7  2       -2 -.109707663831D-03 0.100000000000D+01
0.521945463142D-05 0.000000000000D+00 0.000000000000D+00 0.661762519590D-07 0.000000000000D+00  7 2 -2 24 -13 13 -24 21 2 0.28312727D-01 0.10038665D+00 0.10860561D+06 0.10860561D+06 0.10860561D+06 0.11187918D+01  1  2 15  2  7  2       -2 0.126899591267D-03 0.100000000000D+01
0.213803775372D-03 0.000000000000D+00 0.000000000000D+00 0.661762519590D-07 0.000000000000D+00  7 2 -2 24 -13 13 -24 21 2 0.28312727D-01 0.13189643D+00 0.13053185D+06 0.13053185D+06 0.13053185D+06 0.11123481D+01  1  2 12  2  7  2       -2 0.258375203245D-02 0.100000000000D+01
-.214696747224D-03 0.000000000000D+00 0.000000000000D+00 0.661762519590D-07 0.000000000000D+00  7 2 -2 24 -13 13 -24 21 2 0.28312727D-01 0.10038665D+00 0.10860561D+06 0.10860561D+06 0.10860561D+06 0.11187918D+01  1  2  4  2  7  2       -2 -.521988050342D-02 0.100000000000D+01
-.277561364160D-03 0.000000000000D+00 -.401043683378D-04 0.661762519590D-07 0.000000000000D+00  7 2 -2 24 -13 13 -24 21 2 0.28312727D-01 0.13262938D+00 0.10860561D+06 0.10860561D+06 0.10860561D+06 0.11187918D+01  1  2  5  2  7  2       -2 -.335755420776D-02 0.100000000000D+01
0.279333116105D-03 0.000000000000D+00 0.385974943249D-04 0.661762519590D-07 0.000000000000D+00  7 2 -2 24 -13 13 -24 21 2 0.28312727D-01 0.10038665D+00 0.10860561D+06 0.10860561D+06 0.10860561D+06 0.11187918D+01  1  2  6  2  7  2       -2 0.679137204249D-02 0.100000000000D+01
0.771784317608D-05 0.000000000000D+00 0.000000000000D+00 0.661762519590D-07 0.000000000000D+00  7 2 21 24 -13 13 -24 2 2 0.28312727D-01 0.13189643D+00 0.13053185D+06 0.13053185D+06 0.13053185D+06 0.11123481D+01  1  2 12  4  7  2       -2 0.839761215940D-03 0.100000000000D+01
-.936682590568D-05 0.000000000000D+00 -.146901820849D-05 0.661762519590D-07 0.000000000000D+00  7 2 21 24 -13 13 -24 2 2 0.28312727D-01 0.13262938D+00 0.10860561D+06 0.10860561D+06 0.10860561D+06 0.11187918D+01  1  2  5  4  7  2       -2 -.102583236469D-02 0.100000000000D+01
  </mgrwgt>
  </event>
  <event>
  8     66 0.26993063E-05 0.24879995E+03 0.75467711E-02 0.96626922E-01
        2 -1    0    0  501    0 0.00000000E+00 0.00000000E+00 0.25813394E+04 0.25813395E+04 0.32000000E+00 0.0000E+00 0.9000E+01
       -2 -1    0    0    0  501 0.00000000E+00 0.00000000E+00 -.96664455E+02 0.96664984E+02 0.32000000E+00 0.0000E+00 0.9000E+01
       25  2    1    2    0    0 0.25816043E+03 0.24018768E+03 0.20930992E+04 0.21437360E+04 0.30033824E+03 0.0000E+00 0.0000E+00
       23  2    1    2    0    0 -.25816043E+03 -.24018768E+03 0.39157579E+03 0.53426840E+03 0.88171414E+02 0.0000E+00 0.0000E+00
       24  1    3    3    0    0 0.15621066E+02 0.16702100E+03 0.63832646E+03 0.66488189E+03 0.80419002E+02 0.0000E+00 0.9000E+01
      -13  1    4    4    0    0 -.19992746E+03 -.18006765E+03 0.34806032E+03 0.43993334E+03 0.10565837E+00 0.0000E+00 0.9000E+01
       13  1    4    4    0    0 -.58232970E+02 -.60120029E+02 0.43515475E+02 0.94335065E+02 0.10565837E+00 0.0000E+00 0.9000E+01
      -24  1    3    3    0    0 0.24253936E+03 0.73166675E+02 0.14547727E+04 0.14788542E+04 0.80419002E+02 0.0000E+00 0.9000E+01
#aMCatNLO 1  0  0  1  2 0.37003862D+02 0.00000000D+00  -5  7  0 0.00000000D+00 0.00000000D+00 0.00000000D+00 0.00000000D+00 0.00000000D+00
  <mgrwgt>
 0.1806860614D-02    9    2    0
 0.499524278357116D+03 0.000000000000000D+00 0.000000000000000D+00 0.499524278357116D+03
 0.499524278357116D+03 0.000000000000000D+00 0.000000000000000D+00 -.499524278357116D+03
 0.194708104435465D+03 0.156210663864253D+02 0.167021002964198D+03 0.574804038979019D+02
 0.313625307388812D+03 -.199927658966130D+03 -.180067821272626D+03 -.161137656546132D+03
 0.144645289267938D+03 -.582327666270401D+02 -.601198569632653D+02 -.117969518932149D+03
 0.346069855622017D+03 0.242539359206745D+03 0.731666752716938D+02 0.221626771580378D+03
 0.000000000000000D+00 0.000000000000000D+00 -.000000000000000D+00 0.000000000000000D+00
 0.534571585046822D+03 0.000000000000000D+00 0.000000000000000D+00 0.534571585046822D+03
 0.509730622159011D+03 0.000000000000000D+00 0.000000000000000D+00 -.509730622159011D+03
 0.198715346058620D+03 0.103739871398831D+02 0.172072532274568D+03 0.574804038979019D+02
 0.314549351871946D+03 -.208305609527215D+03 -.172002103026033D+03 -.161137656546132D+03
 0.144753906206605D+03 -.620924768467371D+02 -.564039917384004D+02 -.117969518932149D+03
 0.341715012627565D+03 0.233366388699405D+03 0.819977843904533D+02 0.221626771580378D+03
 0.445685904410962D+02 0.266577105346637D+02 -.256642219005879D+02 0.248409628878115D+02
0.551025128780D-04 0.000000000000D+00 0.000000000000D+00 0.642869046600D-06 0.000000000000D+00  7 2 -2 24 -13 13 -24 21 0 0.39712919D+00 0.14871497D-01 0.16183962D+06 0.16183962D+06 0.16183962D+06 0.11049576D+01  1  2  2  1  7  1        2 0.746831848484D-03 0.100000000000D+01
-.288682985866D-05 0.000000000000D+00 -.211608158277D-06 0.642869046600D-06 0.000000000000D+00  7 2 -2 24 -13 13 -24 21 2 0.39712919D+00 0.14871497D-01 0.16183962D+06 0.16183962D+06 0.16183962D+06 0.11049576D+01  1  2  3  1  7  1        2 -.477709468299D-04 0.100000000000D+01
0.345090245795D-05 0.000000000000D+00 0.000000000000D+00 0.642869046600D-06 0.000000000000D+00  7 2 -2 24 -13 13 -24 21 2 0.39712919D+00 0.14871497D-01 0.16183962D+06 0.16183962D+06 0.16183962D+06 0.11049576D+01  1  2 15  1  7  1        2 0.571051589131D-04 0.100000000000D+01
0.156307332341D-03 0.000000000000D+00 0.000000000000D+00 0.642869046600D-06 0.000000000000D+00  7 2 -2 24 -13 13 -24 21 2 0.42885647D+00 0.14871497D-01 0.17696684D+06 0.17696684D+06 0.17696684D+06 0.11019300D+01  1  2 12  1  7  1        2 0.193487710771D-02 0.100000000000D+01
-.155729535070D-03 0.000000000000D+00 0.000000000000D+00 0.642869046600D-06 0.000000000000D+00  7 2 -2 24 -13 13 -24 21 2 0.39712919D+00 0.14871497D-01 0.16183962D+06 0.16183962D+06 0.16183962D+06 0.11049576D+01  1  2  4  1  7  1        2 -.257699542540D-02 0.100000000000D+01
-.415222693250D-03 0.000000000000D+00 -.664775291722D-04 0.642869046600D-06 0.000000000000D+00  7 2 -2 24 -13 13 -24 21 2 0.42778134D+00 0.14871497D-01 0.16183962D+06 0.16183962D+06 0.16183962D+06 0.11049576D+01  1  2  5  1  7  1        2 -.524045197229D-02 0.100000000000D+01
0.419189480690D-03 0.000000000000D+00 0.662942075004D-04 0.642869046600D-06 0.000000000000D+00  7 2 -2 24 -13 13 -24 21 2 0.39712919D+00 0.14871497D-01 0.16183962D+06 0.16183962D+06 0.16183962D+06 0.11049576D+01  1  2  6  1  7  1        2 0.693670197903D-02 0.100000000000D+01
0.208484339033D-05 0.000000000000D+00 0.000000000000D+00 0.642869046600D-06 0.000000000000D+00  7 21 -2 24 -13 13 -24 -2 2 0.42885647D+00 0.14871497D-01 0.17696684D+06 0.17696684D+06 0.17696684D+06 0.11019300D+01  1  2 12  3  7  1        2 0.227335303041D-05 0.100000000000D+01
-.506996749555D-05 0.000000000000D+00 -.831774354076D-06 0.642869046600D-06 0.000000000000D+00  7 21 -2 24 -13 13 -24 -2 2 0.42778134D+00 0.14871497D-01 0.16183962D+06 0.16183962D+06 0.16183962D+06 0.11049576D+01  1  2  5  3  7  1        2 -.571048880019D-05 0.100000000000D+01
  </mgrwgt>
  </event>
  <event>
  9     66 0.26993063E-05 0.17637896E+03 0.75467711E-02 0.10537046E+00
        2 -1    0    0  501    0 0.00000000E+00 0.00000000E+00 0.85132458E+03 0.85132464E+03 0.32000000E+00 0.0000E+00 0.9000E+01
       21 -1    0    0  502  501 0.00000000E+00 0.00000000E+00 -.74261838E+02 0.74265625E+02 0.75000000E+00 0.0000E+00 0.9000E+01
       25  2    1    2    0    0 0.19122389E+01 0.84656491E+01 0.49048700E+03 0.57879952E+03 0.30717433E+03 0.0000E+00 0.0000E+00
       23  2    1    2    0    0 0.62114663E+02 -.39019504E+02 0.14186700E+03 0.18562715E+03 0.94606755E+02 0.0000E+00 0.0000E+00
       24  1    3    3    0    0 0.74287794E+02 0.55561264E+02 0.68422764E+02 0.14055113E+03 0.80419002E+02 0.0000E+00 0.9000E+01
      -11  1    4    4    0    0 0.73805645E+02 0.15707403E+01 0.11101516E+03 0.13331956E+03 0.51099893E-03 0.0000E+00 0.9000E+01
       11  1    4    4    0    0 -.11690982E+02 -.40590245E+02 0.30851845E+02 0.52307584E+02 0.51099893E-03 0.0000E+00 0.9000E+01
      -24  1    3    3    0    0 -.72375555E+02 -.47095615E+02 0.42206424E+03 0.43824839E+03 0.80419002E+02 0.0000E+00 0.9000E+01
        2  1    1    2  502    0 -.64026902E+02 0.30553855E+02 0.14470874E+03 0.16116360E+03 0.32000000E+00 0.0000E+00 0.9000E+01
#aMCatNLO 2  0  0  2  2 0.70943515D+02 0.00000000D+00  -5  7  0 0.00000000D+00 0.00000000D+00 0.00000000D+00 0.00000000D+00 0.00000000D+00
  <mgrwgt>
 0.1682208814D-03    1    2    0
 0.211803901037558D+03 0.000000000000000D+00 0.000000000000000D+00 0.211803901037558D+03
 0.211803901037558D+03 0.000000000000000D+00 0.000000000000000D+00 -.211803901037558D+03
 0.144272174589103D+03 0.522465647719804D+02 0.660794155147261D+02 -.851531075243738D+02
 0.638198727105128D+02 0.634746427319596D+02 0.650071943820057D+01 0.129866455327770D+01
 0.471765900419802D+02 -.188095187068058D+02 -.371932481127768D+02 -.221019218356416D+02
 0.168339164733520D+03 -.969116887971343D+02 -.353868868401498D+02 0.105956364806738D+03
 0.000000000000000D+00 -.000000000000000D+00 0.000000000000000D+00 0.000000000000000D+00
 0.261780877096371D+03 0.000000000000000D+00 0.000000000000000D+00 0.261780877096371D+03
 0.241509361429763D+03 0.000000000000000D+00 0.000000000000000D+00 -.241509361429763D+03
 0.149412173099306D+03 0.742877853730305D+02 0.555612701366657D+02 -.851531075243738D+02
 0.738337823194095D+02 0.738056481155847D+02 0.157072855914209D+01 0.129866455327770D+01
 0.476732802130624D+02 -.116909680222782D+02 -.405902446918767D+02 -.221019218356416D+02
 0.158588101022768D+03 -.723755633898733D+02 -.470956092706852D+02 0.105956364806738D+03
 0.737829018715878D+02 -.640269020764637D+02 0.305538552667541D+02 0.202715156666078D+02
0.453519626200D-07 0.000000000000D+00 0.000000000000D+00 0.202435308444D-09 0.771462840894D-14  7 2 21 24 -11 11 -24 2 2 0.13097313D+00 0.11425178D-01 0.45748023D+05 0.45748023D+05 0.45748023D+05 0.11507060D+01  1  2  1  4  7  2       -2 0.168220881407D-03 0.100000000000D+01
  </mgrwgt>
  </event>
  <event>
  8     66 0.26993063E-05 0.76911001E+02 0.75467711E-02 0.10238338E+00
        2 -1    0    0  501    0 0.00000000E+00 0.00000000E+00 0.19365165E+04 0.19365166E+04 0.32000000E+00 0.0000E+00 0.9000E+01
       -2 -1    0    0    0  501 0.00000000E+00 0.00000000E+00 -.78227649E+02 0.78228304E+02 0.32000000E+00 0.0000E+00 0.9000E+01
       25  2    1    2    0    0 -.87896265E+02 -.16703374E+02 0.18601529E+04 0.18863038E+04 0.29994756E+03 0.0000E+00 0.0000E+00
       23  2    1    2    0    0 0.87896265E+02 0.16703374E+02 -.18640111E+01 0.12844105E+03 0.92135074E+02 0.0000E+00 0.0000E+00
       24  1    3    3    0    0 -.15668778E+03 -.46616159E+02 0.80103200E+03 0.82148866E+03 0.80419002E+02 0.0000E+00 0.9000E+01
      -13  1    4    4    0    0 0.92404661E+02 -.35294235E+01 -.26547977E+02 0.96207507E+02 0.10565837E+00 0.0000E+00 0.9000E+01
       13  1    4    4    0    0 -.45083962E+01 0.20232798E+02 0.24683966E+02 0.32233539E+02 0.10565837E+00 0.0000E+00 0.9000E+01
      -24  1    3    3    0    0 0.68791513E+02 0.29912785E+02 0.10591209E+04 0.10648152E+04 0.80419002E+02 0.0000E+00 0.9000E+01
#aMCatNLO 1  0  0  2  1 0.91160831D+02 0.00000000D+00  -5  7  0 0.00000000D+00 0.00000000D+00 0.00000000D+00 0.00000000D+00 0.00000000D+00
  <mgrwgt>
 0.1082636862D-02    9    2    0
 0.389216935768394D+03 0.000000000000000D+00 0.000000000000000D+00 0.389216935768394D+03
 0.389216935768394D+03 0.000000000000000D+00 0.000000000000000D+00 -.389216935768394D+03
 0.213943906452432D+03 -.156687778047368D+03 -.466161587310382D+02 0.112163510597243D+03
 0.312380661025222D+03 0.924047883424070D+02 -.352945448236396D+01 -.298379917931832D+03
 0.245006351190573D+02 -.450852351568047D+01 0.202328286933460D+02 -.130608950693072D+02
 0.227608668940077D+03 0.687915132206416D+02 0.299127845200562D+02 0.199277302403896D+03
 0.000000000000000D+00 -.000000000000000D+00 -.000000000000000D+00 -.000000000000000D+00
 0.431717390169461D+03 0.000000000000000D+00 0.000000000000000D+00 0.431717390169461D+03
 0.444023890874677D+03 0.000000000000000D+00 0.000000000000000D+00 -.444023890874677D+03
 0.196854367350578D+03 -.132734691503871D+03 -.456648064980034D+02 0.112163510597243D+03
 0.325311816447333D+03 0.129587766156871D+03 -.205264651816121D+01 -.298379917931832D+03
 0.242345322280842D+02 -.166684243856453D+01 0.203456926298319D+02 -.130608950693072D+02
 0.237352809949325D+03 0.959027823117357D+02 0.309895712775116D+02 0.199277302403896D+03
 0.919877550688179D+02 -.910890145261711D+02 -.361781089117887D+01 -.123065007052161D+02
0.203567737019D-04 0.000000000000D+00 0.000000000000D+00 0.427904919837D-05 0.000000000000D+00  7 2 -2 24 -13 13 -24 21 0 0.29792567D+00 0.12035075D-01 0.41079195D+05 0.41079195D+05 0.41079195D+05 0.11548791D+01  1  2  2  2  7  2       -2 0.913674177409D-03 0.100000000000D+01
-.545481540100D-06 0.000000000000D+00 -.781753710770D-07 0.427904919837D-05 0.000000000000D+00  7 2 -2 24 -13 13 -24 21 2 0.29792567D+00 0.12035075D-01 0.41079195D+05 0.41079195D+05 0.41079195D+05 0.11548791D+01  1  2  3  2  7  2       -2 -.326539332314D-04 0.100000000000D+01
0.126557976489D-05 0.000000000000D+00 0.000000000000D+00 0.427904919837D-05 0.000000000000D+00  7 2 -2 24 -13 13 -24 21 2 0.29792567D+00 0.12035075D-01 0.41079195D+05 0.41079195D+05 0.41079195D+05 0.11548791D+01  1  2 15  2  7  2       -2 0.757608720072D-04 0.100000000000D+01
0.113926349834D-04 0.000000000000D+00 0.000000000000D+00 0.427904919837D-05 0.000000000000D+00  7 2 -2 24 -13 13 -24 21 2 0.29792567D+00 0.14306383D-01 0.70726967D+05 0.70726967D+05 0.70726967D+05 0.11342784D+01  1  2 12  2  7  2       -2 0.494888560172D-03 0.100000000000D+01
-.137917455007D-04 0.000000000000D+00 0.000000000000D+00 0.427904919837D-05 0.000000000000D+00  7 2 -2 24 -13 13 -24 21 2 0.29792567D+00 0.12035075D-01 0.41079195D+05 0.41079195D+05 0.41079195D+05 0.11548791D+01  1  2  4  2  7  2       -2 -.825609491098D-03 0.100000000000D+01
-.220512373201D-04 0.000000000000D+00 -.119009670690D-04 0.427904919837D-05 0.000000000000D+00  7 2 -2 24 -13 13 -24 21 2 0.29792567D+00 0.15495000D-01 0.41079195D+05 0.41079195D+05 0.41079195D+05 0.11548791D+01  1  2  5  2  7  2       -2 -.888303423969D-03 0.100000000000D+01
0.246378245908D-04 0.000000000000D+00 0.115308622816D-04 0.427904919837D-05 0.000000000000D+00  7 2 -2 24 -13 13 -24 21 2 0.29792567D+00 0.12035075D-01 0.41079195D+05 0.41079195D+05 0.41079195D+05 0.11548791D+01  1  2  6  2  7  2       -2 0.147488378618D-02 0.100000000000D+01
0.291092946633D-06 0.000000000000D+00 0.000000000000D+00 0.427904919837D-05 0.000000000000D+00  7 2 21 24 -13 13 -24 2 2 0.29792567D+00 0.14306383D-01 0.70726967D+05 0.70726967D+05 0.70726967D+05 0.11342784D+01  1  2 12  4  7  2       -2 0.174188957691D-03 0.100000000000D+01
-.549228055583D-06 0.000000000000D+00 -.405959670379D-06 0.427904919837D-05 0.000000000000D+00  7 2 21 24 -13 13 -24 2 2 0.29792567D+00 0.15495000D-01 0.41079195D+05 0.41079195D+05 0.41079195D+05 0.11548791D+01  1  2  5  4  7  2       -2 -.304192643356D-03 0.100000000000D+01
  </mgrwgt>
  </event>
  <event>
  8     66 0.26993063E-05 0.50689842E+03 0.75467711E-02 0.91506006E-01
        2 -1    0    0  501    0 0.00000000E+00 0.00000000E+00 0.39434453E+04 0.39434453E+04 0.32000000E+00 0.0000E+00 0.9000E+01
       -2 -1    0    0    0  501 0.00000000E+00 0.00000000E+00 -.71751581E+02 0.71752294E+02 0.32000000E+00 0.0000E+00 0.9000E+01
       25  2    1    2    0    0 -.30561095E+03 0.37429853E+03 0.19097064E+04 0.19925996E+04 0.29996237E+03 0.0000E+00 0.0000E+00
       23  2    1    2    0    0 0.30561095E+03 -.37429853E+03 0.19619874E+04 0.20225980E+04 0.89503006E+02 0.0000E+00 0.0000E+00
       24  1    3    3    0    0 -.63537665E+02 0.56154524E+02 0.17377202E+03 0.20941417E+03 0.80419002E+02 0.0000E+00 0.9000E+01
      -11  1    4    4    0    0 0.11953912E+03 -.20646137E+03 0.85983152E+03 0.89231504E+03 0.51099893E-03 0.0000E+00 0.9000E+01
       11  1    4    4    0    0 0.18607183E+03 -.16783716E+03 0.11021559E+04 0.11302830E+04 0.51099893E-03 0.0000E+00 0.9000E+01
      -24  1    3    3    0    0 -.24207328E+03 0.31814400E+03 0.17359343E+04 0.17831854E+04 0.80419002E+02 0.0000E+00 0.9000E+01
#aMCatNLO 1  0  0  2  1 0.27425912D+03 0.00000000D+00  -5  7  0 0.00000000D+00 0.00000000D+00 0.00000000D+00 0.00000000D+00 0.00000000D+00
  <mgrwgt>
 0.4029156440D-03    4    2    0
 0.531930347108766D+03 0.000000000000000D+00 0.000000000000000D+00 0.531930347108766D+03
 0.531930347108766D+03 0.000000000000000D+00 0.000000000000000D+00 -.531930347108766D+03
 0.157959830388564D+03 -.635376649603989D+02 0.561545237469676D+02 -.106271946703468D+03
 0.238580993134677D+03 0.119539116513856D+03 -.206461370085941D+03 -.223440606240282D+01
 0.254826155223926D+03 0.186071832653592D+03 -.167837155731232D+03 0.463069285873352D+02
 0.412493715470364D+03 -.242073284207049D+03 0.318144002070205D+03 0.621994241785359D+02
 0.000000000000000D+00 0.000000000000000D+00 -.000000000000000D+00 0.000000000000000D+00
 0.713729471211584D+03 0.000000000000000D+00 0.000000000000000D+00 0.713729471211584D+03
 0.663699119975934D+03 0.000000000000000D+00 0.000000000000000D+00 -.663699119975934D+03
 0.180689013492743D+03 -.106327424764517D+03 0.598502776051323D+02 -.106271946703468D+03
 0.211098980962090D+03 0.627200886979318D+02 -.201553907594234D+03 -.223440606240282D+01
 0.211643834323503D+03 0.127131313088258D+03 -.162746459882903D+03 0.463069285873352D+02
 0.495211717551625D+03 -.356765828279389D+03 0.328050003277000D+03 0.621994241785359D+02
 0.278785044857556D+03 0.273241851257716D+03 -.235999134049963D+02 0.500303512356500D+02
0.189997463791D-03 0.000000000000D+00 0.000000000000D+00 0.836120040748D-06 0.000000000000D+00  7 2 -2 24 -11 11 -24 21 0 0.60668395D+00 0.11038761D-01 0.25694601D+06 0.25694601D+06 0.25694601D+06 0.10895649D+01  1  2  2  2  7  2       -2 0.485043727841D-03 0.100000000000D+01
-.105255961743D-04 0.000000000000D+00 -.729640288439D-06 0.836120040748D-06 0.000000000000D+00  7 2 -2 24 -11 11 -24 21 2 0.60668395D+00 0.11038761D-01 0.25694601D+06 0.25694601D+06 0.25694601D+06 0.10895649D+01  1  2  3  2  7  2       -2 -.318996539363D-04 0.100000000000D+01
0.117942406338D-04 0.000000000000D+00 0.000000000000D+00 0.836120040748D-06 0.000000000000D+00  7 2 -2 24 -11 11 -24 21 2 0.60668395D+00 0.11038761D-01 0.25694601D+06 0.25694601D+06 0.25694601D+06 0.10895649D+01  1  2 15  2  7  2       -2 0.357445021100D-04 0.100000000000D+01
-.283675919065D-04 0.000000000000D+00 0.000000000000D+00 0.836120040748D-06 0.000000000000D+00  7 2 -2 24 -11 11 -24 21 2 0.60668395D+00 0.11038761D-01 0.25694601D+06 0.25694601D+06 0.25694601D+06 0.10895649D+01  1  2  4  2  7  2       -2 -.859729320640D-04 0.100000000000D+01
  </mgrwgt>
  </event>
  <event>
  8     66 0.26993063E-05 0.12138371E+03 0.75467711E-02 0.10273810E+00
        2 -1    0    0  501    0 0.00000000E+00 0.00000000E+00 0.19333011E+04 0.19333011E+04 0.32000000E+00 0.0000E+00 0.9000E+01
       -2 -1    0    0    0  501 0.00000000E+00 0.00000000E+00 -.36309969E+02 0.36311379E+02 0.32000000E+00 0.0000E+00 0.9000E+01
       25  2    1    2    0    0 0.39506799E+02 -.13844288E+03 0.93646905E+03 0.99404315E+03 0.30069966E+03 0.0000E+00 0.0000E+00
       23  2    1    2    0    0 -.39506799E+02 0.13844288E+03 0.96052208E+03 0.97556936E+03 0.91682521E+02 0.0000E+00 0.0000E+00
       24  1    3    3    0    0 0.44400059E+01 0.38959646E+02 0.98704908E+02 0.13321953E+03 0.80419002E+02 0.0000E+00 0.9000E+01
      -11  1    4    4    0    0 -.61402686E+02 0.70509541E+02 0.66551937E+03 0.67205500E+03 0.51099893E-03 0.0000E+00 0.9000E+01
       11  1    4    4    0    0 0.21895888E+02 0.67933335E+02 0.29500271E+03 0.30351436E+03 0.51099893E-03 0.0000E+00 0.9000E+01
      -24  1    3    3    0    0 0.35066793E+02 -.17740252E+03 0.83776414E+03 0.86082362E+03 0.80419002E+02 0.0000E+00 0.9000E+01
#aMCatNLO 1  0  0  1  2 0.66059816D+02 0.00000000D+00  -5  7  0 0.00000000D+00 0.00000000D+00 0.00000000D+00 0.00000000D+00 0.00000000D+00
  <mgrwgt>
 0.7132317605D-03    7    2    0
 0.264951916882536D+03 0.000000000000000D+00 0.000000000000000D+00 0.264951916882536D+03
 0.264951916882536D+03 0.000000000000000D+00 0.000000000000000D+00 -.264951916882536D+03
 0.141815377458314D+03 0.444000590201274D+01 0.389596456611958D+02 -.110030985121546D+03
 0.115499413315745D+03 -.614026863046821D+02 0.705095409319943D+02 0.678102442733365D+02
 0.720661984516093D+02 0.218958876690810D+02 0.679333347388425D+02 0.995836802443537D+01
 0.200522844539403D+03 0.350667927335884D+02 -.177402521332033D+03 0.322623728237737D+02
 0.000000000000000D+00 -.000000000000000D+00 0.000000000000000D+00 0.000000000000000D+00
 0.627364489020072D+03 0.000000000000000D+00 0.000000000000000D+00 0.627364489020072D+03
 0.270030239999427D+03 0.000000000000000D+00 0.000000000000000D+00 -.270030239999427D+03
 0.138668379645655D+03 0.113095494247704D+02 0.229560441751624D+02 -.110030985121546D+03
 0.105296796497975D+03 -.559949964311717D+02 0.579115402920656D+02 0.678102442733365D+02
 0.659185541746750D+02 0.252753784225931D+02 0.600603191497030D+02 0.995836802443537D+01
 0.224121861755395D+03 0.454670929923996D+02 -.201631534530029D+03 0.322623728237737D+02
 0.363389136945798D+03 -.260570244085913D+02 0.607036309130980D+02 0.357334249020645D+03
0.492481504975D-05 0.000000000000D+00 0.000000000000D+00 0.185532711650D-06 0.000000000000D+00  7 2 -2 24 -11 11 -24 21 0 0.29743105D+00 0.55862596D-02 0.51133150D+05 0.51133150D+05 0.51133150D+05 0.11464403D+01  1  2  2  1  7  1        2 0.704862979152D-03 0.100000000000D+01
-.265248528031D-06 0.000000000000D+00 -.189125865246D-07 0.185532711650D-06 0.000000000000D+00  7 2 -2 24 -11 11 -24 21 2 0.29743105D+00 0.55862596D-02 0.51133150D+05 0.51133150D+05 0.51133150D+05 0.11464403D+01  1  2  3  1  7  1        2 -.498965648381D-04 0.100000000000D+01
0.321362849436D-06 0.000000000000D+00 0.000000000000D+00 0.185532711650D-06 0.000000000000D+00  7 2 -2 24 -11 11 -24 21 2 0.29743105D+00 0.55862596D-02 0.51133150D+05 0.51133150D+05 0.51133150D+05 0.11464403D+01  1  2 15  1  7  1        2 0.604523703580D-04 0.100000000000D+01
0.290959255913D-04 0.000000000000D+00 0.000000000000D+00 0.185532711650D-06 0.000000000000D+00  7 2 -2 24 -11 11 -24 21 2 0.70286112D+00 0.55862596D-02 0.67069985D+05 0.67069985D+05 0.67069985D+05 0.11362416D+01  1  2 12  1  7  1        2 0.817560607807D-04 0.100000000000D+01
-.299341578741D-04 0.000000000000D+00 -.119478776008D-05 0.185532711650D-06 0.000000000000D+00  7 2 -2 24 -11 11 -24 21 2 0.70548653D+00 0.55862596D-02 0.51133150D+05 0.51133150D+05 0.51133150D+05 0.11464403D+01  1  2  5  1  7  1        2 -.839433037917D-04 0.100000000000D+01
0.273195343565D-05 0.000000000000D+00 0.000000000000D+00 0.185532711650D-06 0.000000000000D+00  7 21 -2 24 -11 11 -24 -2 2 0.70286112D+00 0.55862596D-02 0.67069985D+05 0.67069985D+05 0.67069985D+05 0.11362416D+01  1  2 12  3  7  1        2 0.851594025927D-07 0.100000000000D+01
-.274891713074D-05 0.000000000000D+00 -.112725169133D-06 0.185532711650D-06 0.000000000000D+00  7 21 -2 24 -11 11 -24 -2 2 0.70548653D+00 0.55862596D-02 0.51133150D+05 0.51133150D+05 0.51133150D+05 0.11464403D+01  1  2  5  3  7  1        2 -.849405188991D-07 0.100000000000D+01
  </mgrwgt>
  </event>
  <event>
  9     66 0.26993063E-05 0.30127642E+03 0.75467711E-02 0.99531725E-01
        2 -1    0    0  501    0 0.00000000E+00 0.00000000E+00 0.64480628E+03 0.64480636E+03 0.32000000E+00 0.0000E+00 0.9000E+01
       21 -1    0    0  502  501 0.00000000E+00 0.00000000E+00 -.28499641E+03 0.28499739E+03 0.75000000E+00 0.0000E+00 0.9000E+01
       25  2    1    2    0    0 0.34277103E+02 0.19606316E+03 0.35393454E+03 0.50501041E+03 0.30025017E+03 0.0000E+00 0.0000E+00
       23  2    1    2    0    0 0.37943846E+01 -.23946865E+03 -.12185722E+03 0.28461781E+03 0.93800220E+02 0.0000E+00 0.0000E+00
       24  1    3    3    0    0 0.13780574E+03 0.12304073E+03 0.14707402E+03 0.24945426E+03 0.80419002E+02 0.0000E+00 0.9000E+01
      -11  1    4    4    0    0 -.37017015E+02 -.16233778E+03 -.10153239E+03 0.19501959E+03 0.51099893E-03 0.0000E+00 0.9000E+01
       11  1    4    4    0    0 0.40811400E+02 -.77130868E+02 -.20324831E+02 0.89598214E+02 0.51099893E-03 0.0000E+00 0.9000E+01
      -24  1    3    3    0    0 -.10352864E+03 0.73022435E+02 0.20686052E+03 0.25555615E+03 0.80419002E+02 0.0000E+00 0.9000E+01
        2  1    1    2  502    0 -.38071488E+02 0.43405487E+02 0.12773256E+03 0.14017555E+03 0.32000000E+00 0.0000E+00 0.9000E+01
#aMCatNLO 2  0  0  2  2 0.57736249D+02 0.00000000D+00  -5  7  0 0.00000000D+00 0.00000000D+00 0.00000000D+00 0.00000000D+00 0.00000000D+00
  <mgrwgt>
 0.1330461091D-03    1    2    0
 0.376270965343101D+03 0.000000000000000D+00 0.000000000000000D+00 0.376270965343101D+03
 0.376270965343101D+03 0.000000000000000D+00 0.000000000000000D+00 -.376270965343101D+03
 0.216516503029254D+03 0.126887304526768D+03 0.135488888519993D+03 0.771657512578905D+02
 0.228451429584492D+03 -.487292727743572D+02 -.148984581214110D+03 -.166189976275758D+03
 0.937682713298790D+02 0.359174783387103D+02 -.715512846519498D+02 -.488143126822220D+02
 0.213805726742577D+03 -.114075510091121D+03 0.850469773460672D+02 0.137838537700089D+03
 0.000000000000000D+00 -.000000000000000D+00 0.000000000000000D+00 0.000000000000000D+00
 0.476330886424844D+03 0.000000000000000D+00 0.000000000000000D+00 0.476330886424844D+03
 0.385798511452284D+03 0.000000000000000D+00 0.000000000000000D+00 -.385798511452284D+03
 0.215757298110972D+03 0.137805739221390D+03 0.123040728233492D+03 0.771657512578905D+02
 0.235250767036253D+03 -.370170150844361D+02 -.162337782942995D+03 -.166189976275758D+03
 0.999878907168002D+02 0.408113997292895D+02 -.771308681365196D+02 -.488143126822220D+02
 0.203757534975758D+03 -.103528636346012D+03 0.730224354980230D+02 0.137838537700089D+03
 0.107375907037346D+03 -.380714875202315D+02 0.434054873479999D+02 0.905323749725597D+02
0.346246053665D-06 0.000000000000D+00 0.000000000000D+00 0.430257252321D-06 0.472337692900D-11  7 2 21 24 -11 11 -24 2 2 0.99200989D-01 0.43845657D-01 0.10990831D+06 0.10990831D+06 0.10990831D+06 0.11183705D+01  1  2  1  4  7  2       -2 0.133046109093D-03 0.100000000000D+01
  </mgrwgt>
  </event>
  <event>
  8     66 0.26993063E-05 0.40034971E+03 0.75467711E-02 0.86085018E-01
        2 -1    0    0  501    0 0.00000000E+00 0.00000000E+00 0.24987940E+04 0.24987940E+04 0.32000000E+00 0.0000E+00 0.9000E+01
       -2 -1    0    0    0  501 0.00000000E+00 0.00000000E+00 -.35154880E+03 0.35154894E+03 0.32000000E+00 0.0000E+00 0.9000E+01
       25  2    1    2    0    0 -.36826642E+03 0.10213036E+03 0.23570547E+04 0.24066035E+04 0.29997144E+03 0.0000E+00 0.0000E+00
       23  2    1    2    0    0 0.36826642E+03 -.10213036E+03 -.20980949E+03 0.44373945E+03 0.82667508E+02 0.0000E+00 0.0000E+00
       24  1    3    3    0    0 -.24652990E+03 0.64727109E+02 0.20177046E+04 0.20353293E+04 0.80419002E+02 0.0000E+00 0.9000E+01
      -13  1    4    4    0    0 0.22632077E+02 -.87526060E+00 0.65636187E+01 0.23581121E+02 0.10565837E+00 0.0000E+00 0.9000E+01
       13  1    4    4    0    0 0.34563434E+03 -.10125510E+03 -.21637311E+03 0.42015833E+03 0.10565837E+00 0.0000E+00 0.9000E+01
      -24  1    3    3    0    0 -.12173652E+03 0.37403249E+02 0.33935009E+03 0.37127413E+03 0.80419002E+02 0.0000E+00 0.9000E+01
#aMCatNLO 1  0  0  1  1 0.99907959D+03 0.00000000D+00  -5  7  0 0.00000000D+00 0.00000000D+00 0.00000000D+00 0.00000000D+00 0.00000000D+00
  <mgrwgt>
 0.1281796410D-02    3    2    0
 0.937255700470410D+03 0.000000000000000D+00 0.000000000000000D+00 0.937255700470410D+03
 0.937255700470410D+03 0.000000000000000D+00 0.000000000000000D+00 -.937255700470410D+03
 0.783606975903951D+03 -.246529898841201D+03 0.647271087519875D+02 0.736618006229090D+03
 0.283369596939688D+02 0.226315496969072D+02 -.875096627654653D+00 -.170302803531330D+02
 0.886739908400346D+03 0.345634868002861D+03 -.101255261308198D+03 -.810303384682495D+03
 0.175827556942554D+03 -.121736518858567D+03 0.374032491838647D+02 0.907156588065378D+02
 0.000000000000000D+00 -.000000000000000D+00 -.000000000000000D+00 -.000000000000000D+00
 0.148078742475445D+04 0.000000000000000D+00 0.000000000000000D+00 0.148078742475445D+04
 0.165802773390875D+04 0.000000000000000D+00 0.000000000000000D+00 -.165802773390875D+04
 0.881135967616496D+03 -.120832687236686D+03 0.461223104437895D+03 0.736618006229090D+03
 0.353110947681665D+02 0.274373264692804D+02 0.142841198902229D+02 -.170302803531330D+02
 0.100905108109514D+04 0.488777472746763D+03 0.350270026075098D+03 -.810303384682495D+03
 0.198637683460862D+03 -.934623419084693D+02 0.126590573221734D+03 0.907156588065378D+02
 0.101467933172254D+04 -.301919770070888D+03 -.952367823624950D+03 -.177240309154308D+03
0.780336009186D-03 0.000000000000D+00 0.000000000000D+00 0.679139735513D-06 0.000000000000D+00  7 2 -2 24 -13 13 -24 21 0 0.38442985D+00 0.54084443D-01 0.16027989D+06 0.16027989D+06 0.16027989D+06 0.11052873D+01  1  2  2  1  7  1        2 0.120265921426D-02 0.100000000000D+01
-.521386333901D-05 0.000000000000D+00 -.299669574246D-05 0.679139735513D-06 0.000000000000D+00  7 2 -2 24 -13 13 -24 21 2 0.38442985D+00 0.54084443D-01 0.16027989D+06 0.16027989D+06 0.16027989D+06 0.11052873D+01  1  2  3  1  7  1        2 -.981682207155D-05 0.100000000000D+01
0.472448301469D-04 0.000000000000D+00 0.000000000000D+00 0.679139735513D-06 0.000000000000D+00  7 2 -2 24 -13 13 -24 21 2 0.38442985D+00 0.54084443D-01 0.16027989D+06 0.16027989D+06 0.16027989D+06 0.11052873D+01  1  2 15  1  7  1        2 0.889540176250D-04 0.100000000000D+01
  </mgrwgt>
  </event>
  <event>
  8     66 0.26993063E-05 0.39969827E+03 0.75467711E-02 0.89666175E-01
        2 -1    0    0  501    0 0.00000000E+00 0.00000000E+00 0.57036085E+03 0.57036094E+03 0.32000000E+00 0.0000E+00 0.9000E+01
       -2 -1    0    0    0  501 0.00000000E+00 0.00000000E+00 -.32567717E+03 0.32567732E+03 0.32000000E+00 0.0000E+00 0.9000E+01
       25  2    1    2    0    0 0.14374574E+03 0.34336755E+03 0.16220535E+03 0.50398973E+03 0.29854808E+03 0.0000E+00 0.0000E+00
       23  2    1    2    0    0 -.14374574E+03 -.34336755E+03 0.82478338E+02 0.39204854E+03 0.91297703E+02 0.0000E+00 0.0000E+00
       24  1    3    3    0    0 0.11102721E+03 0.28443791E+03 0.21939046E+03 0.38448844E+03 0.80419002E+02 0.0000E+00 0.9000E+01
      -11  1    4    4    0    0 -.19406827E+02 -.13253213E+03 0.59567854E+00 0.13394680E+03 0.51099893E-03 0.0000E+00 0.9000E+01
       11  1    4    4    0    0 -.12433891E+03 -.21083543E+03 0.81882659E+02 0.25810175E+03 0.51099893E-03 0.0000E+00 0.9000E+01
      -24  1    3    3    0    0 0.32718530E+02 0.58929638E+02 -.57185116E+02 0.11950129E+03 0.80419002E+02 0.0000E+00 0.9000E+01
#aMCatNLO 1  0  0  1  2 0.61376929D+03 0.00000000D+00  -5  7  0 0.00000000D+00 0.00000000D+00 0.00000000D+00 0.00000000D+00 0.00000000D+00
  <mgrwgt>
 0.5595235136D-03    3    2    0
 0.430991435735640D+03 0.000000000000000D+00 0.000000000000000D+00 0.430991435735640D+03
 0.430991435735640D+03 0.000000000000000D+00 0.000000000000000D+00 -.430991435735640D+03
 0.337402396547161D+03 0.111027207442125D+03 0.284437913427686D+03 0.118916751779994D+03
 0.139069702766443D+03 -.194068265296337D+02 -.132532125408231D+03 -.374031154634539D+02
 0.245055554400918D+03 -.124338910597406D+03 -.210835425669486D+03 0.118525666823041D+02
 0.140455217756758D+03 0.327185296849143D+02 0.589296376500301D+02 -.933662029988441D+02
 0.000000000000000D+00 0.000000000000000D+00 0.000000000000000D+00 -.000000000000000D+00
 0.830027582338100D+03 0.000000000000000D+00 0.000000000000000D+00 0.830027582338100D+03
 0.842030704355089D+03 0.000000000000000D+00 0.000000000000000D+00 -.842030704355089D+03
 0.197722607668166D+03 0.342858739473244D+02 0.131568608043456D+03 0.118916751779994D+03
 0.261259926951300D+03 -.768173929954410D+02 -.246894399526620D+03 -.374031154634539D+02
 0.474718623184602D+03 -.227560456531391D+03 -.416453510592179D+03 0.118525666823041D+02
 0.124470479522472D+03 -.527399753040377D+01 -.167517582901462D+02 -.933662029988441D+02
 0.613886649366649D+03 0.275365973109911D+03 0.548531060365489D+03 -.120031220169888D+02
0.223967203600D-04 0.000000000000D+00 0.000000000000D+00 0.280783952771D-06 0.000000000000D+00  7 2 -2 24 -11 11 -24 21 0 0.87747843D-01 0.50104199D-01 0.15975871D+06 0.15975871D+06 0.15975871D+06 0.11053982D+01  1  2  2  1  7  1        2 0.553379955678D-03 0.100000000000D+01
-.123566645230D-05 0.000000000000D+00 -.860093033745D-07 0.280783952771D-06 0.000000000000D+00  7 2 -2 24 -11 11 -24 21 2 0.87747843D-01 0.50104199D-01 0.15975871D+06 0.15975871D+06 0.15975871D+06 0.11053982D+01  1  2  3  1  7  1        2 -.373059214398D-04 0.100000000000D+01
0.143915662583D-05 0.000000000000D+00 0.000000000000D+00 0.280783952771D-06 0.000000000000D+00  7 2 -2 24 -11 11 -24 21 2 0.87747843D-01 0.50104199D-01 0.15975871D+06 0.15975871D+06 0.15975871D+06 0.11053982D+01  1  2 15  1  7  1        2 0.434494793662D-04 0.100000000000D+01
  </mgrwgt>
  </event>
  <event>
  9     66 -.26993063E-05 0.43055875E+03 0.75467711E-02 0.96090102E-01
        2 -1    0    0  502    0 0.00000000E+00 0.00000000E+00 0.15652484E+04 0.15652485E+04 0.32000000E+00 0.0000E+00 0.9000E+01
       -2 -1    0    0    0  501 0.00000000E+00 0.00000000E+00 -.13330508E+03 0.13330547E+03 0.32000000E+00 0.0000E+00 0.9000E+01
       25  2    1    2    0    0 0.31397194E+03 0.21603385E+03 0.69808047E+03 0.85000320E+03 0.29990015E+03 0.0000E+00 0.0000E+00
       23  2    1    2    0    0 -.33194117E+03 -.20917557E+03 0.67557665E+03 0.78716851E+03 0.96390325E+02 0.0000E+00 0.0000E+00
       24  1    3    3    0    0 0.31834084E+03 0.19605607E+03 0.46186819E+03 0.59964015E+03 0.80419002E+02 0.0000E+00 0.9000E+01
      -11  1    4    4    0    0 -.23525333E+03 -.17586018E+03 0.56344055E+03 0.63540238E+03 0.51099893E-03 0.0000E+00 0.9000E+01
       11  1    4    4    0    0 -.96687836E+02 -.33315396E+02 0.11213610E+03 0.15176613E+03 0.51099893E-03 0.0000E+00 0.9000E+01
      -24  1    3    3    0    0 -.43688994E+01 0.19977778E+02 0.23621228E+03 0.25036305E+03 0.80419002E+02 0.0000E+00 0.9000E+01
       21  1    1    2  502  501 0.17969231E+02 -.68582802E+01 0.58286238E+02 0.61382223E+02 0.75000000E+00 0.0000E+00 0.9000E+01
#aMCatNLO 2  0  0  1  2 0.19233546D+02 0.00000000D+00  -5  7  0 0.00000000D+00 0.00000000D+00 0.00000000D+00 0.00000000D+00 0.00000000D+00
  <mgrwgt>
 -.1628541119D-03    3    2    0
 0.445260432000187D+03 0.000000000000000D+00 0.000000000000000D+00 0.445260432000187D+03
 0.445260432000187D+03 0.000000000000000D+00 0.000000000000000D+00 -.445260432000187D+03
 0.394871269765334D+03 0.326257269224556D+03 0.193034626296916D+03 -.758282998639850D+02
 0.295633118211258D+03 -.229255123099733D+03 -.178149501519504D+03 0.557116166000431D+02
 0.104345385985443D+03 -.945657211640081D+02 -.341253395403734D+02 -.279418173789095D+02
 0.956710900383395D+02 -.243642496081507D+01 0.192402147629616D+02 0.480585006428514D+02
 0.000000000000000D+00 0.000000000000000D+00 -.000000000000000D+00 0.000000000000000D+00
 0.463059465142708D+03 0.000000000000000D+00 0.000000000000000D+00 0.463059465142708D+03
 0.450590680999273D+03 0.000000000000000D+00 0.000000000000000D+00 -.450590680999273D+03
 0.389866670523132D+03 0.318340838481811D+03 0.196056074440087D+03 -.758282998639850D+02
 0.298956045541566D+03 -.235253334341444D+03 -.175860176341586D+03 0.557116166000431D+02
 0.106015085878005D+03 -.966878361033036D+02 -.333153962147395D+02 -.279418173789095D+02
 0.958907417236645D+02 -.436889935289022D+01 0.199777783637058D+02 0.480585006428514D+02
 0.229216024756142D+02 0.179692313158271D+02 -.685828024746777D+01 0.124687841434350D+02
-.390979988132D-04 0.000000000000D+00 0.000000000000D+00 0.196731934228D-06 0.000000000000D+00  7 2 -2 24 -11 11 -24 21 2 0.24215315D+00 0.20265627D-01 0.19387246D+06 0.19387246D+06 0.19387246D+06 0.10988648D+01  1  2 13  1  7  1        2 -.137783700235D-02 0.100000000000D+01
-.393832685855D-04 0.000000000000D+00 0.000000000000D+00 0.196731934228D-06 0.000000000000D+00  7 2 -2 24 -11 11 -24 21 2 0.23154822D+00 0.20265627D-01 0.18538084D+06 0.18538084D+06 0.18538084D+06 0.11003662D+01  1  2  8  1  7  1        2 -.151899225556D-02 0.100000000000D+01
0.782745298429D-04 0.000000000000D+00 0.000000000000D+00 0.196731934228D-06 0.342897405917D-08  7 2 -2 24 -11 11 -24 21 2 0.24080423D+00 0.20508229D-01 0.19387246D+06 0.19387246D+06 0.19387246D+06 0.10988648D+01  1  2  1  1  7  1        2 0.273397514600D-02 0.100000000000D+01
  </mgrwgt>
  </event>
  <event>
  8     66 0.26993063E-05 0.68488920E+02 0.75467711E-02 0.10085383E+00
        2 -1    0    0  501    0 0.00000000E+00 0.00000000E+00 0.15011406E+04 0.15011407E+04 0.32000000E+00 0.0000E+00 0.9000E+01
       -2 -1    0    0    0  501 0.00000000E+00 0.00000000E+00 -.43966981E+02 0.43968146E+02 0.32000000E+00 0.0000E+00 0.9000E+01
       25  2    1    2    0    0 0.77771125E+02 -.10776220E+03 0.10187724E+04 0.10704322E+04 0.30044416E+03 0.0000E+00 0.0000E+00
       23  2    1    2    0    0 -.77771125E+02 0.10776220E+03 0.43840122E+03 0.47467666E+03 0.12434331E+03 0.0000E+00 0.0000E+00
       24  1    3    3    0    0 0.12167873E+03 0.36135646E+02 0.36384926E+03 0.39365594E+03 0.80419002E+02 0.0000E+00 0.9000E+01
      -11  1    4    4    0    0 -.10374749E+03 0.57842836E+02 0.35258072E+03 0.37205175E+03 0.51099893E-03 0.0000E+00 0.9000E+01
       11  1    4    4    0    0 0.25976364E+02 0.49919368E+02 0.85820499E+02 0.10262491E+03 0.51099893E-03 0.0000E+00 0.9000E+01
      -24  1    3    3    0    0 -.43907608E+02 -.14389785E+03 0.65492317E+03 0.67677622E+03 0.80419002E+02 0.0000E+00 0.9000E+01
#aMCatNLO 1  0  0  2  1 0.92999491D+02 0.00000000D+00  -5  7  0 0.00000000D+00 0.00000000D+00 0.00000000D+00 0.00000000D+00 0.00000000D+00
  <mgrwgt>
 0.6982853422D-03    9    2    0
 0.256907664682353D+03 0.000000000000000D+00 0.000000000000000D+00 0.256907664682353D+03
 0.256907664682353D+03 0.000000000000000D+00 0.000000000000000D+00 -.256907664682353D+03
 0.151902255475363D+03 0.121678734656647D+03 0.361356437445354D+02 -.222616272463886D+02
 0.118893088433522D+03 -.103747486851920D+03 0.578428404965676D+02 0.512164548368887D+01
 0.652204891983671D+02 0.259763585144080D+02 0.499193688758552D+02 -.329696469596138D+02
 0.177799496257454D+03 -.439076063191352D+02 -.143897853116958D+03 0.501096287223135D+02
 0.000000000000000D+00 -.000000000000000D+00 -.000000000000000D+00 -.000000000000000D+00
 0.277755141140994D+03 0.000000000000000D+00 0.000000000000000D+00 0.277755141140994D+03
 0.390764593836070D+03 0.000000000000000D+00 0.000000000000000D+00 -.390764593836070D+03
 0.168519056927883D+03 0.132208434664130D+03 0.629031505530200D+02 -.222616272463886D+02
 0.123693489877188D+03 -.957755954808523D+02 0.781081525567311D+02 0.512164548368887D+01
 0.764094752502994D+02 0.306306089652586D+02 0.617509196838554D+02 -.329696469596138D+02
 0.153541839247450D+03 -.330190520067595D+02 -.116218104265240D+03 0.501096287223135D+02
 0.146355873674243D+03 -.340443961417772D+02 -.865441185283670D+02 -.113009452695077D+03
0.340883282832D-05 0.000000000000D+00 0.000000000000D+00 0.693287690979D-09 0.000000000000D+00  7 2 -2 24 -11 11 -24 21 0 0.23094481D+00 0.67642432D-02 0.61481833D+05 0.61481833D+05 0.61481833D+05 0.11394814D+01  1  2  2  2  7  2       -2 0.620399091498D-03 0.100000000000D+01
-.189089938072D-06 0.000000000000D+00 -.130908156270D-07 0.693287690979D-09 0.000000000000D+00  7 2 -2 24 -11 11 -24 21 2 0.23094481D+00 0.67642432D-02 0.61481833D+05 0.61481833D+05 0.61481833D+05 0.11394814D+01  1  2  3  2  7  2       -2 -.446836200846D-04 0.100000000000D+01
0.223005166641D-06 0.000000000000D+00 0.000000000000D+00 0.693287690979D-09 0.000000000000D+00  7 2 -2 24 -11 11 -24 21 2 0.23094481D+00 0.67642432D-02 0.61481833D+05 0.61481833D+05 0.61481833D+05 0.11394814D+01  1  2 15  2  7  2       -2 0.526980877181D-04 0.100000000000D+01
0.345144223749D-05 0.000000000000D+00 0.000000000000D+00 0.693287690979D-09 0.000000000000D+00  7 2 -2 24 -11 11 -24 21 2 0.23094481D+00 0.10447653D-01 0.89309650D+05 0.89309650D+05 0.89309650D+05 0.11257738D+01  1  2 12  2  7  2       -2 0.410164504114D-03 0.100000000000D+01
-.394533686299D-05 0.000000000000D+00 0.000000000000D+00 0.693287690979D-09 0.000000000000D+00  7 2 -2 24 -11 11 -24 21 2 0.23094481D+00 0.67642432D-02 0.61481833D+05 0.61481833D+05 0.61481833D+05 0.11394814D+01  1  2  4  2  7  2       -2 -.932317897450D-03 0.100000000000D+01
-.466534106413D-05 0.000000000000D+00 -.124271365193D-05 0.693287690979D-09 0.000000000000D+00  7 2 -2 24 -11 11 -24 21 2 0.23094481D+00 0.11148252D-01 0.61481833D+05 0.61481833D+05 0.61481833D+05 0.11394814D+01  1  2  5  2  7  2       -2 -.515951439574D-03 0.100000000000D+01
0.481332236879D-05 0.000000000000D+00 0.110224911476D-05 0.693287690979D-09 0.000000000000D+00  7 2 -2 24 -11 11 -24 21 2 0.23094481D+00 0.67642432D-02 0.61481833D+05 0.61481833D+05 0.61481833D+05 0.11394814D+01  1  2  6  2  7  2       -2 0.113743052785D-02 0.100000000000D+01
0.174746099252D-06 0.000000000000D+00 0.000000000000D+00 0.693287690979D-09 0.000000000000D+00  7 2 21 24 -11 11 -24 2 2 0.23094481D+00 0.10447653D-01 0.89309650D+05 0.89309650D+05 0.89309650D+05 0.11257738D+01  1  2 12  4  7  2       -2 0.301129147129D-03 0.100000000000D+01
-.206885248172D-06 0.000000000000D+00 -.700265608403D-07 0.693287690979D-09 0.000000000000D+00  7 2 21 24 -11 11 -24 2 2 0.23094481D+00 0.11148252D-01 0.61481833D+05 0.61481833D+05 0.61481833D+05 0.11394814D+01  1  2  5  4  7  2       -2 -.330583059021D-03 0.100000000000D+01
  </mgrwgt>
  </event>
  <event>
  8     66 0.26993063E-05 0.16911738E+03 0.75467711E-02 0.98822100E-01
        2 -1    0    0  501    0 0.00000000E+00 0.00000000E+00 0.32056786E+02 0.32058383E+02 0.32000000E+00 0.0000E+00 0.9000E+01
       -2 -1    0    0    0  501 0.00000000E+00 0.00000000E+00 -.14556994E+04 0.14556994E+04 0.32000000E+00 0.0000E+00 0.9000E+01
       25  2    1    2    0    0 -.75728414E+02 -.39014794E+01 -.88301523E+03 0.93385322E+03 0.29430585E+03 0.0000E+00 0.0000E+00
       23  2    1    2    0    0 0.75728414E+02 0.39014794E+01 -.54062734E+03 0.55390455E+03 0.93714009E+02 0.0000E+00 0.0000E+00
       24  1    3    3    0    0 -.57249378E+00 -.70186013E+02 -.12215603E+03 0.16222119E+03 0.80419002E+02 0.0000E+00 0.9000E+01
      -11  1    4    4    0    0 0.77839661E+02 -.18904157E+02 -.50655958E+03 0.51285377E+03 0.51099893E-03 0.0000E+00 0.9000E+01
       11  1    4    4    0    0 -.21112473E+01 0.22805637E+02 -.34067766E+02 0.41050787E+02 0.51099893E-03 0.0000E+00 0.9000E+01
      -24  1    3    3    0    0 -.75155920E+02 0.66284533E+02 -.76085920E+03 0.77163203E+03 0.80419002E+02 0.0000E+00 0.9000E+01
#aMCatNLO 1  0  0  1  1 0.27154605D+03 0.00000000D+00  -5  7  0 0.00000000D+00 0.00000000D+00 0.00000000D+00 0.00000000D+00 0.00000000D+00
  <mgrwgt>
 0.2489111604D-02    5    2    0
 0.216023742170702D+03 0.000000000000000D+00 0.000000000000000D+00 0.216023742170702D+03
 0.216023742170702D+03 0.000000000000000D+00 0.000000000000000D+00 -.216023742170702D+03
 0.156092377564135D+03 -.572494886539140D+00 -.701860125965604D+02 0.113891221192216D+03
 0.968467612843491D+02 0.778396624168341D+02 -.189041566069915D+02 -.544326647251386D+02
 0.291016739639542D+02 -.211124612036319D+01 0.228056361308602D+02 0.179541924906229D+02
 0.150006671528966D+03 -.751559214099318D+02 0.662845330726917D+02 -.774127489577002D+02
 0.000000000000000D+00 -.000000000000000D+00 0.000000000000000D+00 0.000000000000000D+00
 0.634150314435456D+03 0.000000000000000D+00 0.000000000000000D+00 0.634150314435456D+03
 0.303787205856644D+03 0.000000000000000D+00 0.000000000000000D+00 -.303787205856644D+03
 0.194050458951675D+03 0.976775947372800D+02 -.931463466093584D+02 0.113891221192216D+03
 0.164730014586732D+03 0.151238112970835D+03 -.360568426472203D+02 -.544326647251386D+02
 0.298184305892247D+02 0.144217368490977D+02 0.189419978109345D+02 0.179541924906229D+02
 0.121697366400845D+03 0.108423915823148D+01 0.484677599935350D+02 -.774127489577002D+02
 0.427641249763623D+03 -.264421683715444D+03 0.617934314521092D+02 0.330363108578812D+03
0.122055518924D-03 0.000000000000D+00 0.000000000000D+00 0.107253943305D-08 0.000000000000D+00  7 2 -2 24 -11 11 -24 21 0 0.49319388D-02 0.22395387D+00 0.28600688D+05 0.28600688D+05 0.28600688D+05 0.11692656D+01  1  2  2  1  7  1        2 0.231024641163D-02 0.100000000000D+01
-.628681031972D-05 0.000000000000D+00 -.468725330623D-06 0.107253943305D-08 0.000000000000D+00  7 2 -2 24 -11 11 -24 21 2 0.49319388D-02 0.22395387D+00 0.28600688D+05 0.28600688D+05 0.28600688D+05 0.11692656D+01  1  2  3  1  7  1        2 -.162688761486D-03 0.100000000000D+01
0.789820000593D-05 0.000000000000D+00 0.000000000000D+00 0.107253943305D-08 0.000000000000D+00  7 2 -2 24 -11 11 -24 21 2 0.49319388D-02 0.22395387D+00 0.28600688D+05 0.28600688D+05 0.28600688D+05 0.11692656D+01  1  2 15  1  7  1        2 0.204387966487D-03 0.100000000000D+01
0.143485060002D-04 0.000000000000D+00 -.509447247405D-04 0.107253943305D-08 0.000000000000D+00  7 2 -2 24 -11 11 -24 21 2 0.20969244D-01 0.22395387D+00 0.28600688D+05 0.28600688D+05 0.28600688D+05 0.11692656D+01  1  2  5  1  7  1        2 0.609987165349D-04 0.100000000000D+01
0.256443852111D-05 0.000000000000D+00 -.886416888134D-05 0.107253943305D-08 0.000000000000D+00  7 21 -2 24 -11 11 -24 -2 2 0.20969244D-01 0.22395387D+00 0.28600688D+05 0.28600688D+05 0.28600688D+05 0.11692656D+01  1  2  5  3  7  1        2 0.761672707504D-04 0.100000000000D+01
  </mgrwgt>
  </event>
  <event>
  8     66 0.26993063E-05 0.18594590E+03 0.75467711E-02 0.95498262E-01
        2 -1    0    0  501    0 0.00000000E+00 0.00000000E+00 0.12508806E+04 0.12508807E+04 0.32000000E+00 0.0000E+00 0.9000E+01
       -2 -1    0    0    0  501 0.00000000E+00 0.00000000E+00 -.27961933E+03 0.27961951E+03 0.32000000E+00 0.0000E+00 0.9000E+01
       25  2    1    2    0    0 0.61242628E+02 0.29594157E+03 0.11076917E+04 0.11861400E+04 0.29768322E+03 0.0000E+00 0.0000E+00
       23  2    1    2    0    0 -.61242628E+02 -.29594157E+03 -.13643035E+03 0.34436015E+03 0.92944058E+02 0.0000E+00 0.0000E+00
       24  1    3    3    0    0 -.80242293E+02 0.17099735E+03 0.70368316E+03 0.73301850E+03 0.80419002E+02 0.0000E+00 0.9000E+01
      -13  1    4    4    0    0 -.66478018E+02 -.29056056E+03 -.14623708E+03 0.33200913E+03 0.10565837E+00 0.0000E+00 0.9000E+01
       13  1    4    4    0    0 0.52353906E+01 -.53810118E+01 0.98067299E+01 0.12351021E+02 0.10565837E+00 0.0000E+00 0.9000E+01
      -24  1    3    3    0    0 0.14148492E+03 0.12494422E+03 0.40400850E+03 0.45312153E+03 0.80419002E+02 0.0000E+00 0.9000E+01
#aMCatNLO 1  0  0  2  1 0.19225473D+03 0.00000000D+00  -5  7  0 0.00000000D+00 0.00000000D+00 0.00000000D+00 0.00000000D+00 0.00000000D+00
  <mgrwgt>
 0.1312097163D-02    9    2    0
 0.591414044571456D+03 0.000000000000000D+00 0.000000000000000D+00 0.591414044571456D+03
 0.591414044571456D+03 0.000000000000000D+00 0.000000000000000D+00 -.591414044571456D+03
 0.370658028181098D+03 -.802422926107633D+02 0.170997353556805D+03 0.308611790853601D+03
 0.549678592035666D+03 -.664781109124343D+02 -.290560930939952D+03 -.461845819211493D+03
 0.792804503606489D+01 0.523548323014898D+01 -.538064326814863D+01 0.254799753956491D+01
 0.254563423890083D+03 0.141484920293049D+03 0.124944220651295D+03 0.150686030818326D+03
 0.000000000000000D+00 -.000000000000000D+00 0.000000000000000D+00 -.000000000000000D+00
 0.684056209828485D+03 0.000000000000000D+00 0.000000000000000D+00 0.684056209828485D+03
 0.708039242727940D+03 0.000000000000000D+00 0.000000000000000D+00 -.708039242727940D+03
 0.345731018539344D+03 -.437427327887887D+02 0.126127146563232D+03 0.308611790853601D+03
 0.586710394113950D+03 -.857982509848759D+01 -.361737352839723D+03 -.461845819211493D+03
 0.924751956964538D+01 0.611056716767176D+01 -.645641507484746D+01 0.254799753956491D+01
 0.256661671358054D+03 0.167531509128997D+03 0.929242226500638D+02 0.150686030818326D+03
 0.193744848975432D+03 -.121319518409392D+03 0.149142398701275D+03 -.239830328994545D+02
0.954418042144D-04 0.000000000000D+00 0.000000000000D+00 0.296864234751D-06 0.000000000000D+00  7 2 -2 24 -13 13 -24 21 0 0.19244319D+00 0.43018375D-01 0.12818017D+06 0.12818017D+06 0.12818017D+06 0.11129800D+01  1  2  2  2  7  2       -2 0.112286390128D-02 0.100000000000D+01
-.367820619125D-05 0.000000000000D+00 -.366521658587D-06 0.296864234751D-06 0.000000000000D+00  7 2 -2 24 -13 13 -24 21 2 0.19244319D+00 0.43018375D-01 0.12818017D+06 0.12818017D+06 0.12818017D+06 0.11129800D+01  1  2  3  2  7  2       -2 -.536042592383D-04 0.100000000000D+01
0.582805968664D-05 0.000000000000D+00 0.000000000000D+00 0.296864234751D-06 0.000000000000D+00  7 2 -2 24 -13 13 -24 21 2 0.19244319D+00 0.43018375D-01 0.12818017D+06 0.12818017D+06 0.12818017D+06 0.11129800D+01  1  2 15  2  7  2       -2 0.849351031603D-04 0.100000000000D+01
0.305426653884D-04 0.000000000000D+00 0.000000000000D+00 0.296864234751D-06 0.000000000000D+00  7 2 -2 24 -13 13 -24 21 2 0.19244319D+00 0.54294627D-01 0.21464830D+06 0.21464830D+06 0.21464830D+06 0.10954755D+01  1  2 12  2  7  2       -2 0.268467305064D-03 0.100000000000D+01
-.500155700807D-04 0.000000000000D+00 0.000000000000D+00 0.296864234751D-06 0.000000000000D+00  7 2 -2 24 -13 13 -24 21 2 0.19244319D+00 0.43018375D-01 0.12818017D+06 0.12818017D+06 0.12818017D+06 0.11129800D+01  1  2  4  2  7  2       -2 -.728900840560D-03 0.100000000000D+01
-.735964806461D-04 0.000000000000D+00 -.448550851082D-04 0.296864234751D-06 0.000000000000D+00  7 2 -2 24 -13 13 -24 21 2 0.19244319D+00 0.59269155D-01 0.12818017D+06 0.12818017D+06 0.12818017D+06 0.11129800D+01  1  2  5  2  7  2       -2 -.570278152299D-03 0.100000000000D+01
0.857391013863D-04 0.000000000000D+00 0.426464761607D-04 0.296864234751D-06 0.000000000000D+00  7 2 -2 24 -13 13 -24 21 2 0.19244319D+00 0.43018375D-01 0.12818017D+06 0.12818017D+06 0.12818017D+06 0.11129800D+01  1  2  6  2  7  2       -2 0.124951695979D-02 0.100000000000D+01
0.980414601679D-06 0.000000000000D+00 0.000000000000D+00 0.296864234751D-06 0.000000000000D+00  7 2 21 24 -13 13 -24 2 2 0.19244319D+00 0.54294627D-01 0.21464830D+06 0.21464830D+06 0.21464830D+06 0.10954755D+01  1  2 12  4  7  2       -2 0.894022187129D-04 0.100000000000D+01
-.187081668345D-05 0.000000000000D+00 -.181840007321D-05 0.296864234751D-06 0.000000000000D+00  7 2 21 24 -13 13 -24 2 2 0.19244319D+00 0.59269155D-01 0.12818017D+06 0.12818017D+06 0.12818017D+06 0.11129800D+01  1  2  5  4  7  2       -2 -.150305073348D-03 0.100000000000D+01
  </mgrwgt>
  </event>
  <event>
  8     66 0.26993063E-05 0.14733375E+03 0.75467711E-02 0.10966671E+00
        2 -1    0    0  501    0 0.00000000E+00 0.00000000E+00 0.42220470E+04 0.42220470E+04 0.32000000E+00 0.0000E+00 0.9000E+01
       -2 -1    0    0    0  501 0.00000000E+00 0.00000000E+00 -.13849761E+02 0.13853457E+02 0.32000000E+00 0.0000E+00 0.9000E+01
       25  2    1    2    0    0 -.39773788E+01 -.60061513E+02 0.38351248E+04 0.38473024E+04 0.29988294E+03 0.0000E+00 0.0000E+00
       23  2    1    2    0    0 0.39773788E+01 0.60061513E+02 0.37307235E+03 0.38859805E+03 0.90566342E+02 0.0000E+00 0.0000E+00
       24  1    3    3    0    0 0.53673089E+02 -.54939072E+02 0.57400639E+03 0.58467910E+03 0.80419002E+02 0.0000E+00 0.9000E+01
      -11  1    4    4    0    0 0.13002391E+02 0.82826229E+02 0.27373086E+03 0.28628278E+03 0.51099893E-03 0.0000E+00 0.9000E+01
       11  1    4    4    0    0 -.90250126E+01 -.22764716E+02 0.99341488E+02 0.10231527E+03 0.51099893E-03 0.0000E+00 0.9000E+01
      -24  1    3    3    0    0 -.57650468E+02 -.51224407E+01 0.32611185E+04 0.32626233E+04 0.80419002E+02 0.0000E+00 0.9000E+01
#aMCatNLO 1  0  0  1  2 0.79494643D+00 0.00000000D+00  -5  7  0 0.00000000D+00 0.00000000D+00 0.00000000D+00 0.00000000D+00 0.00000000D+00
  <mgrwgt>
 0.1775178168D-02   10    2    0
 0.241830924516031D+03 0.000000000000000D+00 0.000000000000000D+00 0.241830924516031D+03
 0.241830924516031D+03 0.000000000000000D+00 0.000000000000000D+00 -.241830924516031D+03
 0.126349395643155D+03 0.536730889506084D+02 -.549390722194198D+02 -.599820947549292D+02
 0.125608235208537D+03 0.130023914174743D+02 0.828262287022668D+02 -.935317187300105D+02
 0.317344081792061D+02 -.902501264009493D+01 -.227647157965077D+02 -.201838926878544D+02
 0.199969810001164D+03 -.576504677279878D+02 -.512244068633931D+01 0.173697706172794D+03
 0.000000000000000D+00 0.000000000000000D+00 0.000000000000000D+00 0.000000000000000D+00
 0.242261088343054D+03 0.000000000000000D+00 0.000000000000000D+00 0.242261088343054D+03
 0.242198797204483D+03 0.000000000000000D+00 0.000000000000000D+00 -.242198797204483D+03
 0.126382278215559D+03 0.535672096784406D+02 -.551177525726614D+02 -.599820947549292D+02
 0.125480394681302D+03 0.128972004812674D+02 0.826487099749991D+02 -.935317187300105D+02
 0.317742020766945D+02 -.905161890328157D+01 -.228096161477029D+02 -.201838926878544D+02
 0.200025627344891D+03 -.578180416024058D+02 -.540523597253665D+01 0.173697706172794D+03
 0.797383229090673D+00 0.405250345979398D+00 0.683894717901871D+00 0.622911385717701D-01
0.120640447567D-04 0.000000000000D+00 0.000000000000D+00 0.777422659776D-06 0.000000000000D+00  7 2 -2 24 -11 11 -24 21 0 0.64954597D+00 0.21310177D-02 0.25378706D+05 0.25378706D+05 0.25378706D+05 0.11741373D+01  1  2  2  1  7  1        2 0.240589408042D-03 0.100000000000D+01
-.528247321395D-06 0.000000000000D+00 -.463291084018D-07 0.777422659776D-06 0.000000000000D+00  7 2 -2 24 -11 11 -24 21 2 0.64954597D+00 0.21310177D-02 0.25378706D+05 0.25378706D+05 0.25378706D+05 0.11741373D+01  1  2  3  1  7  1        2 -.145230763606D-04 0.100000000000D+01
0.731179027438D-06 0.000000000000D+00 0.000000000000D+00 0.777422659776D-06 0.000000000000D+00  7 2 -2 24 -11 11 -24 21 2 0.64954597D+00 0.21310177D-02 0.25378706D+05 0.25378706D+05 0.25378706D+05 0.11741373D+01  1  2 15  1  7  1        2 0.201022672878D-04 0.100000000000D+01
-.325140105458D-03 0.000000000000D+00 0.000000000000D+00 0.777422659776D-06 0.000000000000D+00  7 2 -2 24 -11 11 -24 21 2 0.64954597D+00 0.21310177D-02 0.25378706D+05 0.25378706D+05 0.25378706D+05 0.11741373D+01  1  2  4  1  7  1        2 -.893906014891D-02 0.100000000000D+01
-.344280031363D-02 0.000000000000D+00 -.289393639686D-03 0.777422659776D-06 0.000000000000D+00  7 2 -2 24 -11 11 -24 21 2 0.65090577D+00 0.21310177D-02 0.25378706D+05 0.25378706D+05 0.25378706D+05 0.11741373D+01  1  2  5  1  7  1        2 -.930047298667D-01 0.100000000000D+01
0.344419455334D-02 0.000000000000D+00 0.290006067156D-03 0.777422659776D-06 0.000000000000D+00  7 2 -2 24 -11 11 -24 21 2 0.64954597D+00 0.21310177D-02 0.25378706D+05 0.25378706D+05 0.25378706D+05 0.11741373D+01  1  2  6  1  7  1        2 0.946910632066D-01 0.100000000000D+01
0.325140968351D-03 0.000000000000D+00 0.000000000000D+00 0.777422659776D-06 0.904203137165D-05  7 2 -2 24 -11 11 -24 21 2 0.65070137D+00 0.21342594D-02 0.25507080D+05 0.25507080D+05 0.25507080D+05 0.11739304D+01  1  2 11  1  7  1        2 0.878225393432D-02 0.100000000000D+01
0.203375695004D-12 0.000000000000D+00 0.000000000000D+00 0.777422659776D-06 0.000000000000D+00  7 21 -2 24 -11 11 -24 -2 2 0.65119460D+00 0.21310177D-02 0.25507080D+05 0.25507080D+05 0.25507080D+05 0.11739304D+01  1  2 12  3  7  1        2 0.908297854892D-13 0.100000000000D+01
-.134526555818D-05 0.000000000000D+00 -.113119626913D-06 0.777422659776D-06 0.000000000000D+00  7 21 -2 24 -11 11 -24 -2 2 0.65090577D+00 0.21310177D-02 0.25378706D+05 0.25378706D+05 0.25378706D+05 0.11741373D+01  1  2  5  3  7  1        2 -.604805796885D-06 0.100000000000D+01
0.193858937535D-06 0.000000000000D+00 0.000000000000D+00 0.777422659776D-06 0.301011692569D-08  7 21 -2 24 -11 11 -24 -2 2 0.65070137D+00 0.21342594D-02 0.25507080D+05 0.25507080D+05 0.25507080D+05 0.11739304D+01  1  2 11  3  7  1        2 0.872491637701D-07 0.100000000000D+01
  </mgrwgt>
  </event>
  <event>
  9     66 -.26993063E-05 0.62052358E+03 0.75467711E-02 0.92000672E-01
        2 -1    0    0  501    0 0.00000000E+00 0.00000000E+00 0.13770084E+04 0.13770084E+04 0.32000000E+00 0.0000E+00 0.9000E+01
       -2 -1    0    0    0  502 0.00000000E+00 0.00000000E+00 -.48636601E+03 0.48636611E+03 0.32000000E+00 0.0000E+00 0.9000E+01
       25  2    1    2    0    0 -.14488489E+03 0.58583424E+03 0.10264739E+04 0.12280701E+04 0.30052300E+03 0.0000E+00 0.0000E+00
       23  2    1    2    0    0 0.12667454E+03 -.56380035E+03 -.12129889E+03 0.60322846E+03 0.12350659E+03 0.0000E+00 0.0000E+00
       24  1    3    3    0    0 0.58154040E+01 0.39212006E+02 0.23183315E+03 0.24856634E+03 0.80419002E+02 0.0000E+00 0.9000E+01
      -11  1    4    4    0    0 0.60120913E+02 -.23611379E+03 0.10353353E+02 0.24386767E+03 0.51099893E-03 0.0000E+00 0.9000E+01
       11  1    4    4    0    0 0.66553622E+02 -.32768656E+03 -.13165224E+03 0.35936079E+03 0.51099893E-03 0.0000E+00 0.9000E+01
      -24  1    3    3    0    0 -.15070030E+03 0.54662223E+03 0.79464076E+03 0.97950375E+03 0.80419002E+02 0.0000E+00 0.9000E+01
       21  1    1    2  501  502 0.18210360E+02 -.22033887E+02 -.14532636E+02 0.32075994E+02 0.75000000E+00 0.0000E+00 0.9000E+01
#aMCatNLO 2  0  0  2  1 0.28585125D+02 0.00000000D+00  -5  7  0 0.00000000D+00 0.00000000D+00 0.00000000D+00 0.00000000D+00 0.00000000D+00
  <mgrwgt>
 -.1973316780D-03    3    2    0
 0.795847888594017D+03 0.000000000000000D+00 0.000000000000000D+00 0.795847888594017D+03
 0.795847888594017D+03 0.000000000000000D+00 0.000000000000000D+00 -.795847888594017D+03
 0.153667248890432D+03 0.757592900493705D+01 0.370818336176260D+02 0.125355296427596D+03
 0.278646361900869D+03 0.632857245666028D+02 -.239943102592108D+03 -.126751803084387D+03
 0.493622838797165D+03 0.721698816777286D+02 -.334482030788820D+03 -.355776314894881D+03
 0.665759327599569D+03 -.143031535249268D+03 0.537343299763302D+03 0.357172821551673D+03
 0.000000000000000D+00 0.000000000000000D+00 -.000000000000000D+00 -.000000000000000D+00
 0.801076071739005D+03 0.000000000000000D+00 0.000000000000000D+00 0.801076071739005D+03
 0.836031744744655D+03 0.000000000000000D+00 0.000000000000000D+00 -.836031744744655D+03
 0.154118677174516D+03 0.581540396721307D+01 0.392120062468114D+02 0.125355296427596D+03
 0.274645711646356D+03 0.601209127082186D+02 -.236113792895970D+03 -.126751803084387D+03
 0.488246505886381D+03 0.665536223926167D+02 -.327686556966408D+03 -.355776314894881D+03
 0.674941540664577D+03 -.150700298655231D+03 0.546622230512392D+03 0.357172821551673D+03
 0.451553811118296D+02 0.182103595871830D+02 -.220338868968263D+02 -.349556730056500D+02
-.697469532990D-03 0.000000000000D+00 0.000000000000D+00 0.171983172412D-07 0.000000000000D+00  7 2 -2 24 -11 11 -24 21 2 0.21046403D+00 0.75052177D-01 0.40256355D+06 0.40256355D+06 0.40256355D+06 0.10752277D+01  1  2 13  2  7  2       -2 -.249030224778D-02 0.100000000000D+01
-.504444328390D-03 0.000000000000D+00 0.000000000000D+00 0.171983172412D-07 0.000000000000D+00  7 2 -2 24 -11 11 -24 21 2 0.21046403D+00 0.71228786D-01 0.38504952D+06 0.38504952D+06 0.38504952D+06 0.10766223D+01  1  2  8  2  7  2       -2 -.203003333622D-02 0.100000000000D+01
0.121674741724D-02 0.000000000000D+00 0.000000000000D+00 0.171983172412D-07 0.129930325420D-09  7 2 -2 24 -11 11 -24 21 2 0.21184664D+00 0.74825261D-01 0.40256355D+06 0.40256355D+06 0.40256355D+06 0.10752277D+01  1  2  1  2  7  2       -2 0.432300390604D-02 0.100000000000D+01
  </mgrwgt>
  </event>
  <event>
  8     66 0.26993063E-05 0.97975010E+02 0.75467711E-02 0.10660290E+00
        2 -1    0    0  501    0 0.00000000E+00 0.00000000E+00 0.70922063E+03 0.70922071E+03 0.32000000E+00 0.0000E+00 0.9000E+01
       -2 -1    0    0    0  501 0.00000000E+00 0.00000000E+00 -.12551695E+03 0.12551736E+03 0.32000000E+00 0.0000E+00 0.9000E+01
       25  2    1    2    0    0 0.22376974E+02 0.11224216E+03 0.11095888E+03 0.33993012E+03 0.30023588E+03 0.0000E+00 0.0000E+00
       23  2    1    2    0    0 -.22376974E+02 -.11224216E+03 0.47274480E+03 0.49480794E+03 0.90819712E+02 0.0000E+00 0.0000E+00
       24  1    3    3    0    0 -.51842333E+02 0.14551652E+02 -.60613367E+02 0.11419533E+03 0.80419002E+02 0.0000E+00 0.9000E+01
      -13  1    4    4    0    0 -.30921053E+01 -.12288313E+03 0.42080030E+03 0.43838651E+03 0.10565837E+00 0.0000E+00 0.9000E+01
       13  1    4    4    0    0 -.19284869E+02 0.10640962E+02 0.51944500E+02 0.56421436E+02 0.10565837E+00 0.0000E+00 0.9000E+01
      -24  1    3    3    0    0 0.74219307E+02 0.97690512E+02 0.17157225E+03 0.22573479E+03 0.80419002E+02 0.0000E+00 0.9000E+01
#aMCatNLO 1  0  0  2  1 0.37431793D+01 0.00000000D+00  -5  7  0 0.00000000D+00 0.00000000D+00 0.00000000D+00 0.00000000D+00 0.00000000D+00
  <mgrwgt>
 0.2176335242D-03   11    2    0
 0.298361209587703D+03 0.000000000000000D+00 0.000000000000000D+00 0.298361209587703D+03
 0.298361209587703D+03 0.000000000000000D+00 0.000000000000000D+00 -.298361209587703D+03
 0.219035574620151D+03 -.518423332897180D+02 0.145516518626967D+02 -.196494246485626D+03
 0.201627010979143D+03 -.309208386229628D+01 -.122883305466669D+03 0.159823602172387D+03
 0.281148881839355D+02 -.192848903482138D+02 0.106411417520214D+02 0.174730090157922D+02
 0.147944945392176D+03 0.742193075002281D+02 0.976905118519511D+02 0.191976352974465D+02
 0.000000000000000D+00 0.000000000000000D+00 -.000000000000000D+00 -.000000000000000D+00
 0.298924902786612D+03 0.000000000000000D+00 0.000000000000000D+00 0.298924902786612D+03
 0.304646575403486D+03 0.000000000000000D+00 0.000000000000000D+00 -.304646575403486D+03
 0.219371194896585D+03 -.530685609528413D+02 0.151737975611215D+02 -.196494246485626D+03
 0.201299502904452D+03 -.421907293245719D+01 -.122311510013624D+03 0.159823602172387D+03
 0.282535245263406D+02 -.194425533037103D+02 0.107211345074558D+02 0.174730090157922D+02
 0.147809937024928D+03 0.733920784436982D+02 0.981102193945302D+02 0.191976352974465D+02
 0.683731883779186D+01 0.333810874531064D+01 -.169364144948370D+01 -.572167261687479D+01
0.440263909706D-05 0.000000000000D+00 0.000000000000D+00 0.141417055284D-05 0.000000000000D+00  7 2 -2 24 -13 13 -24 21 0 0.10911090D+00 0.19310337D-01 0.37718180D+05 0.37718180D+05 0.37718180D+05 0.11582216D+01  1  2  2  2  7  2       -2 0.464174170360D-03 0.100000000000D+01
-.189768742118D-06 0.000000000000D+00 -.169072933742D-07 0.141417055284D-05 0.000000000000D+00  7 2 -2 24 -13 13 -24 21 2 0.10911090D+00 0.19310337D-01 0.37718180D+05 0.37718180D+05 0.37718180D+05 0.11582216D+01  1  2  3  2  7  2       -2 -.268395892425D-04 0.100000000000D+01
0.265515140925D-06 0.000000000000D+00 0.000000000000D+00 0.141417055284D-05 0.000000000000D+00  7 2 -2 24 -13 13 -24 21 2 0.10911090D+00 0.19310337D-01 0.37718180D+05 0.37718180D+05 0.37718180D+05 0.11582216D+01  1  2 15  2  7  2       -2 0.375526403377D-04 0.100000000000D+01
0.818907573136D-06 0.000000000000D+00 0.000000000000D+00 0.141417055284D-05 0.000000000000D+00  7 2 -2 24 -13 13 -24 21 2 0.10911090D+00 0.19735161D-01 0.38499607D+05 0.38499607D+05 0.38499607D+05 0.11574159D+01  1  2 12  2  7  2       -2 0.111633770401D-03 0.100000000000D+01
-.149774312876D-03 0.000000000000D+00 0.000000000000D+00 0.141417055284D-05 0.000000000000D+00  7 2 -2 24 -13 13 -24 21 2 0.10911090D+00 0.19310337D-01 0.37718180D+05 0.37718180D+05 0.37718180D+05 0.11582216D+01  1  2  4  2  7  2       -2 -.211830514963D-01 0.100000000000D+01
-.301526043990D-03 0.000000000000D+00 -.249817571068D-04 0.141417055284D-05 0.000000000000D+00  7 2 -2 24 -13 13 -24 21 2 0.10911090D+00 0.19747382D-01 0.37718180D+05 0.37718180D+05 0.37718180D+05 0.11582216D+01  1  2  5  2  7  2       -2 -.411197647042D-01 0.100000000000D+01
0.302015760308D-03 0.000000000000D+00 0.249755019588D-04 0.141417055284D-05 0.000000000000D+00  7 2 -2 24 -13 13 -24 21 2 0.10911090D+00 0.19310337D-01 0.37718180D+05 0.37718180D+05 0.37718180D+05 0.11582216D+01  1  2  6  2  7  2       -2 0.427150375819D-01 0.100000000000D+01
0.148969039298D-03 0.000000000000D+00 0.000000000000D+00 0.141417055284D-05 0.721242953265D-06  7 2 -2 24 -13 13 -24 21 2 0.10931705D+00 0.19717134D-01 0.38499607D+05 0.38499607D+05 0.38499607D+05 0.11574159D+01  1  2 11  2  7  2       -2 0.202923887146D-01 0.100000000000D+01
0.417092275698D-07 0.000000000000D+00 0.000000000000D+00 0.141417055284D-05 0.000000000000D+00  7 2 21 24 -13 13 -24 2 2 0.10911090D+00 0.19735161D-01 0.38499607D+05 0.38499607D+05 0.38499607D+05 0.11574159D+01  1  2 12  4  7  2       -2 0.749021641000D-04 0.100000000000D+01
-.121931243056D-05 0.000000000000D+00 -.101399325022D-06 0.141417055284D-05 0.000000000000D+00  7 2 21 24 -13 13 -24 2 2 0.10911090D+00 0.19747382D-01 0.37718180D+05 0.37718180D+05 0.37718180D+05 0.11582216D+01  1  2  5  4  7  2       -2 -.219138564973D-02 0.100000000000D+01
0.581120838135D-06 0.000000000000D+00 0.000000000000D+00 0.141417055284D-05 0.273892439938D-08  7 2 21 24 -13 13 -24 2 2 0.10931705D+00 0.19717134D-01 0.38499607D+05 0.38499607D+05 0.38499607D+05 0.11574159D+01  1  2 11  4  7  2       -2 0.104298592187D-02 0.100000000000D+01
  </mgrwgt>
  </event>
  <event>
  8     66 0.26993063E-05 0.28826694E+03 0.75467711E-02 0.98623768E-01
        2 -1    0    0  501    0 0.00000000E+00 0.00000000E+00 0.48408212E+03 0.48408223E+03 0.32000000E+00 0.0000E+00 0.9000E+01
       -2 -1    0    0    0  501 0.00000000E+00 0.00000000E+00 -.78711626E+03 0.78711633E+03 0.32000000E+00 0.0000E+00 0.9000E+01
       25  2    1    2    0    0 0.22577503E+03 -.10470424E+03 -.69669143E+03 0.79681959E+03 0.29598172E+03 0.0000E+00 0.0000E+00
       23  2    1    2    0    0 -.22577503E+03 0.10470424E+03 0.39365729E+03 0.47437896E+03 0.90177605E+02 0.0000E+00 0.0000E+00
       24  1    3    3    0    0 0.23587523E+02 -.31858712E+02 -.45422117E+03 0.46298535E+03 0.80419002E+02 0.0000E+00 0.9000E+01
      -13  1    4    4    0    0 -.22335994E+03 0.87257235E+02 0.32743102E+03 0.40585042E+03 0.10565837E+00 0.0000E+00 0.9000E+01
       13  1    4    4    0    0 -.24150943E+01 0.17447003E+02 0.66226269E+02 0.68528538E+02 0.10565837E+00 0.0000E+00 0.9000E+01
      -24  1    3    3    0    0 0.20218751E+03 -.72845525E+02 -.24247026E+03 0.33383424E+03 0.80419002E+02 0.0000E+00 0.9000E+01
#aMCatNLO 1  0  0  1  1 0.11611086D+03 0.00000000D+00  -5  7  0 0.00000000D+00 0.00000000D+00 0.00000000D+00 0.00000000D+00 0.00000000D+00
  <mgrwgt>
 0.1293447413D-02    4    2    0
 0.617275480608685D+03 0.000000000000000D+00 0.000000000000000D+00 0.617275480608685D+03
 0.617275480608685D+03 0.000000000000000D+00 0.000000000000000D+00 -.617275480608685D+03
 0.365235458334491D+03 0.235875228301850D+02 -.318587118954877D+02 -.354059847078896D+03
 0.498270195205362D+03 -.223360239143059D+03 0.872573305059813D+02 0.436771735890631D+03
 0.868182076626080D+02 -.241479098608703D+01 0.174469067996888D+02 0.850127955625752D+02
 0.284227100014910D+03 0.202187507298961D+03 -.728455254101825D+02 -.167724684374310D+03
 0.000000000000000D+00 0.000000000000000D+00 -.000000000000000D+00 -.000000000000000D+00
 0.658198424818525D+03 0.000000000000000D+00 0.000000000000000D+00 0.658198424818525D+03
 0.708233408237349D+03 0.000000000000000D+00 0.000000000000000D+00 -.708233408237349D+03
 0.363119413293743D+03 0.287460971271150D+01 -.467479003700820D+01 -.354059847078896D+03
 0.519728607247734D+03 -.252310029376171D+03 0.125251447077272D+03 0.436771735890631D+03
 0.886441816142985D+02 -.740458012054060D+01 0.239955770495942D+02 0.850127955625752D+02
 0.268506914041219D+03 0.186468889828025D+03 -.522161882121816D+02 -.167724684374310D+03
 0.126432716858879D+03 0.703711099559759D+02 -.923560458776766D+02 -.500349834188235D+02
0.588688645091D-03 0.000000000000D+00 0.000000000000D+00 0.115050306393D-06 0.000000000000D+00  7 2 -2 24 -13 13 -24 21 0 0.74474186D-01 0.12109482D+00 0.83097829D+05 0.83097829D+05 0.83097829D+05 0.11283810D+01  1  2  2  1  7  1        2 0.249316344209D-02 0.100000000000D+01
-.965057446390D-05 0.000000000000D+00 -.226071940243D-05 0.115050306393D-06 0.000000000000D+00  7 2 -2 24 -13 13 -24 21 2 0.74474186D-01 0.12109482D+00 0.83097829D+05 0.83097829D+05 0.83097829D+05 0.11283810D+01  1  2  3  1  7  1        2 -.520390991237D-04 0.100000000000D+01
0.359355687433D-04 0.000000000000D+00 0.000000000000D+00 0.115050306393D-06 0.000000000000D+00  7 2 -2 24 -13 13 -24 21 2 0.74474186D-01 0.12109482D+00 0.83097829D+05 0.83097829D+05 0.83097829D+05 0.11283810D+01  1  2 15  1  7  1        2 0.193776508424D-03 0.100000000000D+01
-.248770568889D-03 0.000000000000D+00 0.000000000000D+00 0.115050306393D-06 0.000000000000D+00  7 2 -2 24 -13 13 -24 21 2 0.74474186D-01 0.12109482D+00 0.83097829D+05 0.83097829D+05 0.83097829D+05 0.11283810D+01  1  2  4  1  7  1        2 -.134145343802D-02 0.100000000000D+01
  </mgrwgt>
  </event>
  <event>
  8     66 0.26993063E-05 0.20596479E+03 0.75467711E-02 0.98480701E-01
        2 -1    0    0  501    0 0.00000000E+00 0.00000000E+00 0.85087300E+03 0.85087306E+03 0.32000000E+00 0.0000E+00 0.9000E+01
       -2 -1    0    0    0  501 0.00000000E+00 0.00000000E+00 -.25755747E+03 0.25755767E+03 0.32000000E+00 0.0000E+00 0.9000E+01
       25  2    1    2    0    0 0.95257478E+02 -.11426481E+03 0.78247214E+03 0.85121316E+03 0.30028448E+03 0.0000E+00 0.0000E+00
       23  2    1    2    0    0 -.95257478E+02 0.11426481E+03 -.18915661E+03 0.25721757E+03 0.90830742E+02 0.0000E+00 0.0000E+00
       24  1    3    3    0    0 0.86586034E+01 -.41959811E+01 0.60838107E+03 0.61374858E+03 0.80419002E+02 0.0000E+00 0.9000E+01
      -13  1    4    4    0    0 -.49014766E+02 0.11300682E+03 -.10808378E+03 0.16387527E+03 0.10565837E+00 0.0000E+00 0.9000E+01
       13  1    4    4    0    0 -.46242711E+02 0.12579873E+01 -.81072830E+02 0.93342304E+02 0.10565837E+00 0.0000E+00 0.9000E+01
      -24  1    3    3    0    0 0.86598874E+02 -.11006883E+03 0.17409107E+03 0.23746459E+03 0.80419002E+02 0.0000E+00 0.9000E+01
#aMCatNLO 1  0  0  2  1 0.27381539D+03 0.00000000D+00  -5  7  0 0.00000000D+00 0.00000000D+00 0.00000000D+00 0.00000000D+00 0.00000000D+00
  <mgrwgt>
 0.1324066658D-02    3    2    0
 0.468133361988575D+03 0.000000000000000D+00 0.000000000000000D+00 0.468133361988575D+03
 0.468133361988575D+03 0.000000000000000D+00 0.000000000000000D+00 -.468133361988575D+03
 0.341073588694164D+03 0.865860345392456D+01 -.419598113052669D+01 0.331317671244570D+03
 0.262502436967991D+03 -.490147700117380D+02 0.113006975187207D+03 -.231807043236111D+03
 0.161882417518097D+03 -.462427076747449D+02 0.125783615048378D+01 -.155132030659790D+03
 0.170808280796898D+03 0.865988742325583D+02 -.110068830207164D+03 0.556214026513318D+02
 0.000000000000000D+00 -.000000000000000D+00 0.000000000000000D+00 0.000000000000000D+00
 0.108751016744469D+04 0.000000000000000D+00 0.000000000000000D+00 0.108751016744469D+04
 0.518993931730814D+03 0.000000000000000D+00 0.000000000000000D+00 -.518993931730814D+03
 0.357379095565709D+03 0.428528504536845D+02 -.982081255399095D+02 0.331317671244570D+03
 0.237539500267860D+03 -.245341460590934D+02 0.457010346796127D+02 -.231807043236111D+03
 0.163694917790551D+03 -.303033719517178D+02 -.425650657485807D+02 -.155132030659790D+03
 0.216871108678709D+03 0.105578549018249D+03 -.162250705328087D+03 0.556214026513318D+02
 0.631019476872677D+03 -.935938814611222D+02 0.257322861936965D+03 0.568516235713879D+03
0.505645513869D-04 0.000000000000D+00 0.000000000000D+00 0.398461938938D-05 0.000000000000D+00  7 2 -2 24 -13 13 -24 21 0 0.13090356D+00 0.39624247D-01 0.42421495D+05 0.42421495D+05 0.42421495D+05 0.11536277D+01  1  2  2  2  7  2       -2 0.123874050245D-02 0.100000000000D+01
-.506680996207D-06 0.000000000000D+00 -.194181191278D-06 0.398461938938D-05 0.000000000000D+00  7 2 -2 24 -13 13 -24 21 2 0.13090356D+00 0.39624247D-01 0.42421495D+05 0.42421495D+05 0.42421495D+05 0.11536277D+01  1  2  3  2  7  2       -2 -.165196243831D-04 0.100000000000D+01
0.312375875227D-05 0.000000000000D+00 0.000000000000D+00 0.398461938938D-05 0.000000000000D+00  7 2 -2 24 -13 13 -24 21 2 0.13090356D+00 0.39624247D-01 0.42421495D+05 0.42421495D+05 0.42421495D+05 0.11536277D+01  1  2 15  2  7  2       -2 0.101845779963D-03 0.100000000000D+01
  </mgrwgt>
  </event>
  <event>
  9     66 -.26993063E-05 0.17890932E+03 0.75467711E-02 0.10657998E+00
        2 -1    0    0  502    0 0.00000000E+00 0.00000000E+00 0.96485643E+03 0.96485648E+03 0.32000000E+00 0.0000E+00 0.9000E+01
       -2 -1    0    0    0  501 0.00000000E+00 0.00000000E+00 -.64535141E+03 0.64535149E+03 0.32000000E+00 0.0000E+00 0.9000E+01
       25  2    1    2    0    0 -.19195296E+02 0.90802602E+02 -.59030893E+03 0.66900275E+03 0.30080970E+03 0.0000E+00 0.0000E+00
       23  2    1    2    0    0 0.51821316E+02 -.89568034E+02 0.89474665E+03 0.90523903E+03 0.90433625E+02 0.0000E+00 0.0000E+00
       24  1    3    3    0    0 0.49778046E+02 -.66699352E+01 -.44888155E+02 0.10490236E+03 0.80419002E+02 0.0000E+00 0.9000E+01
      -13  1    4    4    0    0 -.14621871E+02 -.25075472E+02 0.77400021E+02 0.82664096E+02 0.10565837E+00 0.0000E+00 0.9000E+01
       13  1    4    4    0    0 0.66443187E+02 -.64492562E+02 0.81734663E+03 0.82257493E+03 0.10565837E+00 0.0000E+00 0.9000E+01
      -24  1    3    3    0    0 -.68973342E+02 0.97472537E+02 -.54542077E+03 0.56410039E+03 0.80419002E+02 0.0000E+00 0.9000E+01
       21  1    1    2  502  501 -.32626020E+02 -.12345681E+01 0.15067291E+02 0.35966194E+02 0.75000000E+00 0.0000E+00 0.9000E+01
#aMCatNLO 2  0  0  1  2 0.32649370D+02 0.00000000D+00  -5  7  0 0.00000000D+00 0.00000000D+00 0.00000000D+00 0.00000000D+00 0.00000000D+00
  <mgrwgt>
 -.4161088340D-03    3    2    0
 0.772089512269565D+03 0.000000000000000D+00 0.000000000000000D+00 0.772089512269565D+03
 0.772089512269565D+03 0.000000000000000D+00 0.000000000000000D+00 -.772089512269565D+03
 0.114748025306775D+03 0.473430953805484D+02 -.676207366369259D+01 -.664289021209048D+02
 0.693420372018528D+02 -.160832660351490D+02 -.251307130111225D+02 0.625946798098556D+02
 0.676096344178904D+03 0.521473802485886D+02 -.650335730018635D+02 0.670937815097569D+03
 0.683992617851598D+03 -.834072095939880D+02 0.969263596766787D+02 -.667103592786520D+03
 0.000000000000000D+00 -.000000000000000D+00 -.000000000000000D+00 0.000000000000000D+00
 0.793236024115379D+03 0.000000000000000D+00 0.000000000000000D+00 0.793236024115379D+03
 0.784968088895718D+03 0.000000000000000D+00 0.000000000000000D+00 -.784968088895718D+03
 0.115768548611577D+03 0.497780455711200D+02 -.666993518643826D+01 -.664289021209048D+02
 0.689976295760676D+02 -.146219819623437D+02 -.250754180445866D+02 0.625946798098556D+02
 0.677297247194802D+03 0.664432980093701D+02 -.644926156966456D+02 0.670937815097569D+03
 0.682460721781744D+03 -.689733415072360D+02 0.974725370200809D+02 -.667103592786520D+03
 0.336799658469072D+02 -.326260201109104D+02 -.123456809241042D+01 0.826793521966101D+01
-.341467182875D-03 0.000000000000D+00 0.000000000000D+00 0.695810266342D-05 0.000000000000D+00  7 2 -2 24 -13 13 -24 21 2 0.14961702D+00 0.97655409D-01 0.38621901D+05 0.38621901D+05 0.38621901D+05 0.11572914D+01  1  2 13  1  7  1        2 -.146382291525D-02 0.100000000000D+01
-.557058041738D-03 0.000000000000D+00 0.000000000000D+00 0.695810266342D-05 0.000000000000D+00  7 2 -2 24 -13 13 -24 21 2 0.14448152D+00 0.97655409D-01 0.32008545D+05 0.32008545D+05 0.32008545D+05 0.11647336D+01  1  2  8  1  7  1        2 -.255632236573D-02 0.100000000000D+01
0.864809968401D-03 0.000000000000D+00 0.000000000000D+00 0.695810266342D-05 0.466380256472D-07  7 2 -2 24 -13 13 -24 21 2 0.14843867D+00 0.99284317D-01 0.38621901D+05 0.38621901D+05 0.38621901D+05 0.11572914D+01  1  2  1  1  7  1        2 0.360403644696D-02 0.100000000000D+01
  </mgrwgt>
  </event>
  <event>
  8     66 0.26993063E-05 0.55489655E+03 0.75467711E-02 0.87317616E-01
        2 -1    0    0  501    0 0.00000000E+00 0.00000000E+00 0.53983053E+03 0.53983063E+03 0.32000000E+00 0.0000E+00 0.9000E+01
       -2 -1    0    0    0  501 0.00000000E+00 0.00000000E+00 -.14033005E+04 0.14033005E+04 0.32000000E+00 0.0000E+00 0.9000E+01
       25  2    1    2    0    0 0.63426216E+03 0.54516480E+03 -.55369389E+03 0.10468354E+04 0.29965706E+03 0.0000E+00 0.0000E+00
       23  2    1    2    0    0 -.63426216E+03 -.54516480E+03 -.30977605E+03 0.89629570E+03 0.88834880E+02 0.0000E+00 0.0000E+00
       24  1    3    3    0    0 0.20931978E+03 0.32626345E+03 -.31826454E+03 0.50795881E+03 0.80419002E+02 0.0000E+00 0.9000E+01
      -11  1    4    4    0    0 -.35745120E+03 -.27778387E+03 -.12659459E+03 0.47006534E+03 0.51099893E-03 0.0000E+00 0.9000E+01
       11  1    4    4    0    0 -.27681097E+03 -.26738093E+03 -.18318146E+03 0.42623036E+03 0.51099893E-03 0.0000E+00 0.9000E+01
      -24  1    3    3    0    0 0.42494238E+03 0.21890134E+03 -.23542935E+03 0.53887663E+03 0.80419002E+02 0.0000E+00 0.9000E+01
#aMCatNLO 1  0  0  1  2 0.27324051D+03 0.00000000D+00  -5  7  0 0.00000000D+00 0.00000000D+00 0.00000000D+00 0.00000000D+00 0.00000000D+00
  <mgrwgt>
 0.7786822770D-03    9    2    0
 0.870370361780632D+03 0.000000000000000D+00 0.000000000000000D+00 0.870370361780632D+03
 0.870370361780632D+03 0.000000000000000D+00 0.000000000000000D+00 -.870370361780632D+03
 0.409146918990862D+03 0.209319781461014D+03 0.326263454473441D+03 -.103302336515274D+03
 0.461922888193979D+03 -.357451197844510D+03 -.277783870431453D+03 0.918559585716316D+02
 0.384922225506511D+03 -.276810965944173D+03 -.267380925536023D+03 0.694618466780840D+01
 0.484748690869912D+03 0.424942382327669D+03 0.218901341494035D+03 0.450019327583388D+01
 0.000000000000000D+00 -.000000000000000D+00 0.000000000000000D+00 0.000000000000000D+00
 0.112484151266812D+04 0.000000000000000D+00 0.000000000000000D+00 0.112484151266812D+04
 0.957582295413268D+03 0.000000000000000D+00 0.000000000000000D+00 -.957582295413268D+03
 0.410296716178147D+03 0.260822950642273D+03 0.288402834661769D+03 -.103302336515274D+03
 0.448197165638540D+03 -.300248889966282D+03 -.319833997935371D+03 0.918559585716316D+02
 0.379485251843184D+03 -.228766895626584D+03 -.302698718778955D+03 0.694618466780840D+01
 0.524076099499771D+03 0.488348419817901D+03 0.172290775244536D+03 0.450019327583388D+01
 0.320368574921744D+03 -.220155584867308D+03 0.161839106808021D+03 0.167259217254850D+03
0.923028411233D-03 0.000000000000D+00 0.000000000000D+00 0.229585130762D-05 0.000000000000D+00  7 2 -2 24 -11 11 -24 21 0 0.83050861D-01 0.21589239D+00 0.73803242D+06 0.73803242D+06 0.73803242D+06 0.10567603D+01  1  2  2  1  7  1        2 0.599585999915D-03 0.100000000000D+01
-.512687424995D-04 0.000000000000D+00 -.354467213810D-05 0.229585130762D-05 0.000000000000D+00  7 2 -2 24 -11 11 -24 21 2 0.83050861D-01 0.21589239D+00 0.73803242D+06 0.73803242D+06 0.73803242D+06 0.10567603D+01  1  2  3  1  7  1        2 -.371913582458D-04 0.100000000000D+01
0.579199140601D-04 0.000000000000D+00 0.000000000000D+00 0.229585130762D-05 0.000000000000D+00  7 2 -2 24 -11 11 -24 21 2 0.83050861D-01 0.21589239D+00 0.73803242D+06 0.73803242D+06 0.73803242D+06 0.10567603D+01  1  2 15  1  7  1        2 0.420162494407D-04 0.100000000000D+01
0.841279331811D-03 0.000000000000D+00 0.000000000000D+00 0.229585130762D-05 0.000000000000D+00  7 2 -2 24 -11 11 -24 21 2 0.11056121D+00 0.21589239D+00 0.10125207D+07 0.10125207D+07 0.10125207D+07 0.10475044D+01  1  2 12  1  7  1        2 0.417286329850D-03 0.100000000000D+01
-.906590822684D-03 0.000000000000D+00 0.000000000000D+00 0.229585130762D-05 0.000000000000D+00  7 2 -2 24 -11 11 -24 21 2 0.83050861D-01 0.21589239D+00 0.73803242D+06 0.73803242D+06 0.73803242D+06 0.10567603D+01  1  2  4  1  7  1        2 -.657658885803D-03 0.100000000000D+01
-.153145359193D-02 0.000000000000D+00 -.460055581065D-03 0.229585130762D-05 0.000000000000D+00  7 2 -2 24 -11 11 -24 21 2 0.11487481D+00 0.21589239D+00 0.73803242D+06 0.73803242D+06 0.73803242D+06 0.10567603D+01  1  2  5  1  7  1        2 -.749970530308D-03 0.100000000000D+01
0.161799955789D-02 0.000000000000D+00 0.436867792809D-03 0.229585130762D-05 0.000000000000D+00  7 2 -2 24 -11 11 -24 21 2 0.83050861D-01 0.21589239D+00 0.73803242D+06 0.73803242D+06 0.73803242D+06 0.10567603D+01  1  2  6  1  7  1        2 0.117372883096D-02 0.100000000000D+01
0.314233574960D-04 0.000000000000D+00 0.000000000000D+00 0.229585130762D-05 0.000000000000D+00  7 21 -2 24 -11 11 -24 -2 2 0.11056121D+00 0.21589239D+00 0.10125207D+07 0.10125207D+07 0.10125207D+07 0.10475044D+01  1  2 12  3  7  1        2 0.170371971751D-04 0.100000000000D+01
-.510068288518D-04 0.000000000000D+00 -.188148010707D-04 0.229585130762D-05 0.000000000000D+00  7 21 -2 24 -11 11 -24 -2 2 0.11487481D+00 0.21589239D+00 0.73803242D+06 0.73803242D+06 0.73803242D+06 0.10567603D+01  1  2  5  3  7  1        2 -.261515559719D-04 0.100000000000D+01
  </mgrwgt>
  </event>
  <event>
  8     66 0.26993063E-05 0.26041341E+03 0.75467711E-02 0.94811278E-01
        2 -1    0    0  501    0 0.00000000E+00 0.00000000E+00 0.31865301E+03 0.31865317E+03 0.32000000E+00 0.0000E+00 0.9000E+01
       -2 -1    0    0    0  501 0.00000000E+00 0.00000000E+00 -.31641634E+03 0.31641650E+03 0.32000000E+00 0.0000E+00 0.9000E+01
       25  2    1    2    0    0 -.53193078E+02 -.18816600E+03 0.13376415E+03 0.38233219E+03 0.30008183E+03 0.0000E+00 0.0000E+00
       23  2    1    2    0    0 0.53193078E+02 0.18816600E+03 -.13152748E+03 0.25273748E+03 0.91328030E+02 0.0000E+00 0.0000E+00
       24  1    3    3    0    0 0.56903475E+02 -.13224947E+03 -.23776086E+02 0.16661466E+03 0.80419002E+02 0.0000E+00 0.9000E+01
      -11  1    4    4    0    0 0.28607718E+02 0.18057377E+03 -.13430816E+03 0.22685672E+03 0.51099893E-03 0.0000E+00 0.9000E+01
       11  1    4    4    0    0 0.24585360E+02 0.75922315E+01 0.27806779E+01 0.25880766E+02 0.51099893E-03 0.0000E+00 0.9000E+01
      -24  1    3    3    0    0 -.11009655E+03 -.55916534E+02 0.15754023E+03 0.21571752E+03 0.80419002E+02 0.0000E+00 0.9000E+01
#aMCatNLO 1  0  0  1  2 0.34573197D+03 0.00000000D+00  -5  7  0 0.00000000D+00 0.00000000D+00 0.00000000D+00 0.00000000D+00 0.00000000D+00
  <mgrwgt>
 0.8247423257D-03    3    2    0
 0.317532866502680D+03 0.000000000000000D+00 0.000000000000000D+00 0.317532866502680D+03
 0.317532866502680D+03 0.000000000000000D+00 0.000000000000000D+00 -.317532866502680D+03
 0.166699434520054D+03 0.569034748520794D+02 -.132249469950415D+03 -.243630409129949D+02
 0.227331150213663D+03 0.286077183232640D+02 0.180573772536691D+03 -.135107967868928D+03
 0.258711335416042D+02 0.245853598852635D+02 0.759223153222120D+01 0.268954464561174D+01
 0.215164014730038D+03 -.110096553060607D+03 -.559165341184975D+02 0.156781464136311D+03
 0.000000000000000D+00 0.000000000000000D+00 -.000000000000000D+00 -.000000000000000D+00
 0.528636478290977D+03 0.000000000000000D+00 0.000000000000000D+00 0.528636478290977D+03
 0.540370694121855D+03 0.000000000000000D+00 0.000000000000000D+00 -.540370694121855D+03
 0.150525224922286D+03 -.232832422986559D+02 -.122698656264313D+03 -.243630409129949D+02
 0.254997587038158D+03 -.933133142209072D+02 0.195095442803572D+03 -.135107967868928D+03
 0.166549053852360D+02 0.138358063639128D+02 0.887258052940255D+01 0.268954464561174D+01
 0.300898407858058D+03 -.240544644911160D+03 -.403792298710845D+02 0.156781464136311D+03
 0.345931047209095D+03 0.343305395066811D+03 -.408901371975779D+02 -.117342158308775D+02
0.162009776497D-04 0.000000000000D+00 0.000000000000D+00 0.251098939573D-05 0.000000000000D+00  7 2 -2 24 -11 11 -24 21 0 0.49023564D-01 0.48679462D-01 0.67815146D+05 0.67815146D+05 0.67815146D+05 0.11358322D+01  1  2  2  1  7  1        2 0.813689682102D-03 0.100000000000D+01
-.857017170764D-06 0.000000000000D+00 -.622160199902D-07 0.251098939573D-05 0.000000000000D+00  7 2 -2 24 -11 11 -24 21 2 0.49023564D-01 0.48679462D-01 0.67815146D+05 0.67815146D+05 0.67815146D+05 0.11358322D+01  1  2  3  1  7  1        2 -.555309943503D-04 0.100000000000D+01
0.102759407883D-05 0.000000000000D+00 0.000000000000D+00 0.251098939573D-05 0.000000000000D+00  7 2 -2 24 -11 11 -24 21 2 0.49023564D-01 0.48679462D-01 0.67815146D+05 0.67815146D+05 0.67815146D+05 0.11358322D+01  1  2 15  1  7  1        2 0.665836379159D-04 0.100000000000D+01
  </mgrwgt>
  </event>
  <event>
  8     66 0.26993063E-05 0.13069693E+03 0.75467711E-02 0.10214982E+00
        2 -1    0    0  501    0 0.00000000E+00 0.00000000E+00 0.89060635E+03 0.89060640E+03 0.32000000E+00 0.0000E+00 0.9000E+01
       -2 -1    0    0    0  501 0.00000000E+00 0.00000000E+00 -.80057854E+02 0.80058494E+02 0.32000000E+00 0.0000E+00 0.9000E+01
       25  2    1    2    0    0 -.24388297E+02 0.14648639E+03 0.38161705E+03 0.50731655E+03 0.29947530E+03 0.0000E+00 0.0000E+00
       23  2    1    2    0    0 0.24388297E+02 -.14648639E+03 0.42893144E+03 0.46334835E+03 0.93040100E+02 0.0000E+00 0.0000E+00
       24  1    3    3    0    0 -.60144702E+02 -.46005921E+02 0.70539386E+02 0.13106087E+03 0.80419002E+02 0.0000E+00 0.9000E+01
      -11  1    4    4    0    0 -.14224427E+02 0.68834311E+01 0.25204452E+02 0.29748619E+02 0.51099893E-03 0.0000E+00 0.9000E+01
       11  1    4    4    0    0 0.38612724E+02 -.15336982E+03 0.40372699E+03 0.43359973E+03 0.51099893E-03 0.0000E+00 0.9000E+01
      -24  1    3    3    0    0 0.35756405E+02 0.19249231E+03 0.31107767E+03 0.37625568E+03 0.80419002E+02 0.0000E+00 0.9000E+01
#aMCatNLO 1  0  0  2  1 0.43498818D+02 0.00000000D+00  -5  7  0 0.00000000D+00 0.00000000D+00 0.00000000D+00 0.00000000D+00 0.00000000D+00
  <mgrwgt>
 0.1184681557D-02    9    2    0
 0.267021294187414D+03 0.000000000000000D+00 0.000000000000000D+00 0.267021294187414D+03
 0.267021294187414D+03 0.000000000000000D+00 0.000000000000000D+00 -.267021294187414D+03
 0.131151694530567D+03 -.601447024699750D+02 -.460059213675478D+02 -.707079980468245D+02
 0.158161726414841D+02 -.142244267278951D+02 0.688343104642050D+01 0.659832037073166D+00
 0.175341323836427D+03 0.386127240618951D+02 -.153369817701895D+03 0.757055903042719D+02
 0.211733397366350D+03 0.357564051359750D+02 0.192492308023022D+03 -.565742429452059D+01
 0.000000000000000D+00 -.000000000000000D+00 0.000000000000000D+00 -.000000000000000D+00
 0.286042030480515D+03 0.000000000000000D+00 0.000000000000000D+00 0.286042030480515D+03
 0.293987722516081D+03 0.000000000000000D+00 0.000000000000000D+00 -.293987722516081D+03
 0.127631663281893D+03 -.498807578414330D+02 -.483209532926105D+02 -.707079980468245D+02
 0.146149760472497D+02 -.130174572080450D+02 0.661119916363535D+01 0.659832037073166D+00
 0.181738602032492D+03 0.527753372147026D+02 -.156564194014086D+03 0.757055903042719D+02
 0.211825950500709D+03 0.525557454419284D+02 0.188703218103331D+03 -.565742429452059D+01
 0.442185611342524D+02 -.424328676071530D+02 0.957073003973068D+01 -.794569203556514D+01
0.546175402204D-05 0.000000000000D+00 0.000000000000D+00 0.215562321124D-06 0.000000000000D+00  7 2 -2 24 -11 11 -24 21 0 0.13701641D+00 0.12316647D-01 0.61522542D+05 0.61522542D+05 0.61522542D+05 0.11394566D+01  1  2  2  2  7  2       -2 0.888390151567D-03 0.100000000000D+01
-.301424215973D-06 0.000000000000D+00 -.209745735575D-07 0.215562321124D-06 0.000000000000D+00  7 2 -2 24 -11 11 -24 21 2 0.13701641D+00 0.12316647D-01 0.61522542D+05 0.61522542D+05 0.61522542D+05 0.11394566D+01  1  2  3  2  7  2       -2 -.636568798370D-04 0.100000000000D+01
0.347478732626D-06 0.000000000000D+00 0.000000000000D+00 0.215562321124D-06 0.000000000000D+00  7 2 -2 24 -11 11 -24 21 2 0.13701641D+00 0.12316647D-01 0.61522542D+05 0.61522542D+05 0.61522542D+05 0.11394566D+01  1  2 15  2  7  2       -2 0.733829956471D-04 0.100000000000D+01
0.658532920284D-05 0.000000000000D+00 0.000000000000D+00 0.215562321124D-06 0.000000000000D+00  7 2 -2 24 -11 11 -24 21 2 0.13701641D+00 0.13961560D-01 0.73258062D+05 0.73258062D+05 0.73258062D+05 0.11329839D+01  1  2 12  2  7  2       -2 0.112943152750D-02 0.100000000000D+01
-.581401254556D-05 0.000000000000D+00 0.000000000000D+00 0.215562321124D-06 0.000000000000D+00  7 2 -2 24 -11 11 -24 21 2 0.13701641D+00 0.12316647D-01 0.61522542D+05 0.61522542D+05 0.61522542D+05 0.11394566D+01  1  2  4  2  7  2       -2 -.122784394343D-02 0.100000000000D+01
-.181271237972D-04 0.000000000000D+00 -.459626334952D-05 0.215562321124D-06 0.000000000000D+00  7 2 -2 24 -11 11 -24 21 2 0.13701641D+00 0.14529691D-01 0.61522542D+05 0.61522542D+05 0.61522542D+05 0.11394566D+01  1  2  5  2  7  2       -2 -.295220486611D-02 0.100000000000D+01
0.186928798767D-04 0.000000000000D+00 0.453421875574D-05 0.215562321124D-06 0.000000000000D+00  7 2 -2 24 -11 11 -24 21 2 0.13701641D+00 0.12316647D-01 0.61522542D+05 0.61522542D+05 0.61522542D+05 0.11394566D+01  1  2  6  2  7  2       -2 0.394769346677D-02 0.100000000000D+01
0.129604737948D-06 0.000000000000D+00 0.000000000000D+00 0.215562321124D-06 0.000000000000D+00  7 2 21 24 -11 11 -24 2 2 0.13701641D+00 0.13961560D-01 0.73258062D+05 0.73258062D+05 0.73258062D+05 0.11329839D+01  1  2 12  4  7  2       -2 0.307327698996D-03 0.100000000000D+01
-.408970055497D-06 0.000000000000D+00 -.113311259841D-06 0.215562321124D-06 0.000000000000D+00  7 2 21 24 -11 11 -24 2 2 0.13701641D+00 0.14529691D-01 0.61522542D+05 0.61522542D+05 0.61522542D+05 0.11394566D+01  1  2  5  4  7  2       -2 -.917838594228D-03 0.100000000000D+01
  </mgrwgt>
  </event>
  <event>
  8     66 0.26993063E-05 0.17578365E+03 0.75467711E-02 0.10342986E+00
        2 -1    0    0  501    0 0.00000000E+00 0.00000000E+00 0.12879478E+04 0.12879478E+04 0.32000000E+00 0.0000E+00 0.9000E+01
       -2 -1    0    0    0  501 0.00000000E+00 0.00000000E+00 -.64985532E+02 0.64986320E+02 0.32000000E+00 0.0000E+00 0.9000E+01
       25  2    1    2    0    0 0.63312986E+02 0.66298977E+02 0.11701744E+04 0.12116993E+04 0.30083719E+03 0.0000E+00 0.0000E+00
       23  2    1    2    0    0 -.63312986E+02 -.66298977E+02 0.52787870E+02 0.14123485E+03 0.93576889E+02 0.0000E+00 0.0000E+00
       24  1    3    3    0    0 0.75907616E+02 -.34941682E+02 0.18744965E+03 0.22042567E+03 0.80419002E+02 0.0000E+00 0.9000E+01
      -13  1    4    4    0    0 -.72775918E+02 -.57273576E+02 0.72476643E+02 0.11759877E+03 0.10565837E+00 0.0000E+00 0.9000E+01
       13  1    4    4    0    0 0.94629321E+01 -.90254011E+01 -.19688774E+02 0.23636072E+02 0.10565837E+00 0.0000E+00 0.9000E+01
      -24  1    3    3    0    0 -.12594630E+02 0.10124066E+03 0.98272472E+03 0.99127362E+03 0.80419002E+02 0.0000E+00 0.9000E+01
#aMCatNLO 1  0  0  1  1 0.11435894D+03 0.00000000D+00  -5  7  0 0.00000000D+00 0.00000000D+00 0.00000000D+00 0.00000000D+00 0.00000000D+00
  <mgrwgt>
 0.1134290109D-02    3    2    0
 0.289306984849233D+03 0.000000000000000D+00 0.000000000000000D+00 0.289306984849233D+03
 0.289306984849233D+03 0.000000000000000D+00 0.000000000000000D+00 -.289306984849233D+03
 0.119211715688179D+03 0.759076168137157D+02 -.349416815058963D+02 -.275922055325650D+02
 0.121786232525769D+03 -.727760136756070D+02 -.572736331329227D+02 -.790902599190572D+02
 0.968809233161333D+02 0.946302482154507D+01 -.902534674025012D+01 -.959943101440475D+02
 0.240735098168384D+03 -.125946279596537D+02 0.101240661379069D+03 0.202676775595670D+03
 0.000000000000000D+00 -.000000000000000D+00 -.000000000000000D+00 -.000000000000000D+00
 0.303649619103422D+03 0.000000000000000D+00 0.000000000000000D+00 0.303649619103422D+03
 0.668721706049122D+03 0.000000000000000D+00 0.000000000000000D+00 -.668721706049122D+03
 0.124947716892450D+03 0.901903419878388D+02 -.157825349114374D+02 -.275922055325650D+02
 0.106469867715936D+03 -.594235942560019D+02 -.393624181559376D+02 -.790902599190572D+02
 0.984427136817187D+02 0.208889762900767D+02 0.630166379156262D+01 -.959943101440475D+02
 0.259946528367551D+03 0.166940134660022D+02 0.140529058221105D+03 0.202676775595670D+03
 0.382564498494889D+03 -.683497374879158D+02 -.916857689452928D+02 -.365072086945701D+03
0.834825145778D-05 0.000000000000D+00 0.000000000000D+00 0.881037196479D-07 0.000000000000D+00  7 2 -2 24 -13 13 -24 21 0 0.19814587D+00 0.99978379D-02 0.30899893D+05 0.30899893D+05 0.30899893D+05 0.11661469D+01  1  2  2  1  7  1        2 0.109953230523D-02 0.100000000000D+01
-.323809851922D-06 0.000000000000D+00 -.320594837430D-07 0.881037196479D-07 0.000000000000D+00  7 2 -2 24 -13 13 -24 21 2 0.19814587D+00 0.99978379D-02 0.30899893D+05 0.30899893D+05 0.30899893D+05 0.11661469D+01  1  2  3  1  7  1        2 -.579974677801D-04 0.100000000000D+01
0.517868654836D-06 0.000000000000D+00 0.000000000000D+00 0.881037196479D-07 0.000000000000D+00  7 2 -2 24 -13 13 -24 21 2 0.19814587D+00 0.99978379D-02 0.30899893D+05 0.30899893D+05 0.30899893D+05 0.11661469D+01  1  2 15  1  7  1        2 0.927552711719D-04 0.100000000000D+01
  </mgrwgt>
  </event>
  <event>
  7     66 0.26993063E-05 0.22105325E+03 0.75467711E-02 0.99706722E-01
        2 -1    0    0  501    0 0.00000000E+00 0.00000000E+00 0.17459966E+04 0.17459966E+04 0.32000000E+00 0.0000E+00 0.9000E+01
       -2 -1    0    0    0  501 0.00000000E+00 0.00000000E+00 -.76057470E+02 0.76058143E+02 0.32000000E+00 0.0000E+00 0.9000E+01
       25  2    1    2    0    0 -.17002672E+03 0.24555797E+02 0.15140279E+04 0.15541327E+04 0.30583608E+03 0.0000E+00 0.0000E+00
       24  1    3    3    0    0 -.21921917E+03 0.16602777E+02 0.79011849E+03 0.82406743E+03 0.80419002E+02 0.0000E+00 0.9000E+01
      -13  1    1    2    0    0 0.84245060E+01 -.49194596E+02 0.15038813E+02 0.52127322E+02 0.10565837E+00 0.0000E+00 0.9000E+01
       13  1    1    2    0    0 0.16160221E+03 0.24638799E+02 0.14087236E+03 0.21579476E+03 0.10565837E+00 0.0000E+00 0.9000E+01
      -24  1    3    3    0    0 0.49192455E+02 0.79530206E+01 0.72390943E+03 0.73006522E+03 0.80419002E+02 0.0000E+00 0.9000E+01
#aMCatNLO 1  0  0  2  1 0.10923903D+03 0.00000000D+00  -5  7  0 0.00000000D+00 0.00000000D+00 0.00000000D+00 0.00000000D+00 0.00000000D+00
  <mgrwgt>
 0.7297649266D-03    9    2    0
 0.364412845029799D+03 0.000000000000000D+00 0.000000000000000D+00 0.364412845029799D+03
 0.364412845029799D+03 0.000000000000000D+00 0.000000000000000D+00 -.364412845029799D+03
 0.249780472433408D+03 -.219219377325483D+03 0.166028066133364D+02 0.871222122783484D+02
 0.958591970096158D+02 0.842520722424602D+01 -.491939995807051D+02 -.818410162437541D+02
 0.216706959610793D+03 0.161601853684875D+03 0.246381524050239D+02 -.142266330083520D+03
 0.166479061005780D+03 0.491923164163620D+02 0.795304056234483D+01 0.136985134048925D+03
 0.000000000000000D+00 0.000000000000000D+00 -.000000000000000D+00 -.000000000000000D+00
 0.387060391261907D+03 0.000000000000000D+00 0.000000000000000D+00 0.387060391261907D+03
 0.529074035218607D+03 0.000000000000000D+00 0.000000000000000D+00 -.529074035218607D+03
 0.262910642773617D+03 -.228435127478210D+03 0.536833567412310D+02 0.871222122783484D+02
 0.894696909744816D+02 0.509387442544278D+01 -.357900280329120D+02 -.818410162437541D+02
 0.216869326797281D+03 0.153808212232613D+03 0.559966970443804D+02 -.142266330083520D+03
 0.167717131539521D+03 0.431850568381528D+02 0.321238878867101D+02 0.136985134048925D+03
 0.179167634395614D+03 0.263479839820016D+02 -.106013913639409D+03 -.142013643956700D+03
0.129381773518D-04 0.000000000000D+00 0.000000000000D+00 0.247799339791D-10 0.000000000000D+00  7 2 -2 24 -13 13 -24 21 0 0.26861491D+00 0.11701203D-01 0.73462631D+05 0.73462631D+05 0.73462631D+05 0.11328814D+01  1  2  2  2  7  2       -2 0.755558430951D-03 0.100000000000D+01
-.642205375122D-06 0.000000000000D+00 -.496860077313D-07 0.247799339791D-10 0.000000000000D+00  7 2 -2 24 -13 13 -24 21 2 0.26861491D+00 0.11701203D-01 0.73462631D+05 0.73462631D+05 0.73462631D+05 0.11328814D+01  1  2  3  2  7  2       -2 -.481324291956D-04 0.100000000000D+01
0.784715149776D-06 0.000000000000D+00 0.000000000000D+00 0.247799339791D-10 0.000000000000D+00  7 2 -2 24 -13 13 -24 21 2 0.26861491D+00 0.11701203D-01 0.73462631D+05 0.73462631D+05 0.73462631D+05 0.11328814D+01  1  2 15  2  7  2       -2 0.588133451517D-04 0.100000000000D+01
0.152173955077D-04 0.000000000000D+00 0.000000000000D+00 0.247799339791D-10 0.000000000000D+00  7 2 -2 24 -13 13 -24 21 2 0.26861491D+00 0.17223162D-01 0.10689578D+06 0.10689578D+06 0.10689578D+06 0.11193532D+01  1  2 12  2  7  2       -2 0.597194079356D-03 0.100000000000D+01
-.185712958702D-04 0.000000000000D+00 0.000000000000D+00 0.247799339791D-10 0.000000000000D+00  7 2 -2 24 -13 13 -24 21 2 0.26861491D+00 0.11701203D-01 0.73462631D+05 0.73462631D+05 0.73462631D+05 0.11328814D+01  1  2  4  2  7  2       -2 -.139189364987D-02 0.100000000000D+01
-.201183882648D-04 0.000000000000D+00 -.509822655768D-05 0.247799339791D-10 0.000000000000D+00  7 2 -2 24 -13 13 -24 21 2 0.26861491D+00 0.18049872D-01 0.73462631D+05 0.73462631D+05 0.73462631D+05 0.11328814D+01  1  2  5  2  7  2       -2 -.757122679919D-03 0.100000000000D+01
0.207886725070D-04 0.000000000000D+00 0.465413771506D-05 0.247799339791D-10 0.000000000000D+00  7 2 -2 24 -13 13 -24 21 2 0.26861491D+00 0.11701203D-01 0.73462631D+05 0.73462631D+05 0.73462631D+05 0.11328814D+01  1  2  6  2  7  2       -2 0.155808304675D-02 0.100000000000D+01
0.706462450571D-06 0.000000000000D+00 0.000000000000D+00 0.247799339791D-10 0.000000000000D+00  7 2 21 24 -13 13 -24 2 2 0.26861491D+00 0.17223162D-01 0.10689578D+06 0.10689578D+06 0.10689578D+06 0.11193532D+01  1  2 12  4  7  2       -2 0.365477571667D-03 0.100000000000D+01
-.822860300442D-06 0.000000000000D+00 -.257552811354D-06 0.247799339791D-10 0.000000000000D+00  7 2 21 24 -13 13 -24 2 2 0.26861491D+00 0.18049872D-01 0.73462631D+05 0.73462631D+05 0.73462631D+05 0.11328814D+01  1  2  5  4  7  2       -2 -.408212788295D-03 0.100000000000D+01
  </mgrwgt>
  </event>
  <event>
  8     66 0.26993063E-05 0.19589253E+03 0.75467711E-02 0.93780137E-01
        2 -1    0    0  501    0 0.00000000E+00 0.00000000E+00 0.96807898E+03 0.96807904E+03 0.32000000E+00 0.0000E+00 0.9000E+01
       -2 -1    0    0    0  501 0.00000000E+00 0.00000000E+00 -.42823763E+03 0.42823775E+03 0.32000000E+00 0.0000E+00 0.9000E+01
       25  2    1    2    0    0 -.45935071E+03 0.13358462E+03 -.11870085E+03 0.57687874E+03 0.29975200E+03 0.0000E+00 0.0000E+00
       23  2    1    2    0    0 0.45935071E+03 -.13358462E+03 0.65854221E+03 0.81943805E+03 0.94620038E+02 0.0000E+00 0.0000E+00
       24  1    3    3    0    0 -.65197759E+02 0.12432598E+03 -.24651909E+02 0.16365399E+03 0.80419002E+02 0.0000E+00 0.9000E+01
      -11  1    4    4    0    0 0.40956212E+03 -.14851744E+03 0.58993897E+03 0.73336659E+03 0.51099893E-03 0.0000E+00 0.9000E+01
       11  1    4    4    0    0 0.49788586E+02 0.14932818E+02 0.68603238E+02 0.86071462E+02 0.51099893E-03 0.0000E+00 0.9000E+01
      -24  1    3    3    0    0 -.39415295E+03 0.92586390E+01 -.94048946E+02 0.41322475E+03 0.80419002E+02 0.0000E+00 0.9000E+01
#aMCatNLO 1  0  0  1  2 0.26067543D+02 0.00000000D+00  -5  7  0 0.00000000D+00 0.00000000D+00 0.00000000D+00 0.00000000D+00 0.00000000D+00
  <mgrwgt>
 0.1518801350D-02    9    2    0
 0.643869529159414D+03 0.000000000000000D+00 0.000000000000000D+00 0.643869529159414D+03
 0.643869529159414D+03 0.000000000000000D+00 0.000000000000000D+00 -.643869529159414D+03
 0.187787219250784D+03 -.651977593737013D+02 0.124325978236197D+03 -.953369134587088D+02
 0.547889433819629D+03 0.409562123663934D+03 -.148517435436175D+03 0.332241282688566D+03
 0.645691081625752D+02 0.497885857859374D+02 0.149328182396233D+02 0.383050570260513D+02
 0.487493297085840D+03 -.394152950076170D+03 0.925863896035537D+01 -.275209426255909D+03
 0.000000000000000D+00 0.000000000000000D+00 0.000000000000000D+00 0.000000000000000D+00
 0.668223207312919D+03 0.000000000000000D+00 0.000000000000000D+00 0.668223207312919D+03
 0.651014928390481D+03 0.000000000000000D+00 0.000000000000000D+00 -.651014928390481D+03
 0.186378743017755D+03 -.671886082816598D+02 0.121104846079124D+03 -.953369134587088D+02
 0.546200249672136D+03 0.403740730295114D+03 -.157936270438830D+03 0.332241282688566D+03
 0.637953206424848D+02 0.491055889110805D+02 0.138277503522576D+02 0.383050570260513D+02
 0.491628558999166D+03 -.399362626729083D+03 0.829542745385446D+00 -.275209426255909D+03
 0.312352633718590D+02 0.137049158045482D+02 0.221741312620637D+02 0.172082789224377D+02
0.906360566778D-04 0.000000000000D+00 0.000000000000D+00 0.942293143440D-06 0.000000000000D+00  7 2 -2 24 -11 11 -24 21 0 0.14893524D+00 0.65882726D-01 0.27657339D+06 0.27657339D+06 0.27657339D+06 0.10871740D+01  1  2  2  1  7  1        2 0.649301071129D-03 0.100000000000D+01
-.478458312086D-05 0.000000000000D+00 -.348066322664D-06 0.942293143440D-06 0.000000000000D+00  7 2 -2 24 -11 11 -24 21 2 0.14893524D+00 0.65882726D-01 0.27657339D+06 0.27657339D+06 0.27657339D+06 0.10871740D+01  1  2  3  1  7  1        2 -.405123425208D-04 0.100000000000D+01
0.558287872700D-05 0.000000000000D+00 0.000000000000D+00 0.942293143440D-06 0.000000000000D+00  7 2 -2 24 -11 11 -24 21 2 0.14893524D+00 0.65882726D-01 0.27657339D+06 0.27657339D+06 0.27657339D+06 0.10871740D+01  1  2 15  1  7  1        2 0.472717245217D-04 0.100000000000D+01
0.279085131676D-03 0.000000000000D+00 0.000000000000D+00 0.942293143440D-06 0.000000000000D+00  7 2 -2 24 -11 11 -24 21 2 0.15537420D+00 0.65882726D-01 0.29059915D+06 0.29059915D+06 0.29059915D+06 0.10855763D+01  1  2 12  1  7  1        2 0.221468314257D-02 0.100000000000D+01
-.277309355353D-03 0.000000000000D+00 0.000000000000D+00 0.942293143440D-06 0.000000000000D+00  7 2 -2 24 -11 11 -24 21 2 0.14893524D+00 0.65882726D-01 0.27657339D+06 0.27657339D+06 0.27657339D+06 0.10871740D+01  1  2  4  1  7  1        2 -.234805233905D-02 0.100000000000D+01
-.189975660345D-02 0.000000000000D+00 -.258574794937D-03 0.942293143440D-06 0.000000000000D+00  7 2 -2 24 -11 11 -24 21 2 0.15557815D+00 0.65882726D-01 0.27657339D+06 0.27657339D+06 0.27657339D+06 0.10871740D+01  1  2  5  1  7  1        2 -.151188960412D-01 0.100000000000D+01
0.190946766839D-02 0.000000000000D+00 0.258328807145D-03 0.942293143440D-06 0.000000000000D+00  7 2 -2 24 -11 11 -24 21 2 0.14893524D+00 0.65882726D-01 0.27657339D+06 0.27657339D+06 0.27657339D+06 0.10871740D+01  1  2  6  1  7  1        2 0.161679724775D-01 0.100000000000D+01
0.472211706109D-05 0.000000000000D+00 0.000000000000D+00 0.942293143440D-06 0.000000000000D+00  7 21 -2 24 -11 11 -24 -2 2 0.15537420D+00 0.65882726D-01 0.29059915D+06 0.29059915D+06 0.29059915D+06 0.10855763D+01  1  2 12  3  7  1        2 0.257286618485D-04 0.100000000000D+01
-.144002436715D-04 0.000000000000D+00 -.198379089001D-05 0.942293143440D-06 0.000000000000D+00  7 21 -2 24 -11 11 -24 -2 2 0.15557815D+00 0.65882726D-01 0.27657339D+06 0.27657339D+06 0.27657339D+06 0.10871740D+01  1  2  5  3  7  1        2 -.786950051003D-04 0.100000000000D+01
  </mgrwgt>
  </event>
  <event>
  9     66 0.26993063E-05 0.22830394E+03 0.75467711E-02 0.98941037E-01
        2 -1    0    0  502    0 0.00000000E+00 0.00000000E+00 0.47966971E+03 0.47966982E+03 0.32000000E+00 0.0000E+00 0.9000E+01
       -2 -1    0    0    0  501 0.00000000E+00 0.00000000E+00 -.31485701E+03 0.31485717E+03 0.32000000E+00 0.0000E+00 0.9000E+01
       25  2    1    2    0    0 -.45404239E+02 0.28165574E+03 0.37004792E+01 0.41424579E+03 0.30032380E+03 0.0000E+00 0.0000E+00
       23  2    1    2    0    0 -.19794190E+02 -.92683908E+02 0.14576375E+02 0.13242135E+03 0.91328118E+02 0.0000E+00 0.0000E+00
       24  1    3    3    0    0 -.11613386E+03 0.22926799E+03 0.69437106E+02 0.27810001E+03 0.80419002E+02 0.0000E+00 0.9000E+01
      -11  1    4    4    0    0 -.13394010E+02 0.42369983E+00 0.34482343E+02 0.36994743E+02 0.51099893E-03 0.0000E+00 0.9000E+01
       11  1    4    4    0    0 -.64001798E+01 -.93107608E+02 -.19905968E+02 0.95426603E+02 0.51099893E-03 0.0000E+00 0.9000E+01
      -24  1    3    3    0    0 0.70729621E+02 0.52387743E+02 -.65736627E+02 0.13614579E+03 0.80419002E+02 0.0000E+00 0.9000E+01
       21  1    1    2  502  501 0.65198429E+02 -.18897183E+03 0.14653585E+03 0.24785985E+03 0.75000000E+00 0.0000E+00 0.9000E+01
#aMCatNLO 2  0  0  1  2 0.19990294D+03 0.00000000D+00  -5  7  0 0.00000000D+00 0.00000000D+00 0.00000000D+00 0.00000000D+00 0.00000000D+00
  <mgrwgt>
 0.1594754619D-03    2    2    0
 0.254238927471483D+03 0.000000000000000D+00 0.000000000000000D+00 0.254238927471483D+03
 0.254238927471483D+03 0.000000000000000D+00 0.000000000000000D+00 -.254238927471483D+03
 0.196394208353856D+03 -.869398640627269D+02 0.144651802424256D+03 0.601729608107828D+02
 0.366589132196125D+02 -.891157873443797D+01 -.125682281342283D+02 0.332640846029015D+02
 0.137091200209358D+03 0.801593986672299D+01 -.134891444479406D+03 -.231093074139960D+02
 0.138333533160139D+03 0.878355029304419D+02 0.280787018937893D+01 -.703277379996883D+02
 0.000000000000000D+00 0.000000000000000D+00 -.000000000000000D+00 0.000000000000000D+00
 0.463891509149037D+03 0.000000000000000D+00 0.000000000000000D+00 0.463891509149037D+03
 0.325565313335012D+03 0.000000000000000D+00 0.000000000000000D+00 -.325565313335012D+03
 0.275932758926609D+03 -.116133859639959D+03 0.229267993681782D+03 0.601729608107828D+02
 0.358619346692708D+02 -.133940103108422D+02 0.423699831383592D+00 0.332640846029015D+02
 0.961458736743785D+02 -.640017984503835D+01 -.931076078170101D+02 -.231093074139960D+02
 0.138420957842195D+03 0.707296208910967D+02 0.523877429560495D+02 -.703277379996883D+02
 0.243095297371597D+03 0.651984289047428D+02 -.188971828652205D+03 0.138326195814025D+03
-.900566162272D-07 0.000000000000D+00 0.000000000000D+00 0.652427667878D-06 0.000000000000D+00  7 2 -2 24 -11 11 -24 21 2 0.75586182D-01 0.37827131D-01 0.12080729D+06 0.12080729D+06 0.12080729D+06 0.11150470D+01  1  2 13  1  7  1        2 -.561488103173D-05 0.100000000000D+01
0.411753862674D-05 0.000000000000D+00 0.000000000000D+00 0.652427667878D-06 0.136749310737D-09  7 2 -2 24 -11 11 -24 21 2 0.73795241D-01 0.48439481D-01 0.12080729D+06 0.12080729D+06 0.12080729D+06 0.11150470D+01  1  2  1  1  7  1        2 0.165090342896D-03 0.100000000000D+01
  </mgrwgt>
  </event>
  <event>
  9     66 0.26993063E-05 0.19885534E+03 0.75467711E-02 0.10231624E+00
        2 -1    0    0  502    0 0.00000000E+00 0.00000000E+00 0.55538485E+03 0.55538494E+03 0.32000000E+00 0.0000E+00 0.9000E+01
       -2 -1    0    0    0  501 0.00000000E+00 0.00000000E+00 -.88437859E+03 0.88437864E+03 0.32000000E+00 0.0000E+00 0.9000E+01
       25  2    1    2    0    0 -.13227703E+03 -.91602383E+01 0.11174240E+03 0.34232201E+03 0.29515568E+03 0.0000E+00 0.0000E+00
       23  2    1    2    0    0 -.22992299E+02 0.16644269E+02 -.74740872E+03 0.75362009E+03 0.92291793E+02 0.0000E+00 0.0000E+00
       24  1    3    3    0    0 0.58666575E+02 0.18035866E+02 0.84061421E+02 0.13153174E+03 0.80419002E+02 0.0000E+00 0.9000E+01
      -13  1    4    4    0    0 0.14412954E+02 0.26635562E+02 -.61296243E+03 0.61371014E+03 0.10565837E+00 0.0000E+00 0.9000E+01
       13  1    4    4    0    0 -.37405253E+02 -.99912931E+01 -.13444629E+03 0.13990995E+03 0.10565837E+00 0.0000E+00 0.9000E+01
      -24  1    3    3    0    0 -.19094360E+03 -.27196104E+02 0.27680978E+02 0.21079027E+03 0.80419002E+02 0.0000E+00 0.9000E+01
       21  1    1    2  502  501 0.15526933E+03 -.74840307E+01 0.30667258E+03 0.34382148E+03 0.75000000E+00 0.0000E+00 0.9000E+01
#aMCatNLO 2  0  0  1  2 0.15544959D+03 0.00000000D+00  -5  7  0 0.00000000D+00 0.00000000D+00 0.00000000D+00 0.00000000D+00 0.00000000D+00
  <mgrwgt>
 0.3974725657D-02    2    2    0
 0.439560249423972D+03 0.000000000000000D+00 0.000000000000000D+00 0.439560249423972D+03
 0.439560249423972D+03 0.000000000000000D+00 0.000000000000000D+00 -.439560249423972D+03
 0.234962467086730D+03 0.986505895770937D+02 0.161086238495330D+02 0.196846941553274D+03
 0.324176325876607D+03 0.705939605702347D+02 0.239276709496319D+02 -.315490490431629D+03
 0.706806668639419D+02 -.245497340085777D+02 -.106109843708780D+02 -.654253333130263D+02
 0.249301039020665D+03 -.144694816138751D+03 -.294253104282868D+02 0.184068882191382D+03
 0.000000000000000D+00 0.000000000000000D+00 -.000000000000000D+00 0.000000000000000D+00
 0.107723303050603D+04 0.000000000000000D+00 0.000000000000000D+00 0.107723303050603D+04
 0.455955300000445D+03 0.000000000000000D+00 0.000000000000000D+00 -.455955300000445D+03
 0.221321019766056D+03 0.586665745789471D+02 0.180358660510407D+02 0.196846941553274D+03
 0.316940752282831D+03 0.144130212916552D+02 0.266356100373659D+02 -.315490490431629D+03
 0.760227540173328D+02 -.374053203925067D+02 -.999134103077363D+01 -.654253333130263D+02
 0.278473798336563D+03 -.190943601423729D+03 -.271961043124474D+02 0.184068882191382D+03
 0.640430006103694D+03 0.155269325945634D+03 -.748403074518563D+01 0.621277730505586D+03
-.119430263244D-03 0.000000000000D+00 0.000000000000D+00 0.477062540933D-07 0.000000000000D+00  7 2 -2 24 -13 13 -24 21 2 0.85059203D-01 0.13116587D+00 0.71444186D+05 0.71444186D+05 0.71444186D+05 0.11339065D+01  1  2 13  1  7  1        2 -.459073683024D-03 0.100000000000D+01
0.127573208196D-02 0.000000000000D+00 0.000000000000D+00 0.477062540933D-07 0.187321203034D-10  7 2 -2 24 -13 13 -24 21 2 0.85443794D-01 0.13605819D+00 0.71444186D+05 0.71444186D+05 0.71444186D+05 0.11339065D+01  1  2  1  1  7  1        2 0.443379934001D-02 0.100000000000D+01
  </mgrwgt>
  </event>
  <event>
  9     66 -.26993063E-05 0.49762814E+03 0.75467711E-02 0.94609172E-01
        2 -1    0    0  502    0 0.00000000E+00 0.00000000E+00 0.12221152E+04 0.12221153E+04 0.32000000E+00 0.0000E+00 0.9000E+01
       -2 -1    0    0    0  501 0.00000000E+00 0.00000000E+00 -.25592901E+03 0.25592921E+03 0.32000000E+00 0.0000E+00 0.9000E+01
       25  2    1    2    0    0 -.29060965E+03 -.34428007E+03 0.81249398E+03 0.97620465E+03 0.29974374E+03 0.0000E+00 0.0000E+00
       23  2    1    2    0    0 0.29488142E+03 0.33989779E+03 0.13063533E+03 0.47797279E+03 0.94376057E+02 0.0000E+00 0.0000E+00
       24  1    3    3    0    0 -.23986720E+03 -.36231267E+03 0.69992563E+03 0.82774987E+03 0.80419002E+02 0.0000E+00 0.9000E+01
      -11  1    4    4    0    0 0.15997961E+02 -.12177895E+01 -.52583469E+01 0.16883956E+02 0.51099893E-03 0.0000E+00 0.9000E+01
       11  1    4    4    0    0 0.27888346E+03 0.34111558E+03 0.13589368E+03 0.46108884E+03 0.51099893E-03 0.0000E+00 0.9000E+01
      -24  1    3    3    0    0 -.50742450E+02 0.18032603E+02 0.11256835E+03 0.14845478E+03 0.80419002E+02 0.0000E+00 0.9000E+01
       21  1    1    2  502  501 -.42717727E+01 0.43822813E+01 0.23056918E+02 0.23867056E+02 0.75000000E+00 0.0000E+00 0.9000E+01
#aMCatNLO 2  0  0  1  2 0.61198392D+01 0.00000000D+00  -5  7  0 0.00000000D+00 0.00000000D+00 0.00000000D+00 0.00000000D+00 0.00000000D+00
  <mgrwgt>
 -.9430917421D-03    3    2    0
 0.553421555081766D+03 0.000000000000000D+00 0.000000000000000D+00 0.553421555081766D+03
 0.553421555081766D+03 0.000000000000000D+00 0.000000000000000D+00 -.553421555081766D+03
 0.490595013748771D+03 -.241761566162629D+03 -.360369300499255D+03 0.214246502760388D+03
 0.265962654825483D+02 0.158951880880696D+02 -.111235780045590D+01 -.212947644595296D+02
 0.490262081787967D+03 0.276991893038030D+03 0.343056080619970D+03 -.214347674538226D+03
 0.993897491442461D+02 -.511255149634700D+02 0.184255776797409D+02 0.213959362373671D+02
 0.000000000000000D+00 -.000000000000000D+00 0.000000000000000D+00 0.000000000000000D+00
 0.564250422648601D+03 0.000000000000000D+00 0.000000000000000D+00 0.564250422648601D+03
 0.554295333580894D+03 0.000000000000000D+00 0.000000000000000D+00 -.554295333580894D+03
 0.491096249471452D+03 -.239867201079500D+03 -.362312671862005D+03 0.214246502760388D+03
 0.266624223409214D+02 0.159979611312513D+02 -.121778953099234D+01 -.212947644595296D+02
 0.489980354982461D+03 0.278883462327470D+03 0.341115577376695D+03 -.214347674538226D+03
 0.991210018212466D+02 -.507424496868971D+02 0.180326026955702D+02 0.213959362373671D+02
 0.116857276134136D+02 -.427177269232351D+01 0.438228132073201D+01 0.995508906770700D+01
-.109308213693D-03 0.000000000000D+00 0.000000000000D+00 0.846500694377D-06 0.000000000000D+00  7 2 -2 24 -11 11 -24 21 2 0.18815767D+00 0.39310793D-01 0.25072799D+06 0.25072799D+06 0.25072799D+06 0.10903641D+01  1  2 13  1  7  1        2 -.183856549027D-02 0.100000000000D+01
-.162511231744D-02 0.000000000000D+00 0.000000000000D+00 0.846500694377D-06 0.000000000000D+00  7 2 -2 24 -11 11 -24 21 2 0.18440539D+00 0.39310793D-01 0.24763377D+06 0.24763377D+06 0.24763377D+06 0.10907700D+01  1  2  8  1  7  1        2 -.282657720279D-01 0.100000000000D+01
0.173669277519D-02 0.000000000000D+00 0.000000000000D+00 0.846500694377D-06 0.143342028707D-06  7 2 -2 24 -11 11 -24 21 2 0.18801368D+00 0.39372860D-01 0.25072799D+06 0.25072799D+06 0.25072799D+06 0.10903641D+01  1  2  1  1  7  1        2 0.291612457761D-01 0.100000000000D+01
  </mgrwgt>
  </event>
  <event>
  9     66 0.26993063E-05 0.59478177E+03 0.75467711E-02 0.90873740E-01
        2 -1    0    0  501    0 0.00000000E+00 0.00000000E+00 0.62060921E+03 0.62060929E+03 0.32000000E+00 0.0000E+00 0.9000E+01
       -2 -1    0    0    0  502 0.00000000E+00 0.00000000E+00 -.92724129E+03 0.92724134E+03 0.32000000E+00 0.0000E+00 0.9000E+01
       25  2    1    2    0    0 -.46801268E+03 0.46388315E+03 0.66598376E+02 0.72712509E+03 0.30008684E+03 0.0000E+00 0.0000E+00
       23  2    1    2    0    0 0.26711314E+03 -.43634719E+03 -.20949418E+03 0.56009365E+03 0.89826442E+02 0.0000E+00 0.0000E+00
       24  1    3    3    0    0 -.30741779E+03 0.38982416E+03 -.41789199E+02 0.50466041E+03 0.80419002E+02 0.0000E+00 0.9000E+01
      -13  1    4    4    0    0 0.17827966E+03 -.29768193E+03 -.18616073E+03 0.39376896E+03 0.10565837E+00 0.0000E+00 0.9000E+01
       13  1    4    4    0    0 0.88833480E+02 -.13866526E+03 -.23333452E+02 0.16632469E+03 0.10565837E+00 0.0000E+00 0.9000E+01
      -24  1    3    3    0    0 -.16059489E+03 0.74058985E+02 0.10838758E+03 0.22246468E+03 0.80419002E+02 0.0000E+00 0.9000E+01
       21  1    1    2  501  502 0.20089954E+03 -.27535957E+02 -.16373627E+03 0.26063189E+03 0.75000000E+00 0.0000E+00 0.9000E+01
#aMCatNLO 2  0  0  2  1 0.20277784D+03 0.00000000D+00  -5  7  0 0.00000000D+00 0.00000000D+00 0.00000000D+00 0.00000000D+00 0.00000000D+00
  <mgrwgt>
 0.3454698860D-04    2    2    0
 0.631544540988814D+03 0.000000000000000D+00 0.000000000000000D+00 0.631544540988814D+03
 0.631544540988814D+03 0.000000000000000D+00 0.000000000000000D+00 -.631544540988814D+03
 0.452179163865252D+03 -.231928083056239D+03 0.379477292583547D+03 0.143223246306874D+02
 0.415076713816602D+03 0.240746033944912D+03 -.306243981695800D+03 -.143334047482401D+03
 0.184014328525610D+03 0.116393305001840D+03 -.142442498208991D+03 -.489962829828954D+01
 0.211818875770164D+03 -.125211255890512D+03 0.692091873212431D+02 0.133911351150003D+03
 0.000000000000000D+00 0.000000000000000D+00 -.000000000000000D+00 -.000000000000000D+00
 0.693791587343192D+03 0.000000000000000D+00 0.000000000000000D+00 0.693791587343192D+03
 0.829433050023841D+03 0.000000000000000D+00 0.000000000000000D+00 -.829433050023841D+03
 0.503131118538451D+03 -.307417793552164D+03 0.389824162555472D+03 0.143223246306874D+02
 0.375423751302407D+03 0.178279783598921D+03 -.297682150345307D+03 -.143334047482401D+03
 0.164752435545035D+03 0.888333566423940D+02 -.138665040324535D+03 -.489962829828954D+01
 0.235955326956826D+03 -.160594885224379D+03 0.740589848558627D+02 0.133911351150003D+03
 0.243962005024313D+03 0.200899538535228D+03 -.275359567414926D+02 -.135641462680649D+03
-.133900197629D-03 0.000000000000D+00 0.000000000000D+00 0.514047012672D-05 0.000000000000D+00  7 2 -2 24 -13 13 -24 21 2 0.86911955D-01 0.14672088D+00 0.49818469D+06 0.49818469D+06 0.49818469D+06 0.10686221D+01  1  2 13  2  7  2       -2 -.305654660640D-03 0.100000000000D+01
0.154176883848D-03 0.000000000000D+00 0.000000000000D+00 0.514047012672D-05 0.788681325398D-09  7 2 -2 24 -13 13 -24 21 2 0.95478275D-01 0.14265240D+00 0.49818469D+06 0.49818469D+06 0.49818469D+06 0.10686221D+01  1  2  1  2  7  2       -2 0.340201649240D-03 0.100000000000D+01
  </mgrwgt>
  </event>
  <event>
  8     66 0.26993063E-05 0.13755155E+03 0.75467711E-02 0.98961218E-01
        2 -1    0    0  501    0 0.00000000E+00 0.00000000E+00 0.35708587E+03 0.35708602E+03 0.32000000E+00 0.0000E+00 0.9000E+01
       -2 -1    0    0    0  501 0.00000000E+00 0.00000000E+00 -.59790138E+03 0.59790146E+03 0.32000000E+00 0.0000E+00 0.9000E+01
       25  2    1    2    0    0 -.57692653E+02 -.23966659E+03 -.46612035E+03 0.60662388E+03 0.29992639E+03 0.0000E+00 0.0000E+00
       23  2    1    2    0    0 0.57692653E+02 0.23966659E+03 0.22530485E+03 0.34836360E+03 0.99128218E+02 0.0000E+00 0.0000E+00
       24  1    3    3    0    0 -.64341600E+02 -.11384607E+03 -.42458536E+03 0.45148723E+03 0.80419002E+02 0.0000E+00 0.9000E+01
      -11  1    4    4    0    0 0.46366378E+02 0.23137304E+03 0.16877756E+03 0.29011927E+03 0.51099893E-03 0.0000E+00 0.9000E+01
       11  1    4    4    0    0 0.11326275E+02 0.82935522E+01 0.56527290E+02 0.58244330E+02 0.51099893E-03 0.0000E+00 0.9000E+01
      -24  1    3    3    0    0 0.66489468E+01 -.12582052E+03 -.41534990E+02 0.15513666E+03 0.80419002E+02 0.0000E+00 0.9000E+01
#aMCatNLO 1  0  0  2  1 0.12672624D+03 0.00000000D+00  -5  7  0 0.00000000D+00 0.00000000D+00 0.00000000D+00 0.00000000D+00 0.00000000D+00
  <mgrwgt>
 0.7056813809D-03    9    2    0
 0.462063031340815D+03 0.000000000000000D+00 0.000000000000000D+00 0.462063031340815D+03
 0.462063031340815D+03 0.000000000000000D+00 0.000000000000000D+00 -.462063031340815D+03
 0.355923204788218D+03 -.643415996306824D+02 -.113846073611751D+03 -.321112662211409D+03
 0.343789155700674D+03 0.463663782765289D+02 0.231373040264751D+03 0.250015317093865D+03
 0.749197072349403D+02 0.113262745078592D+02 0.829355218451769D+01 0.735927647945398D+02
 0.149493994957797D+03 0.664894684629426D+01 -.125820518837518D+03 -.249541967699601D+01
 0.000000000000000D+00 -.000000000000000D+00 0.000000000000000D+00 -.000000000000000D+00
 0.481690385822378D+03 0.000000000000000D+00 0.000000000000000D+00 0.481690385822378D+03
 0.728745476080765D+03 0.000000000000000D+00 0.000000000000000D+00 -.728745476080765D+03
 0.356911812123736D+03 -.192256285393378D+02 -.132044913017682D+03 -.321112662211409D+03
 0.341033867535957D+03 0.897094450255172D+02 0.213889353400772D+03 0.250015317093865D+03
 0.766358094352771D+02 0.209183598384146D+02 0.442430552361055D+01 0.735927647945398D+02
 0.158193145628621D+03 0.261227434619702D+02 -.133675841213599D+03 -.249541967699601D+01
 0.277661227179553D+03 -.117524919786564D+03 0.474070953068987D+02 -.247055090258387D+03
0.854682439990D-04 0.000000000000D+00 0.000000000000D+00 0.136942596553D-06 0.000000000000D+00  7 2 -2 24 -11 11 -24 21 0 0.54936306D-01 0.91984845D-01 0.76453098D+05 0.76453098D+05 0.76453098D+05 0.11314183D+01  1  2  2  2  7  2       -2 0.986108011309D-03 0.100000000000D+01
-.322604456320D-05 0.000000000000D+00 -.328220561262D-06 0.136942596553D-06 0.000000000000D+00  7 2 -2 24 -11 11 -24 21 2 0.54936306D-01 0.91984845D-01 0.76453098D+05 0.76453098D+05 0.76453098D+05 0.11314183D+01  1  2  3  2  7  2       -2 -.476470992873D-04 0.100000000000D+01
0.518253438932D-05 0.000000000000D+00 0.000000000000D+00 0.136942596553D-06 0.000000000000D+00  7 2 -2 24 -11 11 -24 21 2 0.54936306D-01 0.91984845D-01 0.76453098D+05 0.76453098D+05 0.76453098D+05 0.11314183D+01  1  2 15  2  7  2       -2 0.765434964614D-04 0.100000000000D+01
0.128139488655D-03 0.000000000000D+00 0.000000000000D+00 0.136942596553D-06 0.000000000000D+00  7 2 -2 24 -11 11 -24 21 2 0.54936306D-01 0.14609283D+00 0.12041538D+06 0.12041538D+06 0.12041538D+06 0.11151607D+01  1  2 12  2  7  2       -2 0.568657791149D-03 0.100000000000D+01
-.172004507979D-03 0.000000000000D+00 0.000000000000D+00 0.136942596553D-06 0.000000000000D+00  7 2 -2 24 -11 11 -24 21 2 0.54936306D-01 0.91984845D-01 0.76453098D+05 0.76453098D+05 0.76453098D+05 0.11314183D+01  1  2  4  2  7  2       -2 -.254042239931D-02 0.100000000000D+01
-.170530918418D-03 0.000000000000D+00 -.293204703789D-04 0.136942596553D-06 0.000000000000D+00  7 2 -2 24 -11 11 -24 21 2 0.54936306D-01 0.14781249D+00 0.76453098D+05 0.76453098D+05 0.76453098D+05 0.11314183D+01  1  2  5  2  7  2       -2 -.766442864120D-03 0.100000000000D+01
0.168177562639D-03 0.000000000000D+00 0.263054704170D-04 0.136942596553D-06 0.000000000000D+00  7 2 -2 24 -11 11 -24 21 2 0.54936306D-01 0.91984845D-01 0.76453098D+05 0.76453098D+05 0.76453098D+05 0.11314183D+01  1  2  6  2  7  2       -2 0.248390028966D-02 0.100000000000D+01
0.680062211269D-05 0.000000000000D+00 0.000000000000D+00 0.136942596553D-06 0.000000000000D+00  7 2 21 24 -11 11 -24 2 2 0.54936306D-01 0.14609283D+00 0.12041538D+06 0.12041538D+06 0.12041538D+06 0.11151607D+01  1  2 12  4  7  2       -2 0.266956215716D-03 0.100000000000D+01
-.798209782655D-05 0.000000000000D+00 -.158631462362D-05 0.136942596553D-06 0.000000000000D+00  7 2 21 24 -11 11 -24 2 2 0.54936306D-01 0.14781249D+00 0.76453098D+05 0.76453098D+05 0.76453098D+05 0.11314183D+01  1  2  5  4  7  2       -2 -.321972060658D-03 0.100000000000D+01
  </mgrwgt>
  </event>
  <event>
  8     66 0.26993063E-05 0.18494513E+03 0.75467711E-02 0.10022184E+00
        2 -1    0    0  501    0 0.00000000E+00 0.00000000E+00 0.18021434E+04 0.18021434E+04 0.32000000E+00 0.0000E+00 0.9000E+01
       -2 -1    0    0    0  501 0.00000000E+00 0.00000000E+00 -.70296537E+02 0.70297266E+02 0.32000000E+00 0.0000E+00 0.9000E+01
       25  2    1    2    0    0 0.15230002E+03 -.24140141E+03 0.10938158E+04 0.11674154E+04 0.29147176E+03 0.0000E+00 0.0000E+00
       23  2    1    2    0    0 -.15230002E+03 0.24140141E+03 0.63803104E+03 0.70502526E+03 0.92233832E+02 0.0000E+00 0.0000E+00
       24  1    3    3    0    0 0.10988815E+03 -.98384818E+02 0.87325048E+03 0.88926295E+03 0.80419002E+02 0.0000E+00 0.9000E+01
      -13  1    4    4    0    0 -.57125519E+02 0.92239069E+02 0.14423808E+03 0.18048824E+03 0.10565837E+00 0.0000E+00 0.9000E+01
       13  1    4    4    0    0 -.95174503E+02 0.14916234E+03 0.49379296E+03 0.52453702E+03 0.10565837E+00 0.0000E+00 0.9000E+01
      -24  1    3    3    0    0 0.42411870E+02 -.14301659E+03 0.22056532E+03 0.27815245E+03 0.80419002E+02 0.0000E+00 0.9000E+01
#aMCatNLO 1  0  0  1  2 0.49090169D+01 0.00000000D+00  -5  7  0 0.00000000D+00 0.00000000D+00 0.00000000D+00 0.00000000D+00 0.00000000D+00
  <mgrwgt>
 0.4224630981D-02   11    2    0
 0.355928570532822D+03 0.000000000000000D+00 0.000000000000000D+00 0.355928570532822D+03
 0.355928570532822D+03 0.000000000000000D+00 0.000000000000000D+00 -.355928570532822D+03
 0.214588044512191D+03 0.109888152398096D+03 -.983848186645642D+02 0.133513423714880D+03
 0.123838347291946D+03 -.571254697295218D+02 0.922389943469454D+02 -.597041446638864D+02
 0.178393558119603D+03 -.951745531257676D+02 0.149162414452764D+03 0.227297191030723D+02
 0.195037191141903D+03 0.424118704571935D+02 -.143016590135145D+03 -.965389981540659D+02
 0.000000000000000D+00 -.000000000000000D+00 -.000000000000000D+00 0.000000000000000D+00
 0.364138450237778D+03 0.000000000000000D+00 0.000000000000000D+00 0.364138450237778D+03
 0.356671615502616D+03 0.000000000000000D+00 0.000000000000000D+00 -.356671615502616D+03
 0.214896175740402D+03 0.111159773667591D+03 -.976259227847817D+02 0.133513423714880D+03
 0.123828987806385D+03 -.563921737521167D+02 0.926766209495067D+02 -.597041446638864D+02
 0.178361349950422D+03 -.941182695472188D+02 0.149792798101475D+03 0.227297191030723D+02
 0.194787553829893D+03 0.435660675468796D+02 -.142327772295407D+03 -.965389981540659D+02
 0.893599841329243D+01 -.421539791513505D+01 -.251572397079331D+01 0.746683473516160D+01
0.203908741444D-04 0.000000000000D+00 0.000000000000D+00 0.649952525913D-08 0.000000000000D+00  7 2 -2 24 -13 13 -24 21 0 0.27725288D+00 0.10814910D-01 0.97000804D+05 0.97000804D+05 0.97000804D+05 0.11228089D+01  1  2  2  1  7  1        2 0.124982244745D-02 0.100000000000D+01
-.110828148593D-05 0.000000000000D+00 -.783063257550D-07 0.649952525913D-08 0.000000000000D+00  7 2 -2 24 -13 13 -24 21 2 0.27725288D+00 0.10814910D-01 0.97000804D+05 0.97000804D+05 0.97000804D+05 0.11228089D+01  1  2  3  1  7  1        2 -.856395243415D-04 0.100000000000D+01
0.128565792662D-05 0.000000000000D+00 0.000000000000D+00 0.649952525913D-08 0.000000000000D+00  7 2 -2 24 -13 13 -24 21 2 0.27725288D+00 0.10814910D-01 0.97000804D+05 0.97000804D+05 0.97000804D+05 0.11228089D+01  1  2 15  1  7  1        2 0.993458202633D-04 0.100000000000D+01
0.194441299241D-04 0.000000000000D+00 0.000000000000D+00 0.649952525913D-08 0.000000000000D+00  7 2 -2 24 -13 13 -24 21 2 0.28393368D+00 0.10814910D-01 0.98555484D+05 0.98555484D+05 0.98555484D+05 0.11222410D+01  1  2 12  1  7  1        2 0.142251024124D-02 0.100000000000D+01
-.386317369003D-03 0.000000000000D+00 0.000000000000D+00 0.649952525913D-08 0.000000000000D+00  7 2 -2 24 -13 13 -24 21 2 0.27725288D+00 0.10814910D-01 0.97000804D+05 0.97000804D+05 0.97000804D+05 0.11228089D+01  1  2  4  1  7  1        2 -.298516542471D-01 0.100000000000D+01
-.112978931444D-02 0.000000000000D+00 -.903796166401D-04 0.649952525913D-08 0.000000000000D+00  7 2 -2 24 -13 13 -24 21 2 0.28387378D+00 0.10814910D-01 0.97000804D+05 0.97000804D+05 0.97000804D+05 0.11228089D+01  1  2  5  1  7  1        2 -.828043996112D-01 0.100000000000D+01
0.113163226411D-02 0.000000000000D+00 0.903544542374D-04 0.649952525913D-08 0.000000000000D+00  7 2 -2 24 -13 13 -24 21 2 0.27725288D+00 0.10814910D-01 0.97000804D+05 0.97000804D+05 0.97000804D+05 0.11228089D+01  1  2  6  1  7  1        2 0.874438940451D-01 0.100000000000D+01
0.366598621312D-03 0.000000000000D+00 0.000000000000D+00 0.649952525913D-08 0.181201531129D-08  7 2 -2 24 -13 13 -24 21 2 0.28364802D+00 0.10837488D-01 0.98555484D+05 0.98555484D+05 0.98555484D+05 0.11222410D+01  1  2 11  1  7  1        2 0.267943189567D-01 0.100000000000D+01
0.872447502528D-06 0.000000000000D+00 0.000000000000D+00 0.649952525913D-08 0.000000000000D+00  7 21 -2 24 -13 13 -24 -2 2 0.28393368D+00 0.10814910D-01 0.98555484D+05 0.98555484D+05 0.98555484D+05 0.11222410D+01  1  2 12  3  7  1        2 0.158950402702D-04 0.100000000000D+01
-.480857085620D-05 0.000000000000D+00 -.386136524851D-06 0.649952525913D-08 0.000000000000D+00  7 21 -2 24 -13 13 -24 -2 2 0.28387378D+00 0.10814910D-01 0.97000804D+05 0.97000804D+05 0.97000804D+05 0.11228089D+01  1  2  5  3  7  1        2 -.878837141310D-04 0.100000000000D+01
0.155832120163D-05 0.000000000000D+00 0.000000000000D+00 0.649952525913D-08 0.749517906788D-11  7 21 -2 24 -13 13 -24 -2 2 0.28364802D+00 0.10837488D-01 0.98555484D+05 0.98555484D+05 0.98555484D+05 0.11222410D+01  1  2 11  3  7  1        2 0.284215264124D-04 0.100000000000D+01
  </mgrwgt>
  </event>
  <event>
  8     66 0.26993063E-05 0.23119949E+03 0.75467711E-02 0.93507316E-01
        2 -1    0    0  501    0 0.00000000E+00 0.00000000E+00 0.95864769E+03 0.95864774E+03 0.32000000E+00 0.0000E+00 0.9000E+01
       -2 -1    0    0    0  501 0.00000000E+00 0.00000000E+00 -.21639017E+03 0.21639041E+03 0.32000000E+00 0.0000E+00 0.9000E+01
       25  2    1    2    0    0 0.33090445E+03 -.21719038E+03 0.47332543E+03 0.68608573E+03 0.30001208E+03 0.0000E+00 0.0000E+00
       23  2    1    2    0    0 -.33090445E+03 0.21719038E+03 0.26893209E+03 0.48895242E+03 0.10040212E+03 0.0000E+00 0.0000E+00
       24  1    3    3    0    0 0.31887833E+03 -.13580363E+03 0.44090189E+03 0.56655777E+03 0.80419002E+02 0.0000E+00 0.9000E+01
      -13  1    4    4    0    0 -.23831665E+03 0.19997550E+03 0.23072288E+03 0.38732169E+03 0.10565837E+00 0.0000E+00 0.9000E+01
       13  1    4    4    0    0 -.92587795E+02 0.17214878E+02 0.38209209E+02 0.10163074E+03 0.10565837E+00 0.0000E+00 0.9000E+01
      -24  1    3    3    0    0 0.12026120E+02 -.81386750E+02 0.32423535E+02 0.11952796E+03 0.80419002E+02 0.0000E+00 0.9000E+01
#aMCatNLO 1  0  0  2  1 0.20614245D+03 0.00000000D+00  -5  7  0 0.00000000D+00 0.00000000D+00 0.00000000D+00 0.00000000D+00 0.00000000D+00
  <mgrwgt>
 0.8971234980D-03    9    2    0
 0.455458130361746D+03 0.000000000000000D+00 0.000000000000000D+00 0.455458130361746D+03
 0.455458130361746D+03 0.000000000000000D+00 0.000000000000000D+00 -.455458130361746D+03
 0.371564621504238D+03 0.318878330805290D+03 -.135803634188187D+03 0.107084242927381D+03
 0.311622692836568D+03 -.238316821223997D+03 0.199975697701625D+03 -.179865433352903D+02
 0.999638585339595D+02 -.925876308065356D+02 0.172146870095970D+02 -.335254856160468D+02
 0.127765087848726D+03 0.120261212252425D+02 -.813867505230348D+02 -.555722139760438D+02
 0.000000000000000D+00 0.000000000000000D+00 0.000000000000000D+00 -.000000000000000D+00
 0.528116625838746D+03 0.000000000000000D+00 0.000000000000000D+00 0.528116625838746D+03
 0.640730795331716D+03 0.000000000000000D+00 0.000000000000000D+00 -.640730795331716D+03
 0.327336357033852D+03 0.247425518633460D+03 -.167318415984183D+03 0.107084242927381D+03
 0.350585195332907D+03 -.306018280093107D+03 0.170115477527229D+03 -.179865433352903D+02
 0.120090424355904D+03 -.115085091571042D+03 0.729201853221927D+01 -.335254856160468D+02
 0.135938313671274D+03 -.149338490659626D+02 -.932776412399831D+02 -.555722139760438D+02
 0.234897130776524D+03 0.188611702096651D+03 0.831885611647177D+02 -.112614169492970D+03
0.268134090074D-04 0.000000000000D+00 0.000000000000D+00 0.490187229478D-07 0.000000000000D+00  7 2 -2 24 -13 13 -24 21 0 0.14748428D+00 0.33290818D-01 0.19189800D+06 0.19189800D+06 0.19189800D+06 0.10992074D+01  1  2  2  2  7  2       -2 0.745944921570D-03 0.100000000000D+01
-.148688691404D-05 0.000000000000D+00 -.102970550721D-06 0.490187229478D-07 0.000000000000D+00  7 2 -2 24 -13 13 -24 21 2 0.14748428D+00 0.33290818D-01 0.19189800D+06 0.19189800D+06 0.19189800D+06 0.10992074D+01  1  2  3  2  7  2       -2 -.499795048388D-04 0.100000000000D+01
0.171763776598D-05 0.000000000000D+00 0.000000000000D+00 0.490187229478D-07 0.000000000000D+00  7 2 -2 24 -13 13 -24 21 2 0.14748428D+00 0.33290818D-01 0.19189800D+06 0.19189800D+06 0.19189800D+06 0.10992074D+01  1  2 15  2  7  2       -2 0.577358534971D-04 0.100000000000D+01
0.114847826576D-04 0.000000000000D+00 0.000000000000D+00 0.490187229478D-07 0.000000000000D+00  7 2 -2 24 -13 13 -24 21 2 0.14748428D+00 0.48630530D-01 0.30523817D+06 0.30523817D+06 0.30523817D+06 0.10839961D+01  1  2 12  2  7  2       -2 0.181816563605D-03 0.100000000000D+01
-.163841810530D-04 0.000000000000D+00 0.000000000000D+00 0.490187229478D-07 0.000000000000D+00  7 2 -2 24 -13 13 -24 21 2 0.14748428D+00 0.33290818D-01 0.19189800D+06 0.19189800D+06 0.19189800D+06 0.10992074D+01  1  2  4  2  7  2       -2 -.550730017517D-03 0.100000000000D+01
-.222394758224D-04 0.000000000000D+00 -.979402989954D-05 0.490187229478D-07 0.000000000000D+00  7 2 -2 24 -13 13 -24 21 2 0.14748428D+00 0.53491620D-01 0.19189800D+06 0.19189800D+06 0.19189800D+06 0.10992074D+01  1  2  5  2  7  2       -2 -.303764554240D-03 0.100000000000D+01
0.250238831688D-04 0.000000000000D+00 0.878721782348D-05 0.490187229478D-07 0.000000000000D+00  7 2 -2 24 -13 13 -24 21 2 0.14748428D+00 0.33290818D-01 0.19189800D+06 0.19189800D+06 0.19189800D+06 0.10992074D+01  1  2  6  2  7  2       -2 0.841140827931D-03 0.100000000000D+01
0.525529178246D-06 0.000000000000D+00 0.000000000000D+00 0.490187229478D-07 0.000000000000D+00  7 2 21 24 -13 13 -24 2 2 0.14748428D+00 0.48630530D-01 0.30523817D+06 0.30523817D+06 0.30523817D+06 0.10839961D+01  1  2 12  4  7  2       -2 0.872309731126D-04 0.100000000000D+01
-.787580281669D-06 0.000000000000D+00 -.529815971594D-06 0.490187229478D-07 0.000000000000D+00  7 2 21 24 -13 13 -24 2 2 0.14748428D+00 0.53491620D-01 0.19189800D+06 0.19189800D+06 0.19189800D+06 0.10992074D+01  1  2  5  4  7  2       -2 -.112271565078D-03 0.100000000000D+01
  </mgrwgt>
  </event>
  <event>
  8     66 0.26993063E-05 0.30389437E+03 0.75467711E-02 0.97217929E-01
        2 -1    0    0  501    0 0.00000000E+00 0.00000000E+00 0.13365252E+04 0.13365252E+04 0.32000000E+00 0.0000E+00 0.9000E+01
       -2 -1    0    0    0  501 0.00000000E+00 0.00000000E+00 -.26360896E+03 0.26360916E+03 0.32000000E+00 0.0000E+00 0.9000E+01
       25  2    1    2    0    0 0.45221519E+02 -.22230476E+03 -.11057414E+03 0.39182619E+03 0.29972777E+03 0.0000E+00 0.0000E+00
       23  2    1    2    0    0 -.45221519E+02 0.22230476E+03 0.11834904E+04 0.12083082E+04 0.88852961E+02 0.0000E+00 0.0000E+00
       24  1    3    3    0    0 0.10870480E+03 -.46686328E+01 -.36599365E+02 0.14016155E+03 0.80419002E+02 0.0000E+00 0.9000E+01
      -13  1    4    4    0    0 -.25280995E+02 0.32899656E+02 0.10097902E+03 0.10917092E+03 0.10565837E+00 0.0000E+00 0.9000E+01
       13  1    4    4    0    0 -.19940524E+02 0.18940510E+03 0.10825113E+04 0.10991373E+04 0.10565837E+00 0.0000E+00 0.9000E+01
      -24  1    3    3    0    0 -.63483283E+02 -.21763613E+03 -.73974773E+02 0.25166464E+03 0.80419002E+02 0.0000E+00 0.9000E+01
#aMCatNLO 1  0  0  1  1 0.16559306D+03 0.00000000D+00  -5  7  0 0.00000000D+00 0.00000000D+00 0.00000000D+00 0.00000000D+00 0.00000000D+00
  <mgrwgt>
 0.6725303965D-03    4    2    0
 0.593565668613247D+03 0.000000000000000D+00 0.000000000000000D+00 0.593565668613247D+03
 0.593565668613247D+03 0.000000000000000D+00 0.000000000000000D+00 -.593565668613247D+03
 0.222001859409876D+03 0.108704801882759D+03 -.466863280696374D+01 -.176008748482613D+03
 0.558871273313142D+02 -.252810020787703D+02 0.328994343663170D+02 0.374415431521744D+02
 0.503165980360318D+03 -.199405168139638D+02 0.189405323729705D+03 0.465729538384670D+03
 0.406076370124986D+03 -.634832829900249D+02 -.217636125289058D+03 -.327162333054232D+03
 0.000000000000000D+00 -.000000000000000D+00 -.000000000000000D+00 -.000000000000000D+00
 0.664778599113451D+03 0.000000000000000D+00 0.000000000000000D+00 0.664778599113451D+03
 0.704027221169392D+03 0.000000000000000D+00 0.000000000000000D+00 -.704027221169392D+03
 0.237353634967377D+03 0.137088867353997D+03 0.985367865515480D+01 -.176008748482613D+03
 0.553790857648847D+02 -.184057442100454D+02 0.364170642228708D+02 0.374415431521744D+02
 0.517595246535163D+03 0.431334070845225D+02 0.221676217725492D+03 0.465729538384670D+03
 0.388297024864043D+03 -.143981044562495D+02 -.192522377874562D+03 -.327162333054232D+03
 0.170180828151375D+03 -.147418425772224D+03 -.754245827289547D+02 -.392486220559409D+02
0.107302618139D-03 0.000000000000D+00 0.000000000000D+00 0.278248231666D-05 0.000000000000D+00  7 2 -2 24 -13 13 -24 21 0 0.20561928D+00 0.40555243D-01 0.92351789D+05 0.92351789D+05 0.92351789D+05 0.11245687D+01  1  2  2  1  7  1        2 0.127808551026D-02 0.100000000000D+01
-.271278894154D-05 0.000000000000D+00 -.412070307080D-06 0.278248231666D-05 0.000000000000D+00  7 2 -2 24 -13 13 -24 21 2 0.20561928D+00 0.40555243D-01 0.92351789D+05 0.92351789D+05 0.92351789D+05 0.11245687D+01  1  2  3  1  7  1        2 -.408636924703D-04 0.100000000000D+01
0.654769441799D-05 0.000000000000D+00 0.000000000000D+00 0.278248231666D-05 0.000000000000D+00  7 2 -2 24 -13 13 -24 21 2 0.20561928D+00 0.40555243D-01 0.92351789D+05 0.92351789D+05 0.92351789D+05 0.11245687D+01  1  2 15  1  7  1        2 0.986302203571D-04 0.100000000000D+01
-.440354629073D-04 0.000000000000D+00 0.000000000000D+00 0.278248231666D-05 0.000000000000D+00  7 2 -2 24 -13 13 -24 21 2 0.20561928D+00 0.40555243D-01 0.92351789D+05 0.92351789D+05 0.92351789D+05 0.11245687D+01  1  2  4  1  7  1        2 -.663321641605D-03 0.100000000000D+01
  </mgrwgt>
  </event>
  <event>
  8     66 -.26993063E-05 0.11188219E+03 0.75467711E-02 0.10290521E+00
        2 -1    0    0  501    0 0.00000000E+00 0.00000000E+00 0.38252556E+04 0.38252556E+04 0.32000000E+00 0.0000E+00 0.9000E+01
       -2 -1    0    0    0  501 0.00000000E+00 0.00000000E+00 -.22443672E+02 0.22445953E+02 0.32000000E+00 0.0000E+00 0.9000E+01
       25  2    1    2    0    0 0.71016898E+02 -.61356381E+02 0.11840759E+04 0.12256766E+04 0.30238939E+03 0.0000E+00 0.0000E+00
       23  2    1    2    0    0 -.71016898E+02 0.61356381E+02 0.26187361E+04 0.26220250E+04 0.91807552E+02 0.0000E+00 0.0000E+00
       24  1    3    3    0    0 -.81641631E+02 -.37689595E+02 0.27849471E+03 0.30350021E+03 0.80419002E+02 0.0000E+00 0.9000E+01
      -11  1    4    4    0    0 -.56201973E+02 0.39010780E+02 0.75429875E+03 0.75739494E+03 0.51099893E-03 0.0000E+00 0.9000E+01
       11  1    4    4    0    0 -.14814925E+02 0.22345601E+02 0.18644373E+04 0.18646301E+04 0.51099893E-03 0.0000E+00 0.9000E+01
      -24  1    3    3    0    0 0.15265853E+03 -.23666786E+02 0.90558117E+03 0.92217635E+03 0.80419002E+02 0.0000E+00 0.9000E+01
#aMCatNLO 1  0  0  2  1 0.93862879D+02 0.00000000D+00  -5  7  0 0.00000000D+00 0.00000000D+00 0.00000000D+00 0.00000000D+00 0.00000000D+00
  <mgrwgt>
 -.1459454553D-02    7    2    0
 0.293013987305351D+03 0.000000000000000D+00 0.000000000000000D+00 0.293013987305351D+03
 0.293013987305351D+03 0.000000000000000D+00 0.000000000000000D+00 -.293013987305351D+03
 0.185512051083174D+03 -.816416311367679D+02 -.376895952142648D+02 -.140931343641606D+03
 0.781079493272740D+02 -.562019726256277D+02 0.390107801025486D+02 0.376875185822945D+02
 0.144081163797152D+03 -.148149255035317D+02 0.223456008462425D+02 0.141564733836810D+03
 0.178326810403102D+03 0.152658529265927D+03 -.236667857345263D+02 -.383209087774981D+02
 0.000000000000000D+00 0.000000000000000D+00 -.000000000000000D+00 -.000000000000000D+00
 0.299482195430900D+03 0.000000000000000D+00 0.000000000000000D+00 0.299482195430900D+03
 0.110249853566533D+04 0.000000000000000D+00 0.000000000000000D+00 -.110249853566533D+04
 0.189272770314019D+03 -.967083068258119D+02 -.119509580464912D+02 -.140931343641606D+03
 0.890433574976970D+02 -.629216004951425D+02 0.504900252396606D+02 0.376875185822945D+02
 0.150205071617391D+03 -.266454880439542D+02 0.425559354285427D+02 0.141564733836810D+03
 0.164976085446814D+03 0.138857454356870D+03 -.901941266113901D-01 -.383209087774981D+02
 0.808483446220305D+03 0.474179410080386D+02 -.810048084951008D+02 -.803016340234426D+03
0.427605809772D-04 0.000000000000D+00 0.000000000000D+00 0.789161953978D-07 0.000000000000D+00  7 2 -2 24 -11 11 -24 21 0 0.58850104D+00 0.34530491D-02 0.38029223D+05 0.38029223D+05 0.38029223D+05 0.11578987D+01  1  2  2  2  7  2       -2 0.866219261153D-03 0.100000000000D+01
-.189674386561D-05 0.000000000000D+00 -.164211890072D-06 0.789161953978D-07 0.000000000000D+00  7 2 -2 24 -11 11 -24 21 2 0.58850104D+00 0.34530491D-02 0.38029223D+05 0.38029223D+05 0.38029223D+05 0.11578987D+01  1  2  3  2  7  2       -2 -.515150413002D-04 0.100000000000D+01
0.266610226681D-05 0.000000000000D+00 0.000000000000D+00 0.789161953978D-07 0.000000000000D+00  7 2 -2 24 -11 11 -24 21 2 0.58850104D+00 0.34530491D-02 0.38029223D+05 0.38029223D+05 0.38029223D+05 0.11578987D+01  1  2 15  2  7  2       -2 0.724106037063D-04 0.100000000000D+01
0.387327481119D-03 0.000000000000D+00 0.000000000000D+00 0.789161953978D-07 0.000000000000D+00  7 2 -2 24 -11 11 -24 21 2 0.58850104D+00 0.12889298D-01 0.65421747D+05 0.65421747D+05 0.65421747D+05 0.11371654D+01  1  2 12  2  7  2       -2 0.136140209617D-02 0.100000000000D+01
-.574075972974D-03 0.000000000000D+00 -.152071900883D-04 0.789161953978D-07 0.000000000000D+00  7 2 -2 24 -11 11 -24 21 2 0.58850104D+00 0.13400729D-01 0.38029223D+05 0.38029223D+05 0.38029223D+05 0.11578987D+01  1  2  5  2  7  2       -2 -.204390979656D-02 0.100000000000D+01
0.602970291930D-04 0.000000000000D+00 0.000000000000D+00 0.789161953978D-07 0.000000000000D+00  7 2 21 24 -11 11 -24 2 2 0.58850104D+00 0.12889298D-01 0.65421747D+05 0.65421747D+05 0.65421747D+05 0.11371654D+01  1  2 12  4  7  2       -2 0.298045809736D-02 0.100000000000D+01
-.922754459225D-04 0.000000000000D+00 -.245104121407D-05 0.789161953978D-07 0.000000000000D+00  7 2 21 24 -11 11 -24 2 2 0.58850104D+00 0.13400729D-01 0.38029223D+05 0.38029223D+05 0.38029223D+05 0.11578987D+01  1  2  5  4  7  2       -2 -.464451977350D-02 0.100000000000D+01
  </mgrwgt>
  </event>
  <event>
  8     66 0.26993063E-05 0.32031639E+03 0.75467711E-02 0.87321277E-01
        2 -1    0    0  501    0 0.00000000E+00 0.00000000E+00 0.35075357E+03 0.35075372E+03 0.32000000E+00 0.0000E+00 0.9000E+01
       -2 -1    0    0    0  501 0.00000000E+00 0.00000000E+00 -.60752199E+03 0.60752207E+03 0.32000000E+00 0.0000E+00 0.9000E+01
       25  2    1    2    0    0 0.17367766E+03 -.19378239E+03 -.46557226E+03 0.61191847E+03 0.29995189E+03 0.0000E+00 0.0000E+00
       23  2    1    2    0    0 -.17367766E+03 0.19378239E+03 0.20880385E+03 0.34635732E+03 0.92998938E+02 0.0000E+00 0.0000E+00
       24  1    3    3    0    0 0.21685056E+03 -.15966365E+03 -.25328243E+03 0.37833299E+03 0.80419002E+02 0.0000E+00 0.9000E+01
      -11  1    4    4    0    0 -.10732226E+01 0.98638081E+01 -.87801289E+01 0.13249045E+02 0.51099893E-03 0.0000E+00 0.9000E+01
       11  1    4    4    0    0 -.17260444E+03 0.18391858E+03 0.21758398E+03 0.33310828E+03 0.51099893E-03 0.0000E+00 0.9000E+01
      -24  1    3    3    0    0 -.43172895E+02 -.34118736E+02 -.21228983E+03 0.23358548E+03 0.80419002E+02 0.0000E+00 0.9000E+01
#aMCatNLO 1  0  0  1  1 0.89537429D+03 0.00000000D+00  -5  7  0 0.00000000D+00 0.00000000D+00 0.00000000D+00 0.00000000D+00 0.00000000D+00
  <mgrwgt>
 0.1104356297D-02    5    2    0
 0.461617393193476D+03 0.000000000000000D+00 0.000000000000000D+00 0.461617393193476D+03
 0.461617393193476D+03 0.000000000000000D+00 0.000000000000000D+00 -.461617393193476D+03
 0.322250007994507D+03 0.216850559754820D+03 -.159663651015110D+03 -.157674363726752D+03
 0.113099928756164D+02 -.107322262471511D+01 0.986380812627841D+01 -.542857451751897D+01
 0.406265333974698D+03 -.172604441717696D+03 0.183918578611882D+03 0.318485768489394D+03
 0.183409451542131D+03 -.431728954124085D+02 -.341187357230510D+02 -.155382830245123D+03
 0.000000000000000D+00 0.000000000000000D+00 0.000000000000000D+00 0.000000000000000D+00
 0.181127376522033D+04 0.000000000000000D+00 0.000000000000000D+00 0.181127376522033D+04
 0.814613814131350D+03 0.000000000000000D+00 0.000000000000000D+00 -.814613814131350D+03
 0.291280654748122D+03 -.215406644936940D+02 -.230330194878261D+03 -.157674363726752D+03
 0.140344052674354D+02 -.109209490189514D+02 0.694463695550931D+01 -.542857451751897D+01
 0.675742567147126D+03 -.593025463614038D+03 0.592927637209044D+02 0.318485768489394D+03
 0.305044079017616D+03 -.232964607888715D+03 -.903788787583002D+02 -.155382830245123D+03
 0.133978587317139D+04 0.858451685015399D+03 0.254471672960148D+03 0.996659951088984D+03
0.896814872687D-04 0.000000000000D+00 0.000000000000D+00 0.308572058833D-05 0.000000000000D+00  7 2 -2 24 -11 11 -24 21 0 0.53962106D-01 0.93464939D-01 0.10260259D+06 0.10260259D+06 0.10260259D+06 0.11208075D+01  1  2  2  1  7  1        2 0.100986582103D-02 0.100000000000D+01
-.417337021249D-05 0.000000000000D+00 -.344400524790D-06 0.308572058833D-05 0.000000000000D+00  7 2 -2 24 -11 11 -24 21 2 0.53962106D-01 0.93464939D-01 0.10260259D+06 0.10260259D+06 0.10260259D+06 0.11208075D+01  1  2  3  1  7  1        2 -.590350394997D-04 0.100000000000D+01
0.558798291906D-05 0.000000000000D+00 0.000000000000D+00 0.308572058833D-05 0.000000000000D+00  7 2 -2 24 -11 11 -24 21 2 0.53962106D-01 0.93464939D-01 0.10260259D+06 0.10260259D+06 0.10260259D+06 0.11208075D+01  1  2 15  1  7  1        2 0.790456574792D-04 0.100000000000D+01
0.555827634631D-04 0.000000000000D+00 -.418533157036D-04 0.308572058833D-05 0.000000000000D+00  7 2 -2 24 -11 11 -24 21 2 0.29410853D+00 0.93464939D-01 0.10260259D+06 0.10260259D+06 0.10260259D+06 0.11208075D+01  1  2  5  1  7  1        2 0.716067481533D-04 0.100000000000D+01
0.964573567826D-05 0.000000000000D+00 -.868320892625D-05 0.308572058833D-05 0.000000000000D+00  7 21 -2 24 -11 11 -24 -2 2 0.29410853D+00 0.93464939D-01 0.10260259D+06 0.10260259D+06 0.10260259D+06 0.11208075D+01  1  2  5  3  7  1        2 0.287310955909D-05 0.100000000000D+01
  </mgrwgt>
  </event>
  <event>
  8     66 0.26993063E-05 0.20707024E+03 0.75467711E-02 0.10567935E+00
        2 -1    0    0  501    0 0.00000000E+00 0.00000000E+00 0.43457210E+03 0.43457221E+03 0.32000000E+00 0.0000E+00 0.9000E+01
       -2 -1    0    0    0  501 0.00000000E+00 0.00000000E+00 -.15421579E+03 0.15421612E+03 0.32000000E+00 0.0000E+00 0.9000E+01
       25  2    1    2    0    0 0.15151866E+03 -.25566790E+01 0.14120536E+03 0.36414276E+03 0.29949383E+03 0.0000E+00 0.0000E+00
       23  2    1    2    0    0 -.15151866E+03 0.25566790E+01 0.13915095E+03 0.22464558E+03 0.90212024E+02 0.0000E+00 0.0000E+00
       24  1    3    3    0    0 -.29651900E+01 0.28073634E+02 -.53884921E+02 0.10083512E+03 0.80419002E+02 0.0000E+00 0.9000E+01
      -13  1    4    4    0    0 -.96936902E+02 -.44887075E+01 0.28623253E+02 0.10117417E+03 0.10565837E+00 0.0000E+00 0.9000E+01
       13  1    4    4    0    0 -.54581755E+02 0.70453865E+01 0.11052769E+03 0.12347140E+03 0.10565837E+00 0.0000E+00 0.9000E+01
      -24  1    3    3    0    0 0.15448385E+03 -.30630313E+02 0.19509029E+03 0.26330763E+03 0.80419002E+02 0.0000E+00 0.9000E+01
#aMCatNLO 1  0  0  2  1 0.43913741D+01 0.00000000D+00  -5  7  0 0.00000000D+00 0.00000000D+00 0.00000000D+00 0.00000000D+00 0.00000000D+00
  <mgrwgt>
 0.6178906563D-03    6    2    0
 0.258878369256191D+03 0.000000000000000D+00 0.000000000000000D+00 0.258878369256191D+03
 0.258878369256191D+03 0.000000000000000D+00 0.000000000000000D+00 -.258878369256191D+03
 0.143846551951416D+03 -.296518881410435D+01 0.280736335902679D+02 -.115877924154158D+03
 0.995553936630678D+02 -.969369600387172D+02 -.448872279945076D+01 -.222340629100993D+02
 0.805617169514774D+02 -.545816988775396D+02 0.704540185382593D+01 0.588335847839451D+02
 0.193793075946422D+03 0.154483847730361D+03 -.306303126446430D+02 0.792784022803125D+02
 0.000000000000000D+00 0.000000000000000D+00 0.000000000000000D+00 0.000000000000000D+00
 0.264029354767057D+03 0.000000000000000D+00 0.000000000000000D+00 0.264029354767057D+03
 0.259825320914646D+03 0.000000000000000D+00 0.000000000000000D+00 -.259825320914646D+03
 0.143719235295336D+03 -.390445096036733D+01 0.272958714080893D+02 -.115877924154158D+03
 0.100216507980290D+03 -.975894652859411D+02 -.502903405013083D+01 -.222340629100993D+02
 0.808830648242262D+02 -.551090181170272D+02 0.660875169812620D+01 0.588335847839451D+02
 0.192956552883603D+03 0.153220626225747D+03 -.316763314988174D+02 0.792784022803125D+02
 0.607931469824831D+01 0.338230813758828D+01 0.280074244273264D+01 0.420403385241105D+01
0.421774259611D-05 0.000000000000D+00 0.000000000000D+00 0.400756921071D-06 0.000000000000D+00  7 2 -2 24 -13 13 -24 21 0 0.66857280D-01 0.23725540D-01 0.42878084D+05 0.42878084D+05 0.42878084D+05 0.11532120D+01  1  2  2  2  7  2       -2 0.548819431612D-03 0.100000000000D+01
-.220113170871D-06 0.000000000000D+00 -.161972421262D-07 0.400756921071D-06 0.000000000000D+00  7 2 -2 24 -13 13 -24 21 2 0.66857280D-01 0.23725540D-01 0.42878084D+05 0.42878084D+05 0.42878084D+05 0.11532120D+01  1  2  3  2  7  2       -2 -.380902434983D-04 0.100000000000D+01
0.267083754105D-06 0.000000000000D+00 0.000000000000D+00 0.400756921071D-06 0.000000000000D+00  7 2 -2 24 -13 13 -24 21 2 0.66857280D-01 0.23725540D-01 0.42878084D+05 0.42878084D+05 0.42878084D+05 0.11532120D+01  1  2 15  2  7  2       -2 0.462184302196D-04 0.100000000000D+01
-.530317246776D-05 0.000000000000D+00 0.000000000000D+00 0.400756921071D-06 0.000000000000D+00  7 2 -2 24 -13 13 -24 21 2 0.66857280D-01 0.23725540D-01 0.42878084D+05 0.42878084D+05 0.42878084D+05 0.11532120D+01  1  2  4  2  7  2       -2 -.917705786579D-03 0.100000000000D+01
0.520466007657D-05 0.000000000000D+00 0.000000000000D+00 0.400756921071D-06 0.147221586647D-06  7 2 -2 24 -13 13 -24 21 2 0.68187561D-01 0.23812326D-01 0.43795423D+05 0.43795423D+05 0.43795423D+05 0.11523913D+01  1  2 11  2  7  2       -2 0.875116808173D-03 0.100000000000D+01
0.485685323481D-07 0.000000000000D+00 0.000000000000D+00 0.400756921071D-06 0.101497549136D-09  7 2 21 24 -13 13 -24 2 2 0.68187561D-01 0.23812326D-01 0.43795423D+05 0.43795423D+05 0.43795423D+05 0.11523913D+01  1  2 11  4  7  2       -2 0.103532016385D-03 0.100000000000D+01
  </mgrwgt>
  </event>
  <event>
  8     66 0.26993063E-05 0.38455321E+03 0.75467711E-02 0.94953332E-01
        2 -1    0    0  501    0 0.00000000E+00 0.00000000E+00 0.14030069E+04 0.14030070E+04 0.32000000E+00 0.0000E+00 0.9000E+01
       -2 -1    0    0    0  501 0.00000000E+00 0.00000000E+00 -.20587034E+03 0.20587059E+03 0.32000000E+00 0.0000E+00 0.9000E+01
       25  2    1    2    0    0 -.31292896E+03 0.75055051E+02 0.11962438E+04 0.12744408E+04 0.29940332E+03 0.0000E+00 0.0000E+00
       23  2    1    2    0    0 0.31292896E+03 -.75055051E+02 0.89279131E+00 0.33443676E+03 0.91045901E+02 0.0000E+00 0.0000E+00
       24  1    3    3    0    0 -.10249276E+03 -.88240897E+02 0.35305243E+03 0.38652872E+03 0.80419002E+02 0.0000E+00 0.9000E+01
      -11  1    4    4    0    0 0.13745618E+03 -.77957337E+02 -.11920426E+02 0.15847285E+03 0.51099893E-03 0.0000E+00 0.9000E+01
       11  1    4    4    0    0 0.17547278E+03 0.29022852E+01 0.12813217E+02 0.17596391E+03 0.51099893E-03 0.0000E+00 0.9000E+01
      -24  1    3    3    0    0 -.21043620E+03 0.16329595E+03 0.84319139E+03 0.88791210E+03 0.80419002E+02 0.0000E+00 0.9000E+01
#aMCatNLO 1  0  0  1  1 0.17963335D+03 0.00000000D+00  -5  7  0 0.00000000D+00 0.00000000D+00 0.00000000D+00 0.00000000D+00 0.00000000D+00
  <mgrwgt>
 0.8429006264D-03    4    2    0
 0.537436276802478D+03 0.000000000000000D+00 0.000000000000000D+00 0.537436276802478D+03
 0.537436276802478D+03 0.000000000000000D+00 0.000000000000000D+00 -.537436276802478D+03
 0.185347937516671D+03 -.102492758009886D+03 -.882408973053297D+02 0.979562176974523D+02
 0.250479734718610D+03 0.137456179329343D+03 -.779573366155863D+02 -.194341323286348D+03
 0.249113454868741D+03 0.175472776441629D+03 0.290228515752374D+01 -.176800437967135D+03
 0.389931426500935D+03 -.210436197761086D+03 0.163295948763392D+03 0.273185543556031D+03
 0.000000000000000D+00 -.000000000000000D+00 -.000000000000000D+00 -.000000000000000D+00
 0.575207800549749D+03 0.000000000000000D+00 0.000000000000000D+00 0.575207800549749D+03
 0.810969559018411D+03 0.000000000000000D+00 0.000000000000000D+00 -.810969559018411D+03
 0.169597186583333D+03 -.731444915816611D+02 -.857347800386811D+02 0.979562176974523D+02
 0.275733489194425D+03 0.180965569499480D+03 -.742419677970088D+02 -.194341323286348D+03
 0.281828328793058D+03 0.219373142630045D+03 0.665104033480329D+01 -.176800437967135D+03
 0.362620398859052D+03 -.148212237007398D+03 0.168609398633607D+03 0.273185543556031D+03
 0.296397956138290D+03 -.178981983540466D+03 -.152836911327205D+02 -.235761758468663D+03
0.553465309189D-04 0.000000000000D+00 0.000000000000D+00 0.204190022729D-05 0.000000000000D+00  7 2 -2 24 -11 11 -24 21 0 0.21584724D+00 0.31672382D-01 0.14788117D+06 0.14788117D+06 0.14788117D+06 0.11080398D+01  1  2  2  1  7  1        2 0.935752050666D-03 0.100000000000D+01
-.265593313350D-05 0.000000000000D+00 -.212545251805D-06 0.204190022729D-05 0.000000000000D+00  7 2 -2 24 -11 11 -24 21 2 0.21584724D+00 0.31672382D-01 0.14788117D+06 0.14788117D+06 0.14788117D+06 0.11080398D+01  1  2  3  1  7  1        2 -.551312997162D-04 0.100000000000D+01
0.341268506060D-05 0.000000000000D+00 0.000000000000D+00 0.204190022729D-05 0.000000000000D+00  7 2 -2 24 -11 11 -24 21 2 0.21584724D+00 0.31672382D-01 0.14788117D+06 0.14788117D+06 0.14788117D+06 0.11080398D+01  1  2 15  1  7  1        2 0.708397965821D-04 0.100000000000D+01
-.522984027000D-05 0.000000000000D+00 0.000000000000D+00 0.204190022729D-05 0.000000000000D+00  7 2 -2 24 -11 11 -24 21 2 0.21584724D+00 0.31672382D-01 0.14788117D+06 0.14788117D+06 0.14788117D+06 0.11080398D+01  1  2  4  1  7  1        2 -.108559921090D-03 0.100000000000D+01
  </mgrwgt>
  </event>
  <event>
  8     66 0.26993063E-05 0.53717221E+03 0.75467711E-02 0.87279097E-01
        2 -1    0    0  501    0 0.00000000E+00 0.00000000E+00 0.14624026E+04 0.14624026E+04 0.32000000E+00 0.0000E+00 0.9000E+01
       -2 -1    0    0    0  501 0.00000000E+00 0.00000000E+00 -.21413493E+03 0.21413517E+03 0.32000000E+00 0.0000E+00 0.9000E+01
       25  2    1    2    0    0 -.41091579E+03 0.30213631E+03 0.55347726E+03 0.81019333E+03 0.29989670E+03 0.0000E+00 0.0000E+00
       23  2    1    2    0    0 0.41091579E+03 -.30213631E+03 0.69479042E+03 0.86634447E+03 0.87640726E+02 0.0000E+00 0.0000E+00
       24  1    3    3    0    0 -.32685886E+03 0.28911759E+03 0.31384636E+03 0.54350018E+03 0.80419002E+02 0.0000E+00 0.9000E+01
      -11  1    4    4    0    0 0.81597915E+02 -.91708706E+02 0.12313303E+03 0.17386906E+03 0.51099893E-03 0.0000E+00 0.9000E+01
       11  1    4    4    0    0 0.32931787E+03 -.21042760E+03 0.57165739E+03 0.69247542E+03 0.51099893E-03 0.0000E+00 0.9000E+01
      -24  1    3    3    0    0 -.84056930E+02 0.13018717E+02 0.23963090E+03 0.26669315E+03 0.80419002E+02 0.0000E+00 0.9000E+01
#aMCatNLO 1  0  0  1  2 0.72342334D+03 0.00000000D+00  -5  7  0 0.00000000D+00 0.00000000D+00 0.00000000D+00 0.00000000D+00 0.00000000D+00
  <mgrwgt>
 0.9492387775D-03    5    2    0
 0.559599596651504D+03 0.000000000000000D+00 0.000000000000000D+00 0.559599596651504D+03
 0.559599596651504D+03 0.000000000000000D+00 0.000000000000000D+00 -.559599596651504D+03
 0.464112499108479D+03 -.326858855431708D+03 0.289117590488614D+03 -.136042285228818D+03
 0.123119343162340D+03 0.815979152276508D+02 -.917087055786073D+02 -.946922448373637D+01
 0.399732043454359D+03 0.329317869802148D+03 -.210427601482795D+03 0.839980459735305D+02
 0.132235307577831D+03 -.840569295980902D+02 0.130187165727881D+02 0.615134637390240D+02
 0.000000000000000D+00 0.000000000000000D+00 -.000000000000000D+00 0.000000000000000D+00
 0.164874515183634D+04 0.000000000000000D+00 0.000000000000000D+00 0.164874515183634D+04
 0.799499878814593D+03 0.000000000000000D+00 0.000000000000000D+00 -.799499878814593D+03
 0.764417913415901D+03 -.372111416639432D+03 0.648762761441396D+03 -.136042285228818D+03
 0.812009912359793D+02 0.740718350068578D+02 -.318951097207557D+02 -.946922448373637D+01
 0.314441535693166D+03 0.303011493277935D+03 -.135741783573334D+01 0.839980459735305D+02
 0.172586608654045D+03 -.952849564186837D+02 0.102253569089060D+03 0.615134637390240D+02
 0.111559798165184D+04 0.903130447733223D+02 -.717763802973967D+03 0.849245273021743D+03
0.659284268329D-04 0.000000000000D+00 0.000000000000D+00 0.609720739124D-06 0.000000000000D+00  7 2 -2 24 -11 11 -24 21 0 0.22498504D+00 0.32943856D-01 0.28855398D+06 0.28855398D+06 0.28855398D+06 0.10858040D+01  1  2  2  1  7  1        2 0.942541153818D-03 0.100000000000D+01
-.365523984363D-05 0.000000000000D+00 -.253182518392D-06 0.609720739124D-06 0.000000000000D+00  7 2 -2 24 -11 11 -24 21 2 0.22498504D+00 0.32943856D-01 0.28855398D+06 0.28855398D+06 0.28855398D+06 0.10858040D+01  1  2  3  1  7  1        2 -.616093111333D-04 0.100000000000D+01
0.416510277717D-05 0.000000000000D+00 0.000000000000D+00 0.609720739124D-06 0.000000000000D+00  7 2 -2 24 -11 11 -24 21 2 0.22498504D+00 0.32943856D-01 0.28855398D+06 0.28855398D+06 0.28855398D+06 0.10858040D+01  1  2 15  1  7  1        2 0.702030848532D-04 0.100000000000D+01
-.136841287624D-04 0.000000000000D+00 -.184689991050D-04 0.609720739124D-06 0.000000000000D+00  7 2 -2 24 -11 11 -24 21 2 0.69877025D+00 0.32943856D-01 0.28855398D+06 0.28855398D+06 0.28855398D+06 0.10858040D+01  1  2  5  1  7  1        2 -.189477603497D-05 0.100000000000D+01
-.916867566657D-06 0.000000000000D+00 -.239712647402D-05 0.609720739124D-06 0.000000000000D+00  7 21 -2 24 -11 11 -24 -2 2 0.69877025D+00 0.32943856D-01 0.28855398D+06 0.28855398D+06 0.28855398D+06 0.10858040D+01  1  2  5  3  7  1        2 -.137403278145D-08 0.100000000000D+01
  </mgrwgt>
  </event>
  <event>
  8     66 0.26993063E-05 0.19521898E+03 0.75467711E-02 0.96657601E-01
        2 -1    0    0  501    0 0.00000000E+00 0.00000000E+00 0.24017592E+04 0.24017592E+04 0.32000000E+00 0.0000E+00 0.9000E+01
       -2 -1    0    0    0  501 0.00000000E+00 0.00000000E+00 -.50576263E+02 0.50577275E+02 0.32000000E+00 0.0000E+00 0.9000E+01
       25  2    1    2    0    0 -.13697020E+03 0.22545176E+03 0.16501688E+04 0.16977524E+04 0.29952770E+03 0.0000E+00 0.0000E+00
       23  2    1    2    0    0 0.13697020E+03 -.22545176E+03 0.70101411E+03 0.75458406E+03 0.91580510E+02 0.0000E+00 0.0000E+00
       24  1    3    3    0    0 -.67590723E+02 -.39917307E+02 0.51915831E+03 0.53118214E+03 0.80419002E+02 0.0000E+00 0.9000E+01
      -11  1    4    4    0    0 0.14883115E+02 0.43193119E+01 0.18366809E+02 0.24031297E+02 0.51099893E-03 0.0000E+00 0.9000E+01
       11  1    4    4    0    0 0.12208708E+03 -.22977107E+03 0.68264730E+03 0.73055277E+03 0.51099893E-03 0.0000E+00 0.9000E+01
      -24  1    3    3    0    0 -.69379473E+02 0.26536907E+03 0.11310105E+04 0.11665703E+04 0.80419002E+02 0.0000E+00 0.9000E+01
#aMCatNLO 1  0  0  1  2 0.14936435D+03 0.00000000D+00  -5  7  0 0.00000000D+00 0.00000000D+00 0.00000000D+00 0.00000000D+00 0.00000000D+00
  <mgrwgt>
 0.1212481629D-02    9    2    0
 0.348530159581637D+03 0.000000000000000D+00 0.000000000000000D+00 0.348530159581637D+03
 0.348530159581637D+03 0.000000000000000D+00 0.000000000000000D+00 -.348530159581637D+03
 0.117638576950207D+03 -.675907231768249D+02 -.399173070706202D+02 0.347810518697027D+02
 0.225935964012903D+02 0.148831152736253D+02 0.431931190333256D+01 -.164410164764260D+02
 0.267598817441780D+03 0.122087081160755D+03 -.229771074395521D+03 -.625229964174305D+02
 0.289229328369996D+03 -.693794732575553D+02 0.265369069562809D+03 0.441829610241538D+02
 0.000000000000000D+00 0.000000000000000D+00 0.000000000000000D+00 0.000000000000000D+00
 0.584148040818452D+03 0.000000000000000D+00 0.000000000000000D+00 0.584148040818452D+03
 0.380935670038357D+03 0.000000000000000D+00 0.000000000000000D+00 -.380935670038357D+03
 0.135026757601343D+03 -.811677972775094D+02 -.629847317205972D+02 0.347810518697027D+02
 0.206911853283602D+02 0.125571899937745D+02 0.367569006699861D+00 -.164410164764260D+02
 0.302834239709738D+03 0.914346297662167D+02 -.281849534573105D+03 -.625229964174305D+02
 0.254331256587544D+03 -.985879214733679D+02 0.215743968207058D+03 0.441829610241538D+02
 0.252200271629823D+03 0.757638989908861D+02 0.128722729079944D+03 0.203212370780095D+03
0.217530891185D-04 0.000000000000D+00 0.000000000000D+00 0.115817838883D-05 0.000000000000D+00  7 2 -2 24 -11 11 -24 21 0 0.36950149D+00 0.77810430D-02 0.11353647D+06 0.11353647D+06 0.11353647D+06 0.11172254D+01  1  2  2  1  7  1        2 0.103821873420D-02 0.100000000000D+01
-.120682777173D-05 0.000000000000D+00 -.835375899350D-07 0.115817838883D-05 0.000000000000D+00  7 2 -2 24 -11 11 -24 21 2 0.36950149D+00 0.77810430D-02 0.11353647D+06 0.11353647D+06 0.11353647D+06 0.11172254D+01  1  2  3  1  7  1        2 -.718943640094D-04 0.100000000000D+01
0.139137455510D-05 0.000000000000D+00 0.000000000000D+00 0.115817838883D-05 0.000000000000D+00  7 2 -2 24 -11 11 -24 21 2 0.36950149D+00 0.77810430D-02 0.11353647D+06 0.11353647D+06 0.11353647D+06 0.11172254D+01  1  2 15  1  7  1        2 0.828883715481D-04 0.100000000000D+01
0.144023840650D-04 0.000000000000D+00 0.000000000000D+00 0.115817838883D-05 0.000000000000D+00  7 2 -2 24 -11 11 -24 21 2 0.62658182D+00 0.77810430D-02 0.17605201D+06 0.17605201D+06 0.17605201D+06 0.11021049D+01  1  2 12  1  7  1        2 0.616010634147D-04 0.100000000000D+01
-.183518283023D-04 0.000000000000D+00 0.000000000000D+00 0.115817838883D-05 0.000000000000D+00  7 2 -2 24 -11 11 -24 21 2 0.36950149D+00 0.77810430D-02 0.11353647D+06 0.11353647D+06 0.11353647D+06 0.11172254D+01  1  2  4  1  7  1        2 -.109327366763D-02 0.100000000000D+01
-.211714087894D-04 0.000000000000D+00 -.544717559991D-05 0.115817838883D-05 0.000000000000D+00  7 2 -2 24 -11 11 -24 21 2 0.62842014D+00 0.77810430D-02 0.11353647D+06 0.11353647D+06 0.11353647D+06 0.11172254D+01  1  2  5  1  7  1        2 -.935514492500D-04 0.100000000000D+01
0.216290384040D-04 0.000000000000D+00 0.476004206883D-05 0.115817838883D-05 0.000000000000D+00  7 2 -2 24 -11 11 -24 21 2 0.36950149D+00 0.77810430D-02 0.11353647D+06 0.11353647D+06 0.11353647D+06 0.11172254D+01  1  2  6  1  7  1        2 0.128850694077D-02 0.100000000000D+01
0.848545498746D-06 0.000000000000D+00 0.000000000000D+00 0.115817838883D-05 0.000000000000D+00  7 21 -2 24 -11 11 -24 -2 2 0.62658182D+00 0.77810430D-02 0.17605201D+06 0.17605201D+06 0.17605201D+06 0.11021049D+01  1  2 12  3  7  1        2 0.655036934185D-07 0.100000000000D+01
-.990650607443D-06 0.000000000000D+00 -.322383821079D-06 0.115817838883D-05 0.000000000000D+00  7 21 -2 24 -11 11 -24 -2 2 0.62842014D+00 0.77810430D-02 0.11353647D+06 0.11353647D+06 0.11353647D+06 0.11172254D+01  1  2  5  3  7  1        2 -.795041943117D-07 0.100000000000D+01
  </mgrwgt>
  </event>
  <event>
  8     66 0.26993063E-05 0.39063895E+03 0.75467711E-02 0.87084842E-01
        2 -1    0    0  501    0 0.00000000E+00 0.00000000E+00 0.21147484E+04 0.21147485E+04 0.32000000E+00 0.0000E+00 0.9000E+01
       -2 -1    0    0    0  501 0.00000000E+00 0.00000000E+00 -.24237830E+03 0.24237852E+03 0.32000000E+00 0.0000E+00 0.9000E+01
       25  2    1    2    0    0 -.20378298E+03 -.65055770E+03 0.93015223E+03 0.11906328E+04 0.29609204E+03 0.0000E+00 0.0000E+00
       23  2    1    2    0    0 0.20378298E+03 0.65055770E+03 0.94221790E+03 0.11664942E+04 0.90450114E+02 0.0000E+00 0.0000E+00
       24  1    3    3    0    0 0.31382470E+02 -.11850880E+03 0.26885819E+03 0.30623706E+03 0.80419002E+02 0.0000E+00 0.9000E+01
      -13  1    4    4    0    0 0.20325384E+03 0.57210644E+03 0.80297827E+03 0.10066737E+04 0.10565837E+00 0.0000E+00 0.9000E+01
       13  1    4    4    0    0 0.52913597E+00 0.78451260E+02 0.13923963E+03 0.15982042E+03 0.10565837E+00 0.0000E+00 0.9000E+01
      -24  1    3    3    0    0 -.23516545E+03 -.53204891E+03 0.66129404E+03 0.88439575E+03 0.80419002E+02 0.0000E+00 0.9000E+01
#aMCatNLO 1  0  0  2  1 0.54468272D+03 0.00000000D+00  -5  7  0 0.00000000D+00 0.00000000D+00 0.00000000D+00 0.00000000D+00 0.00000000D+00
  <mgrwgt>
 0.2006585966D-02    7    2    0
 0.715939533798320D+03 0.000000000000000D+00 0.000000000000000D+00 0.715939533798320D+03
 0.715939533798320D+03 0.000000000000000D+00 0.000000000000000D+00 -.715939533798320D+03
 0.152553101127701D+03 0.313824702534188D+02 -.118508799154962D+03 0.421430634025344D+02
 0.607164632548277D+03 0.203254117523171D+03 0.572107117699941D+03 0.548640177413413D+01
 0.810179216974274D+02 0.528859347178873D+00 0.784505868403944D+02 0.202269465901084D+02
 0.591143412223234D+03 -.235165447123769D+03 -.532048905385373D+03 -.678564117667769D+02
 0.000000000000000D+00 0.000000000000000D+00 -.000000000000000D+00 -.000000000000000D+00
 0.928470097079676D+03 0.000000000000000D+00 0.000000000000000D+00 0.928470097079676D+03
 0.122247195803444D+04 0.000000000000000D+00 0.000000000000000D+00 -.122247195803444D+04
 0.116672272840647D+03 0.216918435176558D+02 -.699902095102397D+02 0.421430634025344D+02
 0.847879278917258D+03 0.150880571811930D+03 0.834328606762663D+03 0.548640177413413D+01
 0.115906655556229D+03 -.655933796919842D+01 0.113939451110127D+03 0.202269465901084D+02
 0.451519904036116D+03 -.272695568672156D+03 -.344144798006769D+03 -.678564117667769D+02
 0.618963943763870D+03 0.106682491311769D+03 -.534133050355781D+03 -.294001860954767D+03
0.428177581095D-03 0.000000000000D+00 0.000000000000D+00 0.134658001409D-06 0.000000000000D+00  7 2 -2 24 -13 13 -24 21 0 0.32534593D+00 0.37288988D-01 0.50370581D+06 0.50370581D+06 0.50370581D+06 0.10682838D+01  1  2  2  2  7  2       -2 0.208696488506D-02 0.100000000000D+01
-.237854432384D-04 0.000000000000D+00 -.164431465315D-05 0.134658001409D-06 0.000000000000D+00  7 2 -2 24 -13 13 -24 21 2 0.32534593D+00 0.37288988D-01 0.50370581D+06 0.50370581D+06 0.50370581D+06 0.10682838D+01  1  2  3  2  7  2       -2 -.132304850814D-03 0.100000000000D+01
0.272963466201D-04 0.000000000000D+00 0.000000000000D+00 0.134658001409D-06 0.000000000000D+00  7 2 -2 24 -13 13 -24 21 2 0.32534593D+00 0.37288988D-01 0.50370581D+06 0.50370581D+06 0.50370581D+06 0.10682838D+01  1  2 15  2  7  2       -2 0.151834003307D-03 0.100000000000D+01
0.193609431967D-04 0.000000000000D+00 0.000000000000D+00 0.134658001409D-06 0.000000000000D+00  7 2 -2 24 -13 13 -24 21 2 0.32534593D+00 0.66023327D-01 0.10628160D+07 0.10628160D+07 0.10628160D+07 0.10461073D+01  1  2 12  2  7  2       -2 0.316111696360D-04 0.100000000000D+01
-.120938122726D-03 0.000000000000D+00 -.127882747115D-03 0.134658001409D-06 0.000000000000D+00  7 2 -2 24 -13 13 -24 21 2 0.32534593D+00 0.84377300D-01 0.50370581D+06 0.50370581D+06 0.50370581D+06 0.10682838D+01  1  2  5  2  7  2       -2 -.125025026410D-03 0.100000000000D+01
0.121793261129D-05 0.000000000000D+00 0.000000000000D+00 0.134658001409D-06 0.000000000000D+00  7 2 21 24 -13 13 -24 2 2 0.32534593D+00 0.66023327D-01 0.10628160D+07 0.10628160D+07 0.10628160D+07 0.10461073D+01  1  2 12  4  7  2       -2 0.190287612675D-04 0.100000000000D+01
-.264208060667D-05 0.000000000000D+00 -.113459554213D-04 0.134658001409D-06 0.000000000000D+00  7 2 21 24 -13 13 -24 2 2 0.32534593D+00 0.84377300D-01 0.50370581D+06 0.50370581D+06 0.50370581D+06 0.10682838D+01  1  2  5  4  7  2       -2 -.255229764253D-04 0.100000000000D+01
  </mgrwgt>
  </event>
  <event>
  8     66 0.26993063E-05 0.13397873E+03 0.75467711E-02 0.94497591E-01
        2 -1    0    0  501    0 0.00000000E+00 0.00000000E+00 0.16894580E+04 0.16894580E+04 0.32000000E+00 0.0000E+00 0.9000E+01
       -2 -1    0    0    0  501 0.00000000E+00 0.00000000E+00 -.74554830E+02 0.74555517E+02 0.32000000E+00 0.0000E+00 0.9000E+01
       25  2    1    2    0    0 0.21711542E+03 0.18145387E+03 0.10020759E+04 0.10835268E+04 0.29968234E+03 0.0000E+00 0.0000E+00
       23  2    1    2    0    0 -.21711542E+03 -.18145387E+03 0.61282728E+03 0.68048680E+03 0.86257782E+02 0.0000E+00 0.0000E+00
       24  1    3    3    0    0 0.17092019E+03 0.22290021E+03 0.58045413E+03 0.64984031E+03 0.80419002E+02 0.0000E+00 0.9000E+01
      -11  1    4    4    0    0 -.20262919E+03 -.18986399E+03 0.55996622E+03 0.62503527E+03 0.51099893E-03 0.0000E+00 0.9000E+01
       11  1    4    4    0    0 -.14486232E+02 0.84101200E+01 0.52861059E+02 0.55451534E+02 0.51099893E-03 0.0000E+00 0.9000E+01
      -24  1    3    3    0    0 0.46195223E+02 -.41446344E+02 0.42162177E+03 0.43368645E+03 0.80419002E+02 0.0000E+00 0.9000E+01
#aMCatNLO 1  0  0  1  2 0.27033321D+03 0.00000000D+00  -5  7  0 0.00000000D+00 0.00000000D+00 0.00000000D+00 0.00000000D+00 0.00000000D+00
  <mgrwgt>
 0.2964068612D-02    8    2    0
 0.354905463881814D+03 0.000000000000000D+00 0.000000000000000D+00 0.354905463881814D+03
 0.354905463881814D+03 0.000000000000000D+00 0.000000000000000D+00 -.354905463881814D+03
 0.294374024177959D+03 0.170920194091598D+03 0.222900211350237D+03 -.359253836175061D+02
 0.279341233710791D+03 -.202629185401043D+03 -.189863987216592D+03 -.304073088745881D+02
 0.175423685002346D+02 -.144862315250769D+02 0.841011995479655D+01 0.521091845511203D+01
 0.118553301374644D+03 0.461952228345214D+02 -.414463440884424D+02 0.611217740369821D+02
 0.000000000000000D+00 -.000000000000000D+00 -.000000000000000D+00 0.000000000000000D+00
 0.657838033396879D+03 0.000000000000000D+00 0.000000000000000D+00 0.657838033396879D+03
 0.445477691288720D+03 0.000000000000000D+00 0.000000000000000D+00 -.445477691288720D+03
 0.383796141307933D+03 0.295567569610880D+03 0.228432573716493D+03 -.359253836175061D+02
 0.218612331776073D+03 -.111105541001357D+03 -.185801792053718D+03 -.304073088745881D+02
 0.134018851113028D+02 -.879869144091868D+01 0.866255633853170D+01 0.521091845511203D+01
 0.143736609690281D+03 0.944039921129582D+02 -.393066409477353D+02 0.611217740369821D+02
 0.343768756800009D+03 -.270067329281562D+03 -.119866970535712D+02 0.212360342108159D+03
0.281026831788D-04 0.000000000000D+00 0.000000000000D+00 0.996011322135D-07 0.000000000000D+00  7 2 -2 24 -11 11 -24 21 0 0.25991667D+00 0.11470029D-01 0.11840070D+06 0.11840070D+06 0.11840070D+06 0.11157517D+01  1  2  2  1  7  1        2 0.179863812758D-02 0.100000000000D+01
-.155944341168D-05 0.000000000000D+00 -.107921703013D-06 0.996011322135D-07 0.000000000000D+00  7 2 -2 24 -11 11 -24 21 2 0.25991667D+00 0.11470029D-01 0.11840070D+06 0.11840070D+06 0.11840070D+06 0.11157517D+01  1  2  3  1  7  1        2 -.124251248664D-03 0.100000000000D+01
0.180908898173D-05 0.000000000000D+00 0.000000000000D+00 0.996011322135D-07 0.000000000000D+00  7 2 -2 24 -11 11 -24 21 2 0.25991667D+00 0.11470029D-01 0.11840070D+06 0.11840070D+06 0.11840070D+06 0.11157517D+01  1  2 15  1  7  1        2 0.144142174856D-03 0.100000000000D+01
0.128729803105D-05 0.000000000000D+00 0.000000000000D+00 0.996011322135D-07 0.000000000000D+00  7 2 -2 24 -11 11 -24 21 2 0.49110689D+00 0.11470029D-01 0.25571857D+06 0.25571857D+06 0.25571857D+06 0.10897210D+01  1  2 12  1  7  1        2 0.128812421994D-04 0.100000000000D+01
-.128652319749D-04 0.000000000000D+00 -.747886412133D-05 0.996011322135D-07 0.000000000000D+00  7 2 -2 24 -11 11 -24 21 2 0.51259981D+00 0.11470029D-01 0.11840070D+06 0.11840070D+06 0.11840070D+06 0.11157517D+01  1  2  5  1  7  1        2 -.113485701157D-03 0.100000000000D+01
0.156420005440D-04 0.000000000000D+00 0.603322611235D-05 0.996011322135D-07 0.000000000000D+00  7 2 -2 24 -11 11 -24 21 2 0.25991667D+00 0.11470029D-01 0.11840070D+06 0.11840070D+06 0.11840070D+06 0.11157517D+01  1  2  6  1  7  1        2 0.124630242088D-02 0.100000000000D+01
0.890661358483D-07 0.000000000000D+00 0.000000000000D+00 0.996011322135D-07 0.000000000000D+00  7 21 -2 24 -11 11 -24 -2 2 0.49110689D+00 0.11470029D-01 0.25571857D+06 0.25571857D+06 0.25571857D+06 0.10897210D+01  1  2 12  3  7  1        2 0.474685400001D-07 0.100000000000D+01
-.502633384800D-06 0.000000000000D+00 -.549983272782D-06 0.996011322135D-07 0.000000000000D+00  7 21 -2 24 -11 11 -24 -2 2 0.51259981D+00 0.11470029D-01 0.11840070D+06 0.11840070D+06 0.11840070D+06 0.11157517D+01  1  2  5  3  7  1        2 -.205871863308D-06 0.100000000000D+01
  </mgrwgt>
  </event>
  <event>
  9     66 -.26993063E-05 0.25524998E+03 0.75467711E-02 0.10265602E+00
        2 -1    0    0  502    0 0.00000000E+00 0.00000000E+00 0.17409979E+04 0.17409980E+04 0.32000000E+00 0.0000E+00 0.9000E+01
       -2 -1    0    0    0  501 0.00000000E+00 0.00000000E+00 -.97724459E+02 0.97724983E+02 0.32000000E+00 0.0000E+00 0.9000E+01
       25  2    1    2    0    0 0.16765827E+03 0.11200092E+03 0.14775028E+04 0.15209860E+04 0.29955010E+03 0.0000E+00 0.0000E+00
       23  2    1    2    0    0 -.17489944E+03 -.10567190E+03 0.90350049E+02 0.24170197E+03 0.92197313E+02 0.0000E+00 0.0000E+00
       24  1    3    3    0    0 0.18605304E+03 0.90110284E+02 0.60612482E+03 0.64543792E+03 0.80419002E+02 0.0000E+00 0.9000E+01
      -13  1    4    4    0    0 -.11322916E+03 -.67213264E+02 0.10394885E+03 0.16776126E+03 0.10565837E+00 0.0000E+00 0.9000E+01
       13  1    4    4    0    0 -.61670281E+02 -.38458633E+02 -.13598797E+02 0.73940709E+02 0.10565837E+00 0.0000E+00 0.9000E+01
      -24  1    3    3    0    0 -.18394771E+02 0.21890641E+02 0.87137797E+03 0.87554803E+03 0.80419002E+02 0.0000E+00 0.9000E+01
       21  1    1    2  502  501 0.72411719E+01 -.63290279E+01 0.75420638E+02 0.76035033E+02 0.75000000E+00 0.0000E+00 0.9000E+01
#aMCatNLO 2  0  0  1  2 0.96172326D+01 0.00000000D+00  -5  7  0 0.00000000D+00 0.00000000D+00 0.00000000D+00 0.00000000D+00 0.00000000D+00
  <mgrwgt>
 -.5676042954D-03    3    2    0
 0.402744854020881D+03 0.000000000000000D+00 0.000000000000000D+00 0.402744854020881D+03
 0.402744854020881D+03 0.000000000000000D+00 0.000000000000000D+00 -.402744854020881D+03
 0.233607001616904D+03 0.188148629188408D+03 0.882786682701110D+02 0.700855570930868D+02
 0.164297200613597D+03 -.111750136319640D+03 -.685060767475611D+02 -.990575318219853D+02
 0.188024961955259D+03 -.599788977013518D+02 -.399368621180160D+02 -.173669125618153D+03
 0.219560543856002D+03 -.164195951674164D+02 0.201642705954660D+02 0.202641100347052D+03
 0.000000000000000D+00 0.000000000000000D+00 -.000000000000000D+00 0.000000000000000D+00
 0.421082140983269D+03 0.000000000000000D+00 0.000000000000000D+00 0.421082140983269D+03
 0.404036507747329D+03 0.000000000000000D+00 0.000000000000000D+00 -.404036507747329D+03
 0.232625875721637D+03 0.186053039352969D+03 0.901102842929833D+02 0.700855570930868D+02
 0.164775242147873D+03 -.113229227348378D+03 -.672133014240182D+02 -.990575318219853D+02
 0.188263761638724D+03 -.616702130561494D+02 -.384585955931513D+02 -.173669125618153D+03
 0.219882239489090D+03 -.183947708248950D+02 0.218906405754321D+02 0.202641100347052D+03
 0.195715297332731D+02 0.724117187645418D+01 -.632902785124589D+01 0.170456332359404D+02
-.886573325456D-04 0.000000000000D+00 0.000000000000D+00 0.129526800422D-05 0.000000000000D+00  7 2 -2 24 -13 13 -24 21 2 0.26824134D+00 0.14986245D-01 0.67896782D+05 0.67896782D+05 0.67896782D+05 0.11357876D+01  1  2 13  1  7  1        2 -.454552549391D-02 0.100000000000D+01
-.118336141678D-03 0.000000000000D+00 0.000000000000D+00 0.129526800422D-05 0.000000000000D+00  7 2 -2 24 -13 13 -24 21 2 0.25617718D+00 0.14986245D-01 0.65152554D+05 0.65152554D+05 0.65152554D+05 0.11373187D+01  1  2  8  1  7  1        2 -.670022891628D-02 0.100000000000D+01
0.208671306432D-03 0.000000000000D+00 0.000000000000D+00 0.129526800422D-05 0.964320166326D-07  7 2 -2 24 -13 13 -24 21 2 0.26784113D+00 0.15034308D-01 0.67896782D+05 0.67896782D+05 0.67896782D+05 0.11357876D+01  1  2  1  1  7  1        2 0.106781501148D-01 0.100000000000D+01
  </mgrwgt>
  </event>
  <event>
  8     66 0.26993063E-05 0.16438121E+03 0.75467711E-02 0.99046025E-01
        2 -1    0    0  501    0 0.00000000E+00 0.00000000E+00 0.20251307E+04 0.20251307E+04 0.32000000E+00 0.0000E+00 0.9000E+01
       -2 -1    0    0    0  501 0.00000000E+00 0.00000000E+00 -.49483127E+02 0.49484162E+02 0.32000000E+00 0.0000E+00 0.9000E+01
       25  2    1    2    0    0 -.31729571E+02 -.23348985E+03 0.12117744E+04 0.12701728E+04 0.29902781E+03 0.0000E+00 0.0000E+00
       23  2    1    2    0    0 0.31729571E+02 0.23348985E+03 0.76387318E+03 0.80444203E+03 0.90002590E+02 0.0000E+00 0.0000E+00
       24  1    3    3    0    0 -.11382810E+03 -.20066663E+03 0.61903863E+03 0.66550731E+03 0.80419002E+02 0.0000E+00 0.9000E+01
      -13  1    4    4    0    0 0.19635342E+02 0.12760135E+03 0.27104642E+03 0.30022296E+03 0.10565837E+00 0.0000E+00 0.9000E+01
       13  1    4    4    0    0 0.12094229E+02 0.10588850E+03 0.49282676E+03 0.50421907E+03 0.10565837E+00 0.0000E+00 0.9000E+01
      -24  1    3    3    0    0 0.82098526E+02 -.32823224E+02 0.59273573E+03 0.60466552E+03 0.80419002E+02 0.0000E+00 0.9000E+01
#aMCatNLO 1  0  0  1  2 0.83718089D+02 0.00000000D+00  -5  7  0 0.00000000D+00 0.00000000D+00 0.00000000D+00 0.00000000D+00 0.00000000D+00
  <mgrwgt>
 0.3674794112D-02    8    2    0
 0.316561049284647D+03 0.000000000000000D+00 0.000000000000000D+00 0.316561049284647D+03
 0.316561049284647D+03 0.000000000000000D+00 0.000000000000000D+00 -.316561049284647D+03
 0.249034415696482D+03 -.113828096268940D+03 -.200666625962472D+03 -.482389258954236D+02
 0.137974706488236D+03 0.196353523975820D+02 0.127601381192251D+03 -.486760730191689D+02
 0.114367161401964D+03 0.120942183296879D+02 0.105888469509793D+03 0.414874621423215D+02
 0.131745814982612D+03 0.820985255416699D+02 -.328232247395722D+02 0.554275367722709D+02
 0.000000000000000D+00 0.000000000000000D+00 -.000000000000000D+00 0.000000000000000D+00
 0.621268054978266D+03 0.000000000000000D+00 0.000000000000000D+00 0.621268054978266D+03
 0.325119430434222D+03 0.000000000000000D+00 0.000000000000000D+00 -.325119430434222D+03
 0.235485011995343D+03 -.129497327416975D+03 -.172885578173521D+03 -.482389258954236D+02
 0.152596515177840D+03 0.102383553381606D+02 0.144261957701339D+03 -.486760730191689D+02
 0.126772598494243D+03 0.429582177251496D+01 0.119714778240912D+03 0.414874621423215D+02
 0.123779032026949D+03 0.738349190420649D+02 -.181721135966111D+02 0.554275367722709D+02
 0.307754327718115D+03 0.411282312642344D+02 -.729190441721181D+02 0.296148624544044D+03
0.972695613697D-05 0.000000000000D+00 0.000000000000D+00 0.268819304043D-06 0.000000000000D+00  7 2 -2 24 -13 13 -24 21 0 0.31155865D+00 0.76128704D-02 0.89855079D+05 0.89855079D+05 0.89855079D+05 0.11255545D+01  1  2  2  1  7  1        2 0.776558190591D-03 0.100000000000D+01
-.538432082482D-06 0.000000000000D+00 -.373540727323D-07 0.268819304043D-06 0.000000000000D+00  7 2 -2 24 -13 13 -24 21 2 0.31155865D+00 0.76128704D-02 0.89855079D+05 0.89855079D+05 0.89855079D+05 0.11255545D+01  1  2  3  1  7  1        2 -.544579142352D-04 0.100000000000D+01
0.628619028475D-06 0.000000000000D+00 0.000000000000D+00 0.268819304043D-06 0.000000000000D+00  7 2 -2 24 -13 13 -24 21 2 0.31155865D+00 0.76128704D-02 0.89855079D+05 0.89855079D+05 0.89855079D+05 0.11255545D+01  1  2 15  1  7  1        2 0.635795715988D-04 0.100000000000D+01
0.322329482383D-04 0.000000000000D+00 0.000000000000D+00 0.268819304043D-06 0.000000000000D+00  7 2 -2 24 -13 13 -24 21 2 0.61172743D+00 0.76128704D-02 0.11878407D+06 0.11878407D+06 0.11878407D+06 0.11156384D+01  1  2 12  1  7  1        2 0.179754310044D-03 0.100000000000D+01
-.333914732703D-04 0.000000000000D+00 -.240924819665D-05 0.268819304043D-06 0.000000000000D+00  7 2 -2 24 -13 13 -24 21 2 0.61370502D+00 0.76128704D-02 0.89855079D+05 0.89855079D+05 0.89855079D+05 0.11255545D+01  1  2  5  1  7  1        2 -.188309596054D-03 0.100000000000D+01
0.286495900777D-04 0.000000000000D+00 0.194493555703D-05 0.268819304043D-06 0.000000000000D+00  7 2 -2 24 -13 13 -24 21 2 0.31155865D+00 0.76128704D-02 0.89855079D+05 0.89855079D+05 0.89855079D+05 0.11255545D+01  1  2  6  1  7  1        2 0.289766707833D-02 0.100000000000D+01
0.235557537772D-05 0.000000000000D+00 0.000000000000D+00 0.268819304043D-06 0.000000000000D+00  7 21 -2 24 -13 13 -24 -2 2 0.61172743D+00 0.76128704D-02 0.11878407D+06 0.11878407D+06 0.11878407D+06 0.11156384D+01  1  2 12  3  7  1        2 0.267983372427D-06 0.100000000000D+01
-.230867687585D-05 0.000000000000D+00 -.176870828615D-06 0.268819304043D-06 0.000000000000D+00  7 21 -2 24 -13 13 -24 -2 2 0.61370502D+00 0.76128704D-02 0.89855079D+05 0.89855079D+05 0.89855079D+05 0.11255545D+01  1  2  5  3  7  1        2 -.265511213886D-06 0.100000000000D+01
  </mgrwgt>
  </event>
  <event>
  8     66 0.26993063E-05 0.65857226E+03 0.75467711E-02 0.87794815E-01
        2 -1    0    0  502    0 0.00000000E+00 0.00000000E+00 0.76195075E+03 0.76195082E+03 0.32000000E+00 0.0000E+00 0.9000E+01
       -2 -1    0    0    0  501 0.00000000E+00 0.00000000E+00 -.14739767E+04 0.14739768E+04 0.32000000E+00 0.0000E+00 0.9000E+01
       25  2    1    2    0    0 0.76328693E+02 0.43839535E+03 -.21285253E+03 0.57797627E+03 0.30122054E+03 0.0000E+00 0.0000E+00
       24  1    3    3    0    0 -.13620583E+02 0.14425397E+03 -.20007638E+03 0.25979319E+03 0.80419002E+02 0.0000E+00 0.9000E+01
      -11  1    1    2    0    0 0.41700269E+02 -.66713999E+03 -.58661223E+03 0.88934166E+03 0.51099893E-03 0.0000E+00 0.9000E+01
       11  1    1    2    0    0 -.25160308E+02 -.26248473E+03 0.29750822E+02 0.26536086E+03 0.51099893E-03 0.0000E+00 0.9000E+01
      -24  1    3    3    0    0 0.89949276E+02 0.29414138E+03 -.12776146E+02 0.31818307E+03 0.80419002E+02 0.0000E+00 0.9000E+01
       21  1    1    2  502  501 -.92868654E+02 0.49122937E+03 0.57687969E+02 0.50324879E+03 0.75000000E+00 0.0000E+00 0.9000E+01
#aMCatNLO 2  0  0  1  2 0.49993088D+03 0.00000000D+00  -5  7  0 0.00000000D+00 0.00000000D+00 0.00000000D+00 0.00000000D+00 0.00000000D+00
  <mgrwgt>
 0.1562790620D-02    2    2    0
 0.734810407812893D+03 0.000000000000000D+00 0.000000000000000D+00 0.734810407812893D+03
 0.734810407812893D+03 0.000000000000000D+00 0.000000000000000D+00 -.734810407812893D+03
 0.250583880840095D+03 -.271839916497563D+02 0.215997713479816D+03 -.945044112832307D+02
 0.515662540079597D+03 0.428599157784501D+01 -.469236931954463D+03 -.213790054042510D+03
 0.242294568969713D+03 -.421620667008702D+02 -.172553809059105D+03 0.164785318711723D+03
 0.461079825736382D+03 0.650600667727814D+02 0.425793027533753D+03 0.143509146614018D+03
 0.000000000000000D+00 -.000000000000000D+00 0.000000000000000D+00 0.000000000000000D+00
 0.122828555396726D+04 0.000000000000000D+00 0.000000000000000D+00 0.122828555396726D+04
 0.914361681406057D+03 0.000000000000000D+00 0.000000000000000D+00 -.914361681406057D+03
 0.190769568566825D+03 -.136205829119891D+02 0.144253971543073D+03 -.945044112832307D+02
 0.701798307402329D+03 0.417002660529067D+02 -.667139988965128D+03 -.213790054042510D+03
 0.310942887855334D+03 -.251603059441698D+02 -.262484737174728D+03 0.164785318711723D+03
 0.348815304925387D+03 0.899492767849705D+02 0.294141383419263D+03 0.143509146614018D+03
 0.590321166623439D+03 -.928686539817182D+02 0.491229371177521D+03 0.313923872561199D+03
-.533619829019D-03 0.000000000000D+00 0.000000000000D+00 0.162038033333D-09 0.000000000000D+00  7 2 -2 24 -11 11 -24 21 2 0.12108121D+00 0.18223612D+00 0.91748010D+06 0.91748010D+06 0.91748010D+06 0.10503629D+01  1  2 13  1  7  1        2 -.407900724355D-03 0.100000000000D+01
0.500399852085D-02 0.000000000000D+00 0.000000000000D+00 0.162038033333D-09 0.454209789160D-14  7 2 -2 24 -11 11 -24 21 2 0.11722317D+00 0.22676560D+00 0.91748010D+06 0.91748010D+06 0.91748010D+06 0.10503629D+01  1  2  1  1  7  1        2 0.197069134404D-02 0.100000000000D+01
  </mgrwgt>
  </event>
  <event>
  8     66 0.26993063E-05 0.24422056E+03 0.75467711E-02 0.93532531E-01
        2 -1    0    0  501    0 0.00000000E+00 0.00000000E+00 0.13507902E+03 0.13507940E+03 0.32000000E+00 0.0000E+00 0.9000E+01
       -2 -1    0    0    0  501 0.00000000E+00 0.00000000E+00 -.16437557E+04 0.16437557E+04 0.32000000E+00 0.0000E+00 0.9000E+01
       25  2    1    2    0    0 -.18743799E+03 0.35359273E+03 -.10525871E+04 0.11652480E+04 0.29950368E+03 0.0000E+00 0.0000E+00
       23  2    1    2    0    0 0.18743799E+03 -.35359273E+03 -.45608960E+03 0.61358716E+03 0.91162854E+02 0.0000E+00 0.0000E+00
       24  1    3    3    0    0 -.22035938E+03 0.16037611E+03 -.53044399E+03 0.60176141E+03 0.80419002E+02 0.0000E+00 0.9000E+01
      -11  1    4    4    0    0 0.16934603E+03 -.27686200E+03 -.31678962E+03 0.45352653E+03 0.51099893E-03 0.0000E+00 0.9000E+01
       11  1    4    4    0    0 0.18091958E+02 -.76730726E+02 -.13929998E+03 0.16006063E+03 0.51099893E-03 0.0000E+00 0.9000E+01
      -24  1    3    3    0    0 0.32921392E+02 0.19321662E+03 -.52214307E+03 0.56348654E+03 0.80419002E+02 0.0000E+00 0.9000E+01
#aMCatNLO 1  0  0  2  1 0.18405121D+03 0.00000000D+00  -5  7  0 0.00000000D+00 0.00000000D+00 0.00000000D+00 0.00000000D+00 0.00000000D+00
  <mgrwgt>
 0.1127476283D-02    9    2    0
 0.471208314949347D+03 0.000000000000000D+00 0.000000000000000D+00 0.471208314949347D+03
 0.471208314949347D+03 0.000000000000000D+00 0.000000000000000D+00 -.471208314949347D+03
 0.286673489429489D+03 -.220359383323848D+03 0.160376110563700D+03 -.378908818702078D+02
 0.348907048104490D+03 0.169346033035798D+03 -.276862001899168D+03 0.128083883515500D+03
 0.791187798257145D+02 0.180919582144831D+02 -.767307258857875D+02 -.669761704753407D+01
 0.227717312539000D+03 0.329213920735665D+02 0.193216617221256D+03 -.834953845977576D+02
 0.000000000000000D+00 -.000000000000000D+00 0.000000000000000D+00 -.000000000000000D+00
 0.513434061799821D+03 0.000000000000000D+00 0.000000000000000D+00 0.513434061799821D+03
 0.734245405325143D+03 0.000000000000000D+00 0.000000000000000D+00 -.734245405325143D+03
 0.250166305047815D+03 -.206116616277669D+03 0.110436342714923D+03 -.378908818702078D+02
 0.416566240618340D+03 0.189654620147838D+03 -.348070505304693D+03 0.128083883515500D+03
 0.959932194708045D+02 0.227378124127535D+02 -.930205998525974D+02 -.669761704753407D+01
 0.197495017002994D+03 0.442025977835986D+02 0.153661045443198D+03 -.834953845977576D+02
 0.287458684985010D+03 -.504784140665216D+02 0.176993716999170D+03 -.220811343525323D+03
0.478880658565D-03 0.000000000000D+00 0.000000000000D+00 0.244839807515D-05 0.000000000000D+00  7 2 -2 24 -11 11 -24 21 0 0.20781420D-01 0.25288552D+00 0.20222905D+06 0.20222905D+06 0.20222905D+06 0.10974559D+01  1  2  2  2  7  2       -2 0.914841585727D-03 0.100000000000D+01
-.265338684881D-04 0.000000000000D+00 -.183902782106D-05 0.244839807515D-05 0.000000000000D+00  7 2 -2 24 -11 11 -24 21 2 0.20781420D-01 0.25288552D+00 0.20222905D+06 0.20222905D+06 0.20222905D+06 0.10974559D+01  1  2  3  2  7  2       -2 -.610510747555D-04 0.100000000000D+01
0.308349817049D-04 0.000000000000D+00 0.000000000000D+00 0.244839807515D-05 0.000000000000D+00  7 2 -2 24 -11 11 -24 21 2 0.20781420D-01 0.25288552D+00 0.20222905D+06 0.20222905D+06 0.20222905D+06 0.10974559D+01  1  2 15  2  7  2       -2 0.709473921602D-04 0.100000000000D+01
0.351355134942D-03 0.000000000000D+00 0.000000000000D+00 0.244839807515D-05 0.000000000000D+00  7 2 -2 24 -11 11 -24 21 2 0.20781420D-01 0.40020923D+00 0.30385111D+06 0.30385111D+06 0.30385111D+06 0.10841423D+01  1  2 12  2  7  2       -2 0.809435827988D-04 0.100000000000D+01
-.425408591413D-03 0.000000000000D+00 0.000000000000D+00 0.244839807515D-05 0.000000000000D+00  7 2 -2 24 -11 11 -24 21 2 0.20781420D-01 0.25288552D+00 0.20222905D+06 0.20222905D+06 0.20222905D+06 0.10974559D+01  1  2  4  2  7  2       -2 -.978811353032D-03 0.100000000000D+01
-.513451251138D-03 0.000000000000D+00 -.136031588272D-03 0.244839807515D-05 0.000000000000D+00  7 2 -2 24 -11 11 -24 21 2 0.20781420D-01 0.40426107D+00 0.20222905D+06 0.20222905D+06 0.20222905D+06 0.10974559D+01  1  2  5  2  7  2       -2 -.116353529733D-03 0.100000000000D+01
0.531418866881D-03 0.000000000000D+00 0.122322688242D-03 0.244839807515D-05 0.000000000000D+00  7 2 -2 24 -11 11 -24 21 2 0.20781420D-01 0.25288552D+00 0.20222905D+06 0.20222905D+06 0.20222905D+06 0.10974559D+01  1  2  6  2  7  2       -2 0.122272758618D-02 0.100000000000D+01
0.185370208904D-04 0.000000000000D+00 0.000000000000D+00 0.244839807515D-05 0.000000000000D+00  7 2 21 24 -11 11 -24 2 2 0.20781420D-01 0.40020923D+00 0.30385111D+06 0.30385111D+06 0.30385111D+06 0.10841423D+01  1  2 12  4  7  2       -2 0.315617488336D-04 0.100000000000D+01
-.218474944959D-04 0.000000000000D+00 -.729733460453D-05 0.244839807515D-05 0.000000000000D+00  7 2 21 24 -11 11 -24 2 2 0.20781420D-01 0.40426107D+00 0.20222905D+06 0.20222905D+06 0.20222905D+06 0.10974559D+01  1  2  5  4  7  2       -2 -.373296546831D-04 0.100000000000D+01
  </mgrwgt>
  </event>
  <event>
  8     66 0.26993063E-05 0.41873459E+03 0.75467711E-02 0.91919480E-01
        2 -1    0    0  501    0 0.00000000E+00 0.00000000E+00 0.15896538E+04 0.15896539E+04 0.32000000E+00 0.0000E+00 0.9000E+01
       -2 -1    0    0    0  501 0.00000000E+00 0.00000000E+00 -.11662331E+03 0.11662375E+03 0.32000000E+00 0.0000E+00 0.9000E+01
       25  2    1    2    0    0 -.18662712E+03 -.31450263E+03 0.95377593E+03 0.10644189E+04 0.29926155E+03 0.0000E+00 0.0000E+00
       23  2    1    2    0    0 0.18662712E+03 0.31450263E+03 0.51925460E+03 0.64185873E+03 0.92820837E+02 0.0000E+00 0.0000E+00
       24  1    3    3    0    0 0.53662644E+02 -.74959200E+02 0.28658193E+03 0.31160067E+03 0.80419002E+02 0.0000E+00 0.9000E+01
      -13  1    4    4    0    0 0.69245327E+02 0.13913473E+03 0.14684416E+03 0.21381443E+03 0.10565837E+00 0.0000E+00 0.9000E+01
       13  1    4    4    0    0 0.11738179E+03 0.17536789E+03 0.37241044E+03 0.42804430E+03 0.10565837E+00 0.0000E+00 0.9000E+01
      -24  1    3    3    0    0 -.24028976E+03 -.23954343E+03 0.66719400E+03 0.75281822E+03 0.80419002E+02 0.0000E+00 0.9000E+01
#aMCatNLO 1  0  0  2  1 0.37018985D+03 0.00000000D+00  -5  7  0 0.00000000D+00 0.00000000D+00 0.00000000D+00 0.00000000D+00 0.00000000D+00
  <mgrwgt>
 0.9168068044D-03    5    2    0
 0.430570664469046D+03 0.000000000000000D+00 0.000000000000000D+00 0.430570664469046D+03
 0.430570664469046D+03 0.000000000000000D+00 0.000000000000000D+00 -.430570664469046D+03
 0.127195525927994D+03 0.536626438264495D+02 -.749591996086126D+02 0.348270715582037D+02
 0.172469705325630D+03 0.692452652080321D+02 0.139134685693149D+03 -.747825630641773D+02
 0.211104164181925D+03 0.117381852827514D+03 0.175367940461349D+03 0.570563055879563D+01
 0.350371933502543D+03 -.240289761861996D+03 -.239543426545885D+03 0.342498609471780D+02
 0.000000000000000D+00 0.000000000000000D+00 0.000000000000000D+00 -.000000000000000D+00
 0.625861368433643D+03 0.000000000000000D+00 0.000000000000000D+00 0.625861368433643D+03
 0.686620868004648D+03 0.000000000000000D+00 0.000000000000000D+00 -.686620868004648D+03
 0.133793248382845D+03 0.660945301635793D+01 -.100880164432695D+03 0.348270715582037D+02
 0.132797815758674D+03 0.142091397822081D+02 0.108816030429697D+03 -.747825630641773D+02
 0.149210335596121D+03 0.524214078640586D+02 0.139582112128251D+03 0.570563055879563D+01
 0.521537873996174D+03 -.397484793141636D+03 -.326140037873807D+03 0.342498609471780D+02
 0.375142962704476D+03 0.324244792479012D+03 0.178622059748553D+03 -.607594995710057D+02
0.256131018117D-04 0.000000000000D+00 0.000000000000D+00 0.575633295158D-06 0.000000000000D+00  7 2 -2 24 -13 13 -24 21 0 0.24456217D+00 0.17942084D-01 0.17533866D+06 0.17533866D+06 0.17533866D+06 0.11022420D+01  1  2  2  2  7  2       -2 0.899042702721D-03 0.100000000000D+01
-.142160586566D-05 0.000000000000D+00 -.983610550417D-07 0.575633295158D-06 0.000000000000D+00  7 2 -2 24 -13 13 -24 21 2 0.24456217D+00 0.17942084D-01 0.17533866D+06 0.17533866D+06 0.17533866D+06 0.11022420D+01  1  2  3  2  7  2       -2 -.606249308430D-04 0.100000000000D+01
0.163310878213D-05 0.000000000000D+00 0.000000000000D+00 0.575633295158D-06 0.000000000000D+00  7 2 -2 24 -13 13 -24 21 2 0.24456217D+00 0.17942084D-01 0.17533866D+06 0.17533866D+06 0.17533866D+06 0.11022420D+01  1  2 15  2  7  2       -2 0.696445543505D-04 0.100000000000D+01
-.211051531594D-05 0.000000000000D+00 -.777433789429D-05 0.575633295158D-06 0.000000000000D+00  7 2 -2 24 -13 13 -24 21 2 0.24456217D+00 0.43418562D-01 0.17533866D+06 0.17533866D+06 0.17533866D+06 0.11022420D+01  1  2  5  2  7  2       -2 -.190731917655D-04 0.100000000000D+01
0.282955610501D-06 0.000000000000D+00 -.752565147570D-06 0.575633295158D-06 0.000000000000D+00  7 2 21 24 -13 13 -24 2 2 0.24456217D+00 0.43418562D-01 0.17533866D+06 0.17533866D+06 0.17533866D+06 0.11022420D+01  1  2  5  4  7  2       -2 0.278176699030D-04 0.100000000000D+01
  </mgrwgt>
  </event>
  <event>
  8     66 0.26993063E-05 0.23098280E+03 0.75467711E-02 0.10041951E+00
        2 -1    0    0  501    0 0.00000000E+00 0.00000000E+00 0.22692387E+04 0.22692388E+04 0.32000000E+00 0.0000E+00 0.9000E+01
       -2 -1    0    0    0  501 0.00000000E+00 0.00000000E+00 -.38147180E+02 0.38148522E+02 0.32000000E+00 0.0000E+00 0.9000E+01
       25  2    1    2    0    0 -.75310350E+02 -.16982679E+03 0.17188331E+04 0.17546113E+04 0.29960108E+03 0.0000E+00 0.0000E+00
       23  2    1    2    0    0 0.75310350E+02 0.16982679E+03 0.51225846E+03 0.55277599E+03 0.92950361E+02 0.0000E+00 0.0000E+00
       24  1    3    3    0    0 0.89636475E+01 -.84520729E+02 0.22307030E+03 0.25189616E+03 0.80419002E+02 0.0000E+00 0.9000E+01
      -13  1    4    4    0    0 0.77945804E+02 0.17674489E+03 0.44508604E+03 0.48519676E+03 0.10565837E+00 0.0000E+00 0.9000E+01
       13  1    4    4    0    0 -.26354537E+01 -.69180993E+01 0.67172429E+02 0.67579228E+02 0.10565837E+00 0.0000E+00 0.9000E+01
      -24  1    3    3    0    0 -.84273997E+02 -.85306062E+02 0.14957628E+04 0.15027151E+04 0.80419002E+02 0.0000E+00 0.9000E+01
#aMCatNLO 1  0  0  1  1 0.15162594D+03 0.00000000D+00  -5  7  0 0.00000000D+00 0.00000000D+00 0.00000000D+00 0.00000000D+00 0.00000000D+00
  <mgrwgt>
 0.1733647426D-02    3    2    0
 0.294222081524160D+03 0.000000000000000D+00 0.000000000000000D+00 0.294222081524160D+03
 0.294222081524160D+03 0.000000000000000D+00 0.000000000000000D+00 -.294222081524160D+03
 0.141953540460670D+03 0.896364691247027D+01 -.845207302254484D+02 -.803709580080643D+02
 0.214989455701280D+03 0.779459081978813D+02 0.176745128138658D+03 -.943719298159654D+02
 0.103042149410387D+02 -.263555682049553D+01 -.691833416110797D+01 0.716710110381536D+01
 0.221196951945332D+03 -.842739982898560D+02 -.853060637521012D+02 0.167575786720214D+03
 0.000000000000000D+00 -.000000000000000D+00 -.000000000000000D+00 -.000000000000000D+00
 0.309072701901335D+03 0.000000000000000D+00 0.000000000000000D+00 0.309072701901335D+03
 0.140067959028642D+04 0.000000000000000D+00 0.000000000000000D+00 -.140067959028642D+04
 0.130410519429140D+03 0.294129829496352D+02 -.567016151999051D+02 -.803709580080643D+02
 0.270602524395777D+03 0.114404586270070D+03 0.226343225462022D+03 -.943719298159654D+02
 0.880221823213557D+01 -.120102881196186D+01 -.496681360297182D+01 0.716710110381536D+01
 0.197849908035600D+03 -.528115870652043D+02 -.425048483361666D+02 0.167575786720214D+03
 0.110208712209510D+04 -.898049533425393D+02 -.122169948322978D+03 -.109160688838509D+04
0.194182740699D-04 0.000000000000D+00 0.000000000000D+00 0.440965293189D-06 0.000000000000D+00  7 2 -2 24 -13 13 -24 21 0 0.34911376D+00 0.58689019D-02 0.53353054D+05 0.53353054D+05 0.53353054D+05 0.11448241D+01  1  2  2  1  7  1        2 0.170478883342D-02 0.100000000000D+01
-.100198256614D-05 0.000000000000D+00 -.745712853774D-07 0.440965293189D-06 0.000000000000D+00  7 2 -2 24 -13 13 -24 21 2 0.34911376D+00 0.58689019D-02 0.53353054D+05 0.53353054D+05 0.53353054D+05 0.11448241D+01  1  2  3  1  7  1        2 -.115291597052D-03 0.100000000000D+01
0.125278841332D-05 0.000000000000D+00 0.000000000000D+00 0.440965293189D-06 0.000000000000D+00  7 2 -2 24 -13 13 -24 21 2 0.34911376D+00 0.58689019D-02 0.53353054D+05 0.53353054D+05 0.53353054D+05 0.11448241D+01  1  2 15  1  7  1        2 0.144150189655D-03 0.100000000000D+01
  </mgrwgt>
  </event>
  <event>
  9     66 -.26993063E-05 0.86816650E+03 0.75467711E-02 0.87805760E-01
        2 -1    0    0  501    0 0.00000000E+00 0.00000000E+00 0.18092493E+04 0.18092494E+04 0.32000000E+00 0.0000E+00 0.9000E+01
       -2 -1    0    0    0  502 0.00000000E+00 0.00000000E+00 -.13302560E+04 0.13302561E+04 0.32000000E+00 0.0000E+00 0.9000E+01
       25  2    1    2    0    0 0.14930076E+03 0.88671959E+03 -.96660944E+03 0.13538281E+04 0.29992383E+03 0.0000E+00 0.0000E+00
       23  2    1    2    0    0 -.25392059E+03 -.74887118E+03 0.13937554E+04 0.16050224E+04 0.90879803E+02 0.0000E+00 0.0000E+00
       24  1    3    3    0    0 0.18555689E+02 0.55939024E+02 -.13990522E+03 0.17179690E+03 0.80419002E+02 0.0000E+00 0.9000E+01
      -11  1    4    4    0    0 -.60067114E+02 -.31598511E+03 0.56437574E+03 0.64959574E+03 0.51099893E-03 0.0000E+00 0.9000E+01
       11  1    4    4    0    0 -.19385348E+03 -.43288607E+03 0.82937968E+03 0.95542670E+03 0.51099893E-03 0.0000E+00 0.9000E+01
      -24  1    3    3    0    0 0.13074507E+03 0.83078057E+03 -.82670422E+03 0.11820312E+04 0.80419002E+02 0.0000E+00 0.9000E+01
       21  1    1    2  501  502 0.10461983E+03 -.13784841E+03 0.51847344E+02 0.18065493E+03 0.75000000E+00 0.0000E+00 0.9000E+01
#aMCatNLO 2  0  0  2  1 0.17305344D+03 0.00000000D+00  -5  7  0 0.00000000D+00 0.00000000D+00 0.00000000D+00 0.00000000D+00 0.00000000D+00
  <mgrwgt>
 -.2108308116D-03    2    2    0
 0.146136880577162D+04 0.000000000000000D+00 0.000000000000000D+00 0.146136880577162D+04
 0.146136880577162D+04 0.000000000000000D+00 0.000000000000000D+00 -.146136880577162D+04
 0.192392047029286D+03 0.254655910702369D+02 0.468344509584052D+02 -.166449757226067D+03
 0.587893923027124D+03 -.392878028396319D+02 -.343364190912319D+03 0.475580451321735D+03
 0.859499087548782D+03 -.163381951514592D+03 -.473035737637468D+03 0.698771930127598D+03
 0.128295255393804D+04 0.177204163283987D+03 0.769565477591382D+03 -.100790262422327D+04
 0.000000000000000D+00 0.000000000000000D+00 -.000000000000000D+00 0.000000000000000D+00
 0.156444919772738D+04 0.000000000000000D+00 0.000000000000000D+00 0.156444919772738D+04
 0.153840882388063D+04 0.000000000000000D+00 0.000000000000000D+00 -.153840882388063D+04
 0.194026353130595D+03 0.185556894899654D+02 0.559390244974216D+02 -.166449757226067D+03
 0.574135361084241D+03 -.600671135124175D+02 -.315985108893178D+03 0.475580451321735D+03
 0.844542320326459D+03 -.193853477746918D+03 -.432886070061830D+03 0.698771930127598D+03
 0.131515228704774D+04 0.130745069361412D+03 0.830780566150939D+03 -.100790262422327D+04
 0.175001700018964D+03 0.104619832407957D+03 -.137848411693352D+03 0.260403738467514D+02
-.458053547440D-02 0.000000000000D+00 0.000000000000D+00 0.431497054803D-04 0.000000000000D+00  7 2 -2 24 -11 11 -24 21 2 0.26000591D+00 0.21110841D+00 0.91541994D+06 0.91541994D+06 0.91541994D+06 0.10504284D+01  1  2 13  2  7  2       -2 -.631028092976D-03 0.100000000000D+01
0.320991135336D-02 0.000000000000D+00 0.000000000000D+00 0.431497054803D-04 0.851853811858D-08  7 2 -2 24 -11 11 -24 21 2 0.27834591D+00 0.20465467D+00 0.91541994D+06 0.91541994D+06 0.91541994D+06 0.10504284D+01  1  2  1  2  7  2       -2 0.420197281379D-03 0.100000000000D+01
  </mgrwgt>
  </event>
  <event>
  9     66 0.26993063E-05 0.19586532E+03 0.75467711E-02 0.10028685E+00
        2 -1    0    0  501    0 0.00000000E+00 0.00000000E+00 0.17634751E+03 0.17634780E+03 0.32000000E+00 0.0000E+00 0.9000E+01
       21 -1    0    0  502  501 0.00000000E+00 0.00000000E+00 -.96317102E+03 0.96317131E+03 0.75000000E+00 0.0000E+00 0.9000E+01
       25  2    1    2    0    0 0.10790893E+03 -.11562025E+03 -.61201818E+02 0.34693142E+03 0.30266048E+03 0.0000E+00 0.0000E+00
       23  2    1    2    0    0 0.40114753E+02 -.85275526E+01 -.11497675E+03 0.15211050E+03 0.90752637E+02 0.0000E+00 0.0000E+00
       24  1    3    3    0    0 0.18529797E+03 -.43463769E+02 -.19004993E+02 0.20749179E+03 0.80419002E+02 0.0000E+00 0.9000E+01
      -11  1    4    4    0    0 0.10937545E+02 0.36615188E+02 -.78033313E+02 0.86887858E+02 0.51099893E-03 0.0000E+00 0.9000E+01
       11  1    4    4    0    0 0.29177207E+02 -.45142741E+02 -.36943432E+02 0.65222647E+02 0.51099893E-03 0.0000E+00 0.9000E+01
      -24  1    3    3    0    0 -.77389044E+02 -.72156481E+02 -.42196826E+02 0.13943963E+03 0.80419002E+02 0.0000E+00 0.9000E+01
        2  1    1    2  502    0 -.14802368E+03 0.12414780E+03 -.61064494E+03 0.64047719E+03 0.32000000E+00 0.0000E+00 0.9000E+01
#aMCatNLO 2  0  0  2  1 0.19319339D+03 0.00000000D+00  -5  7  0 0.00000000D+00 0.00000000D+00 0.00000000D+00 0.00000000D+00 0.00000000D+00
  <mgrwgt>
 0.9977846006D-04    2    2    0
 0.212532508247515D+03 0.000000000000000D+00 0.000000000000000D+00 0.212532508247515D+03
 0.212532508247515D+03 0.000000000000000D+00 0.000000000000000D+00 -.212532508247515D+03
 0.158503777652595D+03 0.123381086124472D+03 0.846606580938066D+01 0.579798662660531D+02
 0.765519741208121D+02 -.122914390743398D+02 0.560973910210038D+02 -.506182574562962D+02
 0.379163278853908D+02 0.136296551691132D+02 -.321029725242549D+02 -.148754689132969D+02
 0.152092936836232D+03 -.124719302219246D+03 -.324604843061295D+02 0.751386010353995D+01
 0.000000000000000D+00 -.000000000000000D+00 0.000000000000000D+00 -.000000000000000D+00
 0.255025374754362D+03 0.000000000000000D+00 0.000000000000000D+00 0.255025374754362D+03
 0.666024222211406D+03 0.000000000000000D+00 0.000000000000000D+00 -.666024222211406D+03
 0.214600368757828D+03 0.185297971479472D+03 -.434637687043857D+02 0.579798662660531D+02
 0.634232597998864D+02 0.109375456329852D+02 0.366151879861126D+02 -.506182574562962D+02
 0.557714622905135D+02 0.291772072917415D+02 -.451427403386907D+02 -.148754689132969D+02
 0.133113845728654D+03 -.773890438224035D+02 -.721564811565804D+02 0.751386010353995D+01
 0.454140660388886D+03 -.148023680581796D+03 0.124147802213544D+03 -.410998847457044D+03
-.133493847624D-09 0.000000000000D+00 0.000000000000D+00 0.164651355965D-07 0.000000000000D+00  7 2 21 24 -11 11 -24 2 2 0.22609897D-01 0.14204207D+00 0.97556133D+05 0.97556133D+05 0.97556133D+05 0.11226049D+01  1  2 13  4  7  2       -2 -.157949848057D-07 0.100000000000D+01
0.117773590400D-05 0.000000000000D+00 0.000000000000D+00 0.164651355965D-07 0.113903804562D-11  7 2 21 24 -11 11 -24 2 2 0.27130426D-01 0.14818017D+00 0.97556133D+05 0.97556133D+05 0.97556133D+05 0.11226049D+01  1  2  1  4  7  2       -2 0.997942550416D-04 0.100000000000D+01
  </mgrwgt>
  </event>
  <event>
  8     66 0.26993063E-05 0.29325836E+03 0.75467711E-02 0.87249651E-01
        2 -1    0    0  501    0 0.00000000E+00 0.00000000E+00 0.13365479E+04 0.13365479E+04 0.32000000E+00 0.0000E+00 0.9000E+01
       -2 -1    0    0    0  501 0.00000000E+00 0.00000000E+00 -.16164754E+03 0.16164785E+03 0.32000000E+00 0.0000E+00 0.9000E+01
       25  2    1    2    0    0 0.23410185E+03 -.44076947E+01 0.97453848E+02 0.39180438E+03 0.29864748E+03 0.0000E+00 0.0000E+00
       23  2    1    2    0    0 -.23410185E+03 0.44076947E+01 0.10774465E+04 0.11063914E+04 0.91585203E+02 0.0000E+00 0.0000E+00
       24  1    3    3    0    0 0.23838731E+03 -.29991278E+02 0.14791592E+03 0.29338425E+03 0.80419002E+02 0.0000E+00 0.9000E+01
      -13  1    4    4    0    0 -.23894244E+03 0.12445726E+02 0.99273134E+03 0.10211581E+04 0.10565837E+00 0.0000E+00 0.9000E+01
       13  1    4    4    0    0 0.48405842E+01 -.80380311E+01 0.84715142E+02 0.85233254E+02 0.10565837E+00 0.0000E+00 0.9000E+01
      -24  1    3    3    0    0 -.42854543E+01 0.25583583E+02 -.50462072E+02 0.98420128E+02 0.80419002E+02 0.0000E+00 0.9000E+01
#aMCatNLO 1  0  0  2  1 0.95221335D+03 0.00000000D+00  -5  7  0 0.00000000D+00 0.00000000D+00 0.00000000D+00 0.00000000D+00 0.00000000D+00
  <mgrwgt>
 0.1399995023D-02    3    2    0
 0.464811720384525D+03 0.000000000000000D+00 0.000000000000000D+00 0.464811720384525D+03
 0.464811720384525D+03 0.000000000000000D+00 0.000000000000000D+00 -.464811720384525D+03
 0.285879818796267D+03 0.238387306795107D+03 -.299912779070512D+02 -.132408723462971D+03
 0.391056009078523D+03 -.238942761070439D+03 0.124457529610229D+02 0.309315797206820D+03
 0.302959283415610D+02 0.484090858317195D+01 -.803805829176514D+01 0.288062232349983D+02
 0.222391684552700D+03 -.428545430784018D+01 0.255835832377934D+02 -.205713296978847D+03
 0.000000000000000D+00 -.000000000000000D+00 -.000000000000000D+00 0.000000000000000D+00
 0.115178530829386D+04 0.000000000000000D+00 0.000000000000000D+00 0.115178530829386D+04
 0.113140160892438D+04 0.000000000000000D+00 0.000000000000000D+00 -.113140160892438D+04
 0.574942052758100D+03 0.514109484059076D+03 0.205549304126149D+03 -.132408723462971D+03
 0.381985320679036D+03 0.866321363710193D+01 0.223967568058532D+03 0.309315797206820D+03
 0.417909290594490D+02 0.279304070398436D+02 0.116865571138808D+02 0.288062232349983D+02
 0.332037120889322D+03 0.173298692222156D+03 0.177288004146595D+03 -.205713296978847D+03
 0.952431493832339D+03 -.724001796958177D+03 -.618491433445157D+03 0.203836993694786D+02
0.479179239066D-04 0.000000000000D+00 0.000000000000D+00 0.799210025891D-06 0.000000000000D+00  7 2 -2 24 -13 13 -24 21 0 0.20562278D+00 0.24868879D-01 0.86000467D+05 0.86000467D+05 0.86000467D+05 0.11271370D+01  1  2  2  2  7  2       -2 0.136266916635D-02 0.100000000000D+01
-.197549050755D-05 0.000000000000D+00 -.184017444881D-06 0.799210025891D-06 0.000000000000D+00  7 2 -2 24 -13 13 -24 21 2 0.20562278D+00 0.24868879D-01 0.86000467D+05 0.86000467D+05 0.86000467D+05 0.11271370D+01  1  2  3  2  7  2       -2 -.713708337894D-04 0.100000000000D+01
0.300864190111D-05 0.000000000000D+00 0.000000000000D+00 0.799210025891D-06 0.000000000000D+00  7 2 -2 24 -13 13 -24 21 2 0.20562278D+00 0.24868879D-01 0.86000467D+05 0.86000467D+05 0.86000467D+05 0.11271370D+01  1  2 15  2  7  2       -2 0.108696690890D-03 0.100000000000D+01
  </mgrwgt>
  </event>
  <event>
  8     66 0.26993063E-05 0.26193105E+03 0.75467711E-02 0.95934549E-01
        2 -1    0    0  501    0 0.00000000E+00 0.00000000E+00 0.20130299E+04 0.20130299E+04 0.32000000E+00 0.0000E+00 0.9000E+01
       -2 -1    0    0    0  501 0.00000000E+00 0.00000000E+00 -.62181659E+02 0.62182483E+02 0.32000000E+00 0.0000E+00 0.9000E+01
       25  2    1    2    0    0 -.15399111E+03 0.11840128E+03 0.55945086E+03 0.66735065E+03 0.30763533E+03 0.0000E+00 0.0000E+00
       23  2    1    2    0    0 0.15399111E+03 -.11840128E+03 0.13913974E+04 0.14078618E+04 0.91410865E+02 0.0000E+00 0.0000E+00
       24  1    3    3    0    0 -.11064144E+03 0.17502437E+03 0.22551226E+03 0.31654076E+03 0.80419002E+02 0.0000E+00 0.9000E+01
      -13  1    4    4    0    0 0.18488345E+02 -.14369053E+02 0.45556415E+02 0.51221936E+02 0.10565837E+00 0.0000E+00 0.9000E+01
       13  1    4    4    0    0 0.13550277E+03 -.10403222E+03 0.13458410E+04 0.13566398E+04 0.10565837E+00 0.0000E+00 0.9000E+01
      -24  1    3    3    0    0 -.43349668E+02 -.56623093E+02 0.33393861E+03 0.35080989E+03 0.80419002E+02 0.0000E+00 0.9000E+01
#aMCatNLO 1  0  0  1  1 0.30539965D+03 0.00000000D+00  -5  7  0 0.00000000D+00 0.00000000D+00 0.00000000D+00 0.00000000D+00 0.00000000D+00
  <mgrwgt>
 0.1314641315D-02    6    2    0
 0.353799971798923D+03 0.000000000000000D+00 0.000000000000000D+00 0.353799971798923D+03
 0.353799971798923D+03 0.000000000000000D+00 0.000000000000000D+00 -.353799971798923D+03
 0.306598544042099D+03 -.110641460775149D+03 0.175024340326255D+03 -.211330070518289D+03
 0.246219853663282D+02 0.184881907893997D+02 -.143689352239602D+02 -.761332156447313D+01
 0.268208872870408D+03 0.135502948446129D+03 -.104032363370198D+03 0.206766094465296D+03
 0.108170541319011D+03 -.433496784603790D+02 -.566230417320966D+02 0.121772976174663D+02
 0.000000000000000D+00 0.000000000000000D+00 -.000000000000000D+00 0.000000000000000D+00
 0.557739795542511D+03 0.000000000000000D+00 0.000000000000000D+00 0.557739795542511D+03
 0.520601935345761D+03 0.000000000000000D+00 0.000000000000000D+00 -.520601935345761D+03
 0.418844172650518D+03 -.147205482390485D+03 0.320364436630919D+03 -.211330070518289D+03
 0.188563718786572D+02 0.162967791761537D+02 -.565818731271979D+01 -.761332156447313D+01
 0.234311627307539D+03 0.110174731609897D+03 -.335401039987350D+01 0.206766094465296D+03
 0.986801330626004D+02 -.537754396613708D+02 -.151811797579738D+02 0.121772976174663D+02
 0.307649425988957D+03 0.745094112658049D+02 -.296171059160352D+03 0.371378601967495D+02
0.162401917616D-04 0.000000000000D+00 0.000000000000D+00 0.232588765816D-07 0.000000000000D+00  7 2 -2 24 -13 13 -24 21 0 0.30969697D+00 0.95664744D-02 0.68607876D+05 0.68607876D+05 0.68607876D+05 0.11354020D+01  1  2  2  1  7  1        2 0.934711968537D-03 0.100000000000D+01
-.803075802943D-06 0.000000000000D+00 -.623666125051D-07 0.232588765816D-07 0.000000000000D+00  7 2 -2 24 -13 13 -24 21 2 0.30969697D+00 0.95664744D-02 0.68607876D+05 0.68607876D+05 0.68607876D+05 0.11354020D+01  1  2  3  1  7  1        2 -.595857624370D-04 0.100000000000D+01
0.103505588663D-05 0.000000000000D+00 0.000000000000D+00 0.232588765816D-07 0.000000000000D+00  7 2 -2 24 -13 13 -24 21 2 0.30969697D+00 0.95664744D-02 0.68607876D+05 0.68607876D+05 0.68607876D+05 0.11354020D+01  1  2 15  1  7  1        2 0.767979734215D-04 0.100000000000D+01
-.300902924753D-05 0.000000000000D+00 -.426533787340D-05 0.232588765816D-07 0.000000000000D+00  7 2 -2 24 -13 13 -24 21 2 0.55437903D+00 0.95664744D-02 0.68607876D+05 0.68607876D+05 0.68607876D+05 0.11354020D+01  1  2  5  1  7  1        2 -.243265327746D-04 0.100000000000D+01
0.521632152723D-05 0.000000000000D+00 0.363207340709D-05 0.232588765816D-07 0.000000000000D+00  7 2 -2 24 -13 13 -24 21 2 0.30969697D+00 0.95664744D-02 0.68607876D+05 0.68607876D+05 0.68607876D+05 0.11354020D+01  1  2  6  1  7  1        2 0.387035064657D-03 0.100000000000D+01
0.324371706614D-07 0.000000000000D+00 -.272724036238D-06 0.232588765816D-07 0.000000000000D+00  7 21 -2 24 -13 13 -24 -2 2 0.55437903D+00 0.95664744D-02 0.68607876D+05 0.68607876D+05 0.68607876D+05 0.11354020D+01  1  2  5  3  7  1        2 0.860375786703D-08 0.100000000000D+01
  </mgrwgt>
  </event>
  <event>
  9     66 0.26993063E-05 0.19975649E+03 0.75467711E-02 0.10231258E+00
        2 -1    0    0  502    0 0.00000000E+00 0.00000000E+00 0.54700248E+03 0.54700257E+03 0.32000000E+00 0.0000E+00 0.9000E+01
       -2 -1    0    0    0  501 0.00000000E+00 0.00000000E+00 -.28403219E+03 0.28403237E+03 0.32000000E+00 0.0000E+00 0.9000E+01
       25  2    1    2    0    0 -.70619076E+02 0.20442909E+03 -.88467093E+02 0.38108323E+03 0.30103105E+03 0.0000E+00 0.0000E+00
       23  2    1    2    0    0 0.76784031E+02 -.82841850E+02 0.26000081E+03 0.29769313E+03 0.90896764E+02 0.0000E+00 0.0000E+00
       24  1    3    3    0    0 -.67090347E+02 0.18812802E+03 -.16309468E+03 0.27011175E+03 0.80419002E+02 0.0000E+00 0.9000E+01
      -13  1    4    4    0    0 0.12273914E+02 -.29079056E+02 0.87116491E+01 0.32743617E+02 0.10565837E+00 0.0000E+00 0.9000E+01
       13  1    4    4    0    0 0.64510117E+02 -.53762793E+02 0.25128916E+03 0.26494952E+03 0.10565837E+00 0.0000E+00 0.9000E+01
      -24  1    3    3    0    0 -.35287293E+01 0.16301071E+02 0.74627586E+02 0.11097148E+03 0.80419002E+02 0.0000E+00 0.9000E+01
       21  1    1    2  502  501 -.61649547E+01 -.12158724E+03 0.91436572E+02 0.15225858E+03 0.75000000E+00 0.0000E+00 0.9000E+01
#aMCatNLO 2  0  0  1  2 0.12174344D+03 0.00000000D+00  -5  7  0 0.00000000D+00 0.00000000D+00 0.00000000D+00 0.00000000D+00 0.00000000D+00
  <mgrwgt>
 0.2027497716D-03    2    2    0
 0.322680985017004D+03 0.000000000000000D+00 0.000000000000000D+00 0.322680985017004D+03
 0.322680985017004D+03 0.000000000000000D+00 0.000000000000000D+00 -.322680985017004D+03
 0.292644064135382D+03 -.699993591946215D+02 0.130755536955085D+03 -.239115895722623D+03
 0.374844921430703D+02 0.119469144672961D+02 -.355268154786105D+02 0.451406561506289D+00
 0.221389298919894D+03 0.624762338075908D+02 -.938771320254775D+02 0.190517783863167D+03
 0.938441148356620D+02 -.442378908026543D+01 -.135158945099746D+01 0.481467052979501D+02
 0.000000000000000D+00 -.000000000000000D+00 -.000000000000000D+00 0.000000000000000D+00
 0.422481237515562D+03 0.000000000000000D+00 0.000000000000000D+00 0.422481237515562D+03
 0.367745495411403D+03 0.000000000000000D+00 0.000000000000000D+00 -.367745495411403D+03
 0.321771495748490D+03 -.670903469537212D+02 0.188128023644131D+03 -.239115895722623D+03
 0.315664468321062D+02 0.122738430801756D+02 -.290790229162474D+02 0.451406561506289D+00
 0.208204303203393D+03 0.645101879076876D+02 -.537628269382563D+02 0.190517783863167D+03
 0.952024055203080D+02 -.352872932312150D+01 0.163010705415054D+02 0.481467052979501D+02
 0.133482081622668D+03 -.616495471102047D+01 -.121587244331133D+03 0.547357421041593D+02
-.316937042558D-05 0.000000000000D+00 0.000000000000D+00 0.709665609064D-06 0.000000000000D+00  7 2 -2 24 -13 13 -24 21 2 0.87545231D-01 0.38342395D-01 0.71483527D+05 0.71483527D+05 0.71483527D+05 0.11338862D+01  1  2 13  1  7  1        2 -.169863362329D-03 0.100000000000D+01
0.848214166735D-05 0.000000000000D+00 0.000000000000D+00 0.709665609064D-06 0.340873921088D-09  7 2 -2 24 -13 13 -24 21 2 0.84154017D-01 0.43697161D-01 0.71483527D+05 0.71483527D+05 0.71483527D+05 0.11338862D+01  1  2  1  1  7  1        2 0.372613133893D-03 0.100000000000D+01
  </mgrwgt>
  </event>
  <event>
  9     66 0.26993063E-05 0.20291355E+03 0.75467711E-02 0.10579322E+00
        2 -1    0    0  501    0 0.00000000E+00 0.00000000E+00 0.16704395E+04 0.16704395E+04 0.32000000E+00 0.0000E+00 0.9000E+01
       21 -1    0    0  502  501 0.00000000E+00 0.00000000E+00 -.81220044E+02 0.81223507E+02 0.75000000E+00 0.0000E+00 0.9000E+01
       25  2    1    2    0    0 0.48183096E+02 -.74028325E+02 0.14856543E+04 0.15183018E+04 0.30044959E+03 0.0000E+00 0.0000E+00
       23  2    1    2    0    0 -.38477534E+02 0.73509677E+02 0.14537618E+03 0.19043420E+03 0.90811669E+02 0.0000E+00 0.0000E+00
       24  1    3    3    0    0 -.19939694E+02 0.70774937E+02 0.29958637E+03 0.31878816E+03 0.80419002E+02 0.0000E+00 0.9000E+01
      -11  1    4    4    0    0 -.64475383E+02 0.43797832E+02 0.67446533E+02 0.10307454E+03 0.51099893E-03 0.0000E+00 0.9000E+01
       11  1    4    4    0    0 0.25997849E+02 0.29711845E+02 0.77929644E+02 0.87359666E+02 0.51099893E-03 0.0000E+00 0.9000E+01
      -24  1    3    3    0    0 0.68122790E+02 -.14480326E+03 0.11860679E+04 0.11995137E+04 0.80419002E+02 0.0000E+00 0.9000E+01
        2  1    1    2  502    0 -.97055615E+01 0.51864800E+00 -.41811001E+02 0.42927021E+02 0.32000000E+00 0.0000E+00 0.9000E+01
#aMCatNLO 2  0  0  2  1 0.97194095D+01 0.00000000D+00  -5  7  0 0.00000000D+00 0.00000000D+00 0.00000000D+00 0.00000000D+00 0.00000000D+00
  <mgrwgt>
 0.3751864092D-03    2    2    0
 0.254668389925167D+03 0.000000000000000D+00 0.000000000000000D+00 0.254668389925167D+03
 0.254668389925167D+03 0.000000000000000D+00 0.000000000000000D+00 -.254668389925167D+03
 0.110576253685763D+03 -.220420677002242D+02 0.708872838641405D+02 -.157807529183868D+02
 0.131088722654902D+03 -.669607352153492D+02 0.439306452410283D+02 -.103781556913647D+03
 0.430600583359544D+02 0.251730458056131D+02 0.297559207114987D+02 -.183049602942837D+02
 0.224611745173716D+03 0.638297571099604D+02 -.144573849816667D+03 0.137867270126317D+03
 0.000000000000000D+00 -.000000000000000D+00 0.000000000000000D+00 -.000000000000000D+00
 0.254799776964950D+03 0.000000000000000D+00 0.000000000000000D+00 0.254799776964950D+03
 0.532481358183363D+03 0.000000000000000D+00 0.000000000000000D+00 -.532481358183363D+03
 0.110104183296752D+03 -.199396938889673D+02 0.707749367362305D+02 -.157807529183868D+02
 0.129791897709838D+03 -.644753831305935D+02 0.437978324333952D+02 -.103781556913647D+03
 0.435172774615579D+02 0.259978489731159D+02 0.297118446930172D+02 -.183049602942837D+02
 0.226016148165245D+03 0.681227895804951D+02 -.144803261858192D+03 0.137867270126317D+03
 0.277851628514919D+03 -.970556153405017D+01 0.518647995549431D+00 -.277681581218413D+03
-.213995224851D-04 0.000000000000D+00 0.000000000000D+00 0.608461789731D-06 0.000000000000D+00  7 2 21 24 -11 11 -24 2 2 0.25685835D+00 0.12495467D-01 0.43099597D+05 0.43099597D+05 0.43099597D+05 0.11530121D+01  1  2 13  4  7  2       -2 -.237203009291D-01 0.100000000000D+01
0.217612257899D-04 0.000000000000D+00 0.000000000000D+00 0.608461789731D-06 0.475601443752D-08  7 2 21 24 -11 11 -24 2 2 0.25699087D+00 0.12495656D-01 0.43099597D+05 0.43099597D+05 0.43099597D+05 0.11530121D+01  1  2  1  4  7  2       -2 0.240954873383D-01 0.100000000000D+01
  </mgrwgt>
  </event>
  <event>
  8     66 0.26993063E-05 0.36076582E+03 0.75467711E-02 0.94533981E-01
        2 -1    0    0  501    0 0.00000000E+00 0.00000000E+00 0.21934082E+04 0.21934082E+04 0.32000000E+00 0.0000E+00 0.9000E+01
       -2 -1    0    0    0  501 0.00000000E+00 0.00000000E+00 -.97128620E+02 0.97129147E+02 0.32000000E+00 0.0000E+00 0.9000E+01
       25  2    1    2    0    0 0.26653115E+03 -.15537097E+03 0.47449271E+03 0.63725550E+03 0.29286899E+03 0.0000E+00 0.0000E+00
       23  2    1    2    0    0 -.26653115E+03 0.15537097E+03 0.16217868E+04 0.16532818E+04 0.89270957E+02 0.0000E+00 0.0000E+00
       24  1    3    3    0    0 0.11595319E+03 0.36569063E+02 0.27781646E+03 0.31373817E+03 0.80419002E+02 0.0000E+00 0.9000E+01
      -13  1    4    4    0    0 -.26952907E+03 0.15994932E+03 0.15549763E+04 0.15862475E+04 0.10565837E+00 0.0000E+00 0.9000E+01
       13  1    4    4    0    0 0.29979180E+01 -.45783545E+01 0.66810512E+02 0.67034354E+02 0.10565837E+00 0.0000E+00 0.9000E+01
      -24  1    3    3    0    0 0.15057796E+03 -.19194003E+03 0.19667625E+03 0.32351733E+03 0.80419002E+02 0.0000E+00 0.9000E+01
#aMCatNLO 1  0  0  2  2 0.24373147D+03 0.00000000D+00  -5  7  0 0.00000000D+00 0.00000000D+00 0.00000000D+00 0.00000000D+00 0.00000000D+00
  <mgrwgt>
 0.3139785089D-02    4    2    0
 0.461566180151749D+03 0.000000000000000D+00 0.000000000000000D+00 0.461566180151749D+03
 0.461566180151749D+03 0.000000000000000D+00 0.000000000000000D+00 -.461566180151749D+03
 0.147593172361244D+03 0.115953191151250D+03 0.365690632094934D+02 -.231103797265851D+02
 0.404811431099620D+03 -.269529451281484D+03 0.159949553267050D+03 0.256207552680430D+03
 0.146140199163295D+02 0.299829974265769D+01 -.457858489513971D+01 0.135505105854374D+02
 0.356113736926305D+03 0.150577960387576D+03 -.191940031581404D+03 -.246647683539282D+03
 0.000000000000000D+00 0.000000000000000D+00 0.000000000000000D+00 0.000000000000000D+00
 0.661432422633276D+03 0.000000000000000D+00 0.000000000000000D+00 0.661432422633276D+03
 0.558074779998400D+03 0.000000000000000D+00 0.000000000000000D+00 -.558074779998400D+03
 0.120560841810161D+03 0.824971581460337D+02 0.269783222296268D+02 -.231103797265851D+02
 0.475453598752662D+03 -.379355052748151D+03 0.128466176368760D+03 0.256207552680430D+03
 0.146869561374610D+02 -.657414399715954D+00 -.562655754122342D+01 0.135505105854374D+02
 0.344064743505256D+03 0.632207212157359D+02 -.216982470219683D+03 -.246647683539282D+03
 0.264741062426135D+03 0.234294587786098D+03 0.671645291625192D+02 0.103357642634876D+03
0.168491456474D-03 0.000000000000D+00 0.000000000000D+00 0.884097097635D-08 0.000000000000D+00  7 2 -2 24 -13 13 -24 21 0 0.33744745D+00 0.14942907D-01 0.13015198D+06 0.13015198D+06 0.13015198D+06 0.11124493D+01  1  2  2  2  7  2       -2 0.378251144071D-02 0.100000000000D+01
-.866967228424D-05 0.000000000000D+00 -.647051557680D-06 0.884097097635D-08 0.000000000000D+00  7 2 -2 24 -13 13 -24 21 2 0.33744745D+00 0.14942907D-01 0.13015198D+06 0.13015198D+06 0.13015198D+06 0.11124493D+01  1  2  3  2  7  2       -2 -.240860455982D-03 0.100000000000D+01
0.109168904588D-04 0.000000000000D+00 0.000000000000D+00 0.884097097635D-08 0.000000000000D+00  7 2 -2 24 -13 13 -24 21 2 0.33744745D+00 0.14942907D-01 0.13015198D+06 0.13015198D+06 0.13015198D+06 0.11124493D+01  1  2 15  2  7  2       -2 0.303292572960D-03 0.100000000000D+01
-.253818868090D-04 0.000000000000D+00 0.000000000000D+00 0.884097097635D-08 0.000000000000D+00  7 2 -2 24 -13 13 -24 21 2 0.33744745D+00 0.14942907D-01 0.13015198D+06 0.13015198D+06 0.13015198D+06 0.11124493D+01  1  2  4  2  7  2       -2 -.705158468517D-03 0.100000000000D+01
  </mgrwgt>
  </event>
  <event>
  8     66 0.26993063E-05 0.62948502E+03 0.75467711E-02 0.86235677E-01
        2 -1    0    0  501    0 0.00000000E+00 0.00000000E+00 0.17863190E+04 0.17863191E+04 0.32000000E+00 0.0000E+00 0.9000E+01
       -2 -1    0    0    0  501 0.00000000E+00 0.00000000E+00 -.25565134E+03 0.25565154E+03 0.32000000E+00 0.0000E+00 0.9000E+01
       25  2    1    2    0    0 0.58619172E+03 0.99443869E+02 0.44613810E+03 0.80164739E+03 0.30014914E+03 0.0000E+00 0.0000E+00
       23  2    1    2    0    0 -.58619172E+03 -.99443869E+02 0.10845296E+04 0.12403232E+04 0.93206412E+02 0.0000E+00 0.0000E+00
       24  1    3    3    0    0 0.53518306E+03 0.21999060E+02 0.38492169E+03 0.66448235E+03 0.80419002E+02 0.0000E+00 0.9000E+01
      -11  1    4    4    0    0 -.49719210E+02 -.71329939E+01 0.15716113E+03 0.16499243E+03 0.51099893E-03 0.0000E+00 0.9000E+01
       11  1    4    4    0    0 -.53647251E+03 -.92310875E+02 0.92736847E+03 0.10753308E+04 0.51099893E-03 0.0000E+00 0.9000E+01
      -24  1    3    3    0    0 0.51008661E+02 0.77444809E+02 0.61216415E+02 0.13716504E+03 0.80419002E+02 0.0000E+00 0.9000E+01
#aMCatNLO 1  0  0  2  2 0.79388453D+03 0.00000000D+00  -5  7  0 0.00000000D+00 0.00000000D+00 0.00000000D+00 0.00000000D+00 0.00000000D+00
  <mgrwgt>
 0.1403584569D-02    5    2    0
 0.675777398009334D+03 0.000000000000000D+00 0.000000000000000D+00 0.675777398009334D+03
 0.675777398009334D+03 0.000000000000000D+00 0.000000000000000D+00 -.675777398009334D+03
 0.567987501788506D+03 0.535183062822168D+03 0.219990601959348D+02 -.170990399883608D+03
 0.712869489171508D+02 -.497192098563951D+02 -.713299387992556D+01 0.505860618696609D+02
 0.574376217491016D+03 -.536472513488224D+03 -.923108753854161D+02 0.183259334759496D+03
 0.137904127821995D+03 0.510086605224504D+02 0.774448090694068D+02 -.628549967455494D+02
 0.000000000000000D+00 -.000000000000000D+00 0.000000000000000D+00 -.000000000000000D+00
 0.920551879378361D+03 0.000000000000000D+00 0.000000000000000D+00 0.920551879378361D+03
 0.193535659492625D+04 0.000000000000000D+00 0.000000000000000D+00 -.193535659492625D+04
 0.956249380632127D+03 0.932404679188302D+03 -.965891266155825D+02 -.170990399883608D+03
 0.558897806645274D+02 -.165764964952236D+02 -.170275568180423D+02 0.505860618696609D+02
 0.379697020877734D+03 -.287837594436368D+03 -.166539374071173D+03 0.183259334759496D+03
 0.175630886553666D+03 0.132717013491769D+03 0.530512589030541D+02 -.628549967455494D+02
 0.128844140557655D+04 -.760707601748479D+03 0.227104798601744D+03 -.101480471554789D+04
0.209409976818D-03 0.000000000000D+00 0.000000000000D+00 0.359362247982D-05 0.000000000000D+00  7 2 -2 24 -11 11 -24 21 0 0.27481833D+00 0.39330993D-01 0.39625139D+06 0.39625139D+06 0.39625139D+06 0.10757225D+01  1  2  2  2  7  2       -2 0.141765941168D-02 0.100000000000D+01
-.115626590675D-04 0.000000000000D+00 -.804189449892D-06 0.359362247982D-05 0.000000000000D+00  7 2 -2 24 -11 11 -24 21 2 0.27481833D+00 0.39330993D-01 0.39625139D+06 0.39625139D+06 0.39625139D+06 0.10757225D+01  1  2  3  2  7  2       -2 -.905800983777D-04 0.100000000000D+01
0.132459818701D-04 0.000000000000D+00 0.000000000000D+00 0.359362247982D-05 0.000000000000D+00  7 2 -2 24 -11 11 -24 21 2 0.27481833D+00 0.39330993D-01 0.39625139D+06 0.39625139D+06 0.39625139D+06 0.10757225D+01  1  2 15  2  7  2       -2 0.103766991130D-03 0.100000000000D+01
-.347477711446D-04 0.000000000000D+00 -.699975090248D-04 0.359362247982D-05 0.000000000000D+00  7 2 -2 24 -11 11 -24 21 2 0.27481833D+00 0.14525090D+00 0.39625139D+06 0.39625139D+06 0.39625139D+06 0.10757225D+01  1  2  5  2  7  2       -2 -.143884296897D-04 0.100000000000D+01
-.366014011713D-05 0.000000000000D+00 -.107909165864D-04 0.359362247982D-05 0.000000000000D+00  7 2 21 24 -11 11 -24 2 2 0.27481833D+00 0.14525090D+00 0.39625139D+06 0.39625139D+06 0.39625139D+06 0.10757225D+01  1  2  5  4  7  2       -2 -.128733062291D-04 0.100000000000D+01
  </mgrwgt>
  </event>
  <event>
  8     66 0.26993063E-05 0.32783274E+03 0.75467711E-02 0.94894253E-01
        2 -1    0    0  501    0 0.00000000E+00 0.00000000E+00 0.12085425E+03 0.12085467E+03 0.32000000E+00 0.0000E+00 0.9000E+01
       -2 -1    0    0    0  501 0.00000000E+00 0.00000000E+00 -.92439625E+03 0.92439631E+03 0.32000000E+00 0.0000E+00 0.9000E+01
       25  2    1    2    0    0 0.19096044E+03 0.17030695E+03 -.52027135E+03 0.65314768E+03 0.30074785E+03 0.0000E+00 0.0000E+00
       23  2    1    2    0    0 -.19096044E+03 -.17030695E+03 -.28327065E+03 0.39210330E+03 0.89623581E+02 0.0000E+00 0.0000E+00
       24  1    3    3    0    0 -.46529382E+02 0.31433391E+02 -.20378443E+03 0.22616001E+03 0.80419002E+02 0.0000E+00 0.9000E+01
      -13  1    4    4    0    0 -.18564767E+03 -.18083418E+03 -.27352554E+03 0.37680537E+03 0.10565837E+00 0.0000E+00 0.9000E+01
       13  1    4    4    0    0 -.53127709E+01 0.10527229E+02 -.97451112E+01 0.15297923E+02 0.10565837E+00 0.0000E+00 0.9000E+01
      -24  1    3    3    0    0 0.23748983E+03 0.13887356E+03 -.31648692E+03 0.42698767E+03 0.80419002E+02 0.0000E+00 0.9000E+01
#aMCatNLO 1  0  0  1  2 0.26782632D+03 0.00000000D+00  -5  7  0 0.00000000D+00 0.00000000D+00 0.00000000D+00 0.00000000D+00 0.00000000D+00
  <mgrwgt>
 0.8437151508D-03    5    2    0
 0.334241626446335D+03 0.000000000000000D+00 0.000000000000000D+00 0.334241626446335D+03
 0.334241626446335D+03 0.000000000000000D+00 0.000000000000000D+00 -.334241626446335D+03
 0.108670824157484D+03 -.465293823928282D+02 0.314333911498832D+02 -.467877180855913D+02
 0.260391200548977D+03 -.185647923981359D+03 -.180834441843554D+03 0.252454013214151D+02
 0.122057386657990D+02 -.531252030920142D+01 0.105274947359681D+02 0.315103775386224D+01
 0.287215489520410D+03 0.237489826683389D+03 0.138873555957702D+03 0.183912790103139D+02
 0.000000000000000D+00 0.000000000000000D+00 0.000000000000000D+00 0.000000000000000D+00
 0.531325288183172D+03 0.000000000000000D+00 0.000000000000000D+00 0.531325288183172D+03
 0.464783006163366D+03 0.000000000000000D+00 0.000000000000000D+00 -.464783006163366D+03
 0.123416099298901D+03 -.810352221239886D+02 0.291887366030827D+01 -.467877180855913D+02
 0.384000344745803D+03 -.281453715427575D+03 -.260005270233181D+03 0.252454013214151D+02
 0.121028556355466D+02 -.892663370499407D+01 0.754090752532352D+01 0.315103775386224D+01
 0.200620130093647D+03 0.164960200908427D+03 0.789374031561562D+02 0.183912790103139D+02
 0.275968864572641D+03 0.206455370348131D+03 0.170608085891393D+03 0.665422820198064D+02
0.713491480359D-04 0.000000000000D+00 0.000000000000D+00 0.262370325939D-06 0.000000000000D+00  7 2 -2 24 -13 13 -24 21 0 0.18592998D-01 0.14221484D+00 0.10747430D+06 0.10747430D+06 0.10747430D+06 0.11191622D+01  1  2  2  1  7  1        2 0.936621331525D-03 0.100000000000D+01
-.396203506302D-05 0.000000000000D+00 -.273999515120D-06 0.262370325939D-06 0.000000000000D+00  7 2 -2 24 -13 13 -24 21 2 0.18592998D-01 0.14221484D+00 0.10747430D+06 0.10747430D+06 0.10747430D+06 0.11191622D+01  1  2  3  1  7  1        2 -.651447764727D-04 0.100000000000D+01
0.460559903579D-05 0.000000000000D+00 0.000000000000D+00 0.262370325939D-06 0.000000000000D+00  7 2 -2 24 -13 13 -24 21 2 0.18592998D-01 0.14221484D+00 0.10747430D+06 0.10747430D+06 0.10747430D+06 0.11191622D+01  1  2 15  1  7  1        2 0.757264170905D-04 0.100000000000D+01
-.161390082857D-04 0.000000000000D+00 -.243667903087D-04 0.262370325939D-06 0.000000000000D+00  7 2 -2 24 -13 13 -24 21 2 0.40883366D-01 0.14221484D+00 0.10747430D+06 0.10747430D+06 0.10747430D+06 0.11191622D+01  1  2  5  1  7  1        2 -.107585237474D-03 0.100000000000D+01
0.156322689124D-06 0.000000000000D+00 -.208095667017D-05 0.262370325939D-06 0.000000000000D+00  7 21 -2 24 -13 13 -24 -2 2 0.40883366D-01 0.14221484D+00 0.10747430D+06 0.10747430D+06 0.10747430D+06 0.11191622D+01  1  2  5  3  7  1        2 0.409741613328D-05 0.100000000000D+01
  </mgrwgt>
  </event>
  <event>
  8     66 0.26993063E-05 0.34251453E+03 0.75467711E-02 0.92847198E-01
        2 -1    0    0  501    0 0.00000000E+00 0.00000000E+00 0.26301175E+04 0.26301175E+04 0.32000000E+00 0.0000E+00 0.9000E+01
       -2 -1    0    0    0  501 0.00000000E+00 0.00000000E+00 -.10268677E+03 0.10268727E+03 0.32000000E+00 0.0000E+00 0.9000E+01
       25  2    1    2    0    0 -.18874448E+03 -.39849242E+03 0.17983743E+04 0.18762537E+04 0.30291426E+03 0.0000E+00 0.0000E+00
       23  2    1    2    0    0 0.18874448E+03 0.39849242E+03 0.72905642E+03 0.85655111E+03 0.87953606E+02 0.0000E+00 0.0000E+00
       24  1    3    3    0    0 -.23702605E+02 0.11014522E+02 0.34223421E+03 0.35252603E+03 0.80419002E+02 0.0000E+00 0.9000E+01
      -13  1    4    4    0    0 0.15975141E+03 0.31064051E+03 0.63429478E+03 0.72411872E+03 0.10565837E+00 0.0000E+00 0.9000E+01
       13  1    4    4    0    0 0.28993070E+02 0.87851913E+02 0.94761643E+02 0.13243239E+03 0.10565837E+00 0.0000E+00 0.9000E+01
      -24  1    3    3    0    0 -.16504188E+03 -.40950695E+03 0.14561401E+04 0.15237276E+04 0.80419002E+02 0.0000E+00 0.9000E+01
#aMCatNLO 1  0  0  2  1 0.18252058D+03 0.00000000D+00  -5  7  0 0.00000000D+00 0.00000000D+00 0.00000000D+00 0.00000000D+00 0.00000000D+00
  <mgrwgt>
 0.1151786811D-02    7    2    0
 0.519691237088005D+03 0.000000000000000D+00 0.000000000000000D+00 0.519691237088005D+03
 0.519691237088005D+03 0.000000000000000D+00 0.000000000000000D+00 -.519691237088005D+03
 0.946827313873897D+02 -.237026057457797D+02 0.110145200993412D+02 0.425966019354525D+02
 0.361502491044700D+03 0.159751602853547D+03 0.310640833493652D+03 -.930900047460280D+02
 0.117769933179553D+03 0.289928812797132D+02 0.878515918310734D+02 -.728784454345949D+02
 0.465427318564367D+03 -.165041878387481D+03 -.409506945424066D+03 0.123371848245170D+03
 0.000000000000000D+00 -.000000000000000D+00 0.000000000000000D+00 -.000000000000000D+00
 0.544022396051790D+03 0.000000000000000D+00 0.000000000000000D+00 0.544022396051790D+03
 0.103612230248192D+04 0.000000000000000D+00 0.000000000000000D+00 -.103612230248192D+04
 0.915762039293053D+02 -.993106520077987D+01 0.242664774156625D+01 0.425966019354525D+02
 0.361973347726463D+03 0.213243677368116D+03 0.277283410147830D+03 -.930900047460280D+02
 0.115728958691730D+03 0.462572313155941D+02 0.770856187749999D+02 -.728784454345949D+02
 0.486008034332430D+03 -.946950221892212D+02 -.453374936795645D+03 0.123371848245170D+03
 0.524858153853781D+03 -.154874821293709D+03 0.965792601312489D+02 -.492099906430129D+03
0.115455802919D-03 0.000000000000D+00 0.000000000000D+00 0.267106728296D-07 0.000000000000D+00  7 2 -2 24 -13 13 -24 21 0 0.40463350D+00 0.15798005D-01 0.23773491D+06 0.23773491D+06 0.23773491D+06 0.10921065D+01  1  2  2  2  7  2       -2 0.130673459149D-02 0.100000000000D+01
-.638248773256D-05 0.000000000000D+00 -.443380683421D-06 0.267106728296D-07 0.000000000000D+00  7 2 -2 24 -13 13 -24 21 2 0.40463350D+00 0.15798005D-01 0.23773491D+06 0.23773491D+06 0.23773491D+06 0.10921065D+01  1  2  3  2  7  2       -2 -.861571986422D-04 0.100000000000D+01
0.734143697371D-05 0.000000000000D+00 0.000000000000D+00 0.267106728296D-07 0.000000000000D+00  7 2 -2 24 -13 13 -24 21 2 0.40463350D+00 0.15798005D-01 0.23773491D+06 0.23773491D+06 0.23773491D+06 0.10921065D+01  1  2 15  2  7  2       -2 0.991020539588D-04 0.100000000000D+01
0.257066439263D-03 0.000000000000D+00 0.000000000000D+00 0.267106728296D-07 0.000000000000D+00  7 2 -2 24 -13 13 -24 21 2 0.40463350D+00 0.31510866D-01 0.34420121D+06 0.34420121D+06 0.34420121D+06 0.10801631D+01  1  2 12  2  7  2       -2 0.102855165280D-02 0.100000000000D+01
-.293916706558D-03 0.000000000000D+00 -.358813128473D-04 0.267106728296D-07 0.000000000000D+00  7 2 -2 24 -13 13 -24 21 2 0.40463350D+00 0.32834357D-01 0.23773491D+06 0.23773491D+06 0.23773491D+06 0.10921065D+01  1  2  5  2  7  2       -2 -.114064741596D-02 0.100000000000D+01
0.192072408594D-04 0.000000000000D+00 0.000000000000D+00 0.267106728296D-07 0.000000000000D+00  7 2 21 24 -13 13 -24 2 2 0.40463350D+00 0.31510866D-01 0.34420121D+06 0.34420121D+06 0.34420121D+06 0.10801631D+01  1  2 12  4  7  2       -2 0.874744416513D-03 0.100000000000D+01
-.210418472522D-04 0.000000000000D+00 -.283858069239D-05 0.267106728296D-07 0.000000000000D+00  7 2 21 24 -13 13 -24 2 2 0.40463350D+00 0.32834357D-01 0.23773491D+06 0.23773491D+06 0.23773491D+06 0.10921065D+01  1  2  5  4  7  2       -2 -.930541289111D-03 0.100000000000D+01
  </mgrwgt>
  </event>
  <event>
  8     66 0.26993063E-05 0.23126210E+03 0.75467711E-02 0.98914587E-01
        2 -1    0    0  501    0 0.00000000E+00 0.00000000E+00 0.28333505E+04 0.28333505E+04 0.32000000E+00 0.0000E+00 0.9000E+01
       -2 -1    0    0    0  501 0.00000000E+00 0.00000000E+00 -.34788273E+02 0.34789745E+02 0.32000000E+00 0.0000E+00 0.9000E+01
       25  2    1    2    0    0 0.14926266E+03 0.27335057E+02 0.24897530E+04 0.25123177E+04 0.29973886E+03 0.0000E+00 0.0000E+00
       23  2    1    2    0    0 -.14926266E+03 -.27335057E+02 0.30880918E+03 0.35582258E+03 0.90664491E+02 0.0000E+00 0.0000E+00
       24  1    3    3    0    0 -.33705879E+02 0.14668917E+02 0.14946610E+04 0.14972742E+04 0.80419002E+02 0.0000E+00 0.9000E+01
      -11  1    4    4    0    0 -.11414047E+03 -.57259665E+02 0.19585462E+03 0.23380708E+03 0.51099893E-03 0.0000E+00 0.9000E+01
       11  1    4    4    0    0 -.35122189E+02 0.29924607E+02 0.11295456E+03 0.12201550E+03 0.51099893E-03 0.0000E+00 0.9000E+01
      -24  1    3    3    0    0 0.18296853E+03 0.12666141E+02 0.99509205E+03 0.10150435E+04 0.80419002E+02 0.0000E+00 0.9000E+01
#aMCatNLO 1  0  0  2  2 0.17965018D+03 0.00000000D+00  -5  7  0 0.00000000D+00 0.00000000D+00 0.00000000D+00 0.00000000D+00 0.00000000D+00
  <mgrwgt>
 0.8766128689D-03    6    2    0
 0.313957810821088D+03 0.000000000000000D+00 0.000000000000000D+00 0.313957810821088D+03
 0.313957810821088D+03 0.000000000000000D+00 0.000000000000000D+00 -.313957810821088D+03
 0.177556588431802D+03 -.337058787965126D+02 0.146689168501968D+02 0.153973578104059D+03
 0.195058271180218D+03 -.114140465751422D+03 -.572596648105575D+02 -.147448343563590D+03
 0.539040763770561D+02 -.351221893889086D+02 0.299246073113587D+02 -.278675284130850D+02
 0.201396685653100D+03 0.182968533936843D+03 0.126661406490020D+02 0.213422938726163D+02
 0.000000000000000D+00 0.000000000000000D+00 0.000000000000000D+00 -.000000000000000D+00
 0.407971327184315D+03 0.000000000000000D+00 0.000000000000000D+00 0.407971327184315D+03
 0.425656931678617D+03 0.000000000000000D+00 0.000000000000000D+00 -.425656931678617D+03
 0.192032726307145D+03 -.817184383089224D+02 -.485655276594304D+01 0.153973578104059D+03
 0.239306524642423D+03 -.170567869839824D+03 -.802072346804989D+02 -.147448343563590D+03
 0.621499735517606D+02 -.501985234620384D+02 0.237934510918787D+02 -.278675284130850D+02
 0.159620425809745D+03 0.136069571066796D+03 -.640645793451847D+01 0.213422938726163D+02
 0.180518608551859D+03 0.166415260543989D+03 0.676767942890817D+02 -.176856044943014D+02
0.247924934312D-04 0.000000000000D+00 0.000000000000D+00 0.145151468299D-05 0.000000000000D+00  7 2 -2 24 -11 11 -24 21 0 0.43590019D+00 0.53521566D-02 0.53482160D+05 0.53482160D+05 0.53482160D+05 0.11447324D+01  1  2  2  2  7  2       -2 0.119247405750D-02 0.100000000000D+01
-.122085160483D-05 0.000000000000D+00 -.952097027893D-07 0.145151468299D-05 0.000000000000D+00  7 2 -2 24 -11 11 -24 21 2 0.43590019D+00 0.53521566D-02 0.53482160D+05 0.53482160D+05 0.53482160D+05 0.11447324D+01  1  2  3  2  7  2       -2 -.769483932858D-04 0.100000000000D+01
0.153053723790D-05 0.000000000000D+00 0.000000000000D+00 0.145151468299D-05 0.000000000000D+00  7 2 -2 24 -11 11 -24 21 2 0.43590019D+00 0.53521566D-02 0.53482160D+05 0.53482160D+05 0.53482160D+05 0.11447324D+01  1  2 15  2  7  2       -2 0.964674009965D-04 0.100000000000D+01
-.683142646788D-05 0.000000000000D+00 0.000000000000D+00 0.145151468299D-05 0.000000000000D+00  7 2 -2 24 -11 11 -24 21 2 0.43590019D+00 0.53521566D-02 0.53482160D+05 0.53482160D+05 0.53482160D+05 0.11447324D+01  1  2  4  2  7  2       -2 -.430574271659D-03 0.100000000000D+01
-.112248541381D-05 0.000000000000D+00 -.778911342799D-05 0.145151468299D-05 0.000000000000D+00  7 2 -2 24 -11 11 -24 21 2 0.43590019D+00 0.11112904D-01 0.53482160D+05 0.53482160D+05 0.53482160D+05 0.11447324D+01  1  2  5  2  7  2       -2 -.235159797120D-04 0.100000000000D+01
0.390796173184D-06 0.000000000000D+00 -.615364818090D-06 0.145151468299D-05 0.000000000000D+00  7 2 21 24 -11 11 -24 2 2 0.43590019D+00 0.11112904D-01 0.53482160D+05 0.53482160D+05 0.53482160D+05 0.11447324D+01  1  2  5  4  7  2       -2 0.118710055106D-03 0.100000000000D+01
  </mgrwgt>
  </event>
  <event>
  9     66 -.26993063E-05 0.24199107E+03 0.75467711E-02 0.10231703E+00
        2 -1    0    0  502    0 0.00000000E+00 0.00000000E+00 0.97637675E+03 0.97637680E+03 0.32000000E+00 0.0000E+00 0.9000E+01
       -2 -1    0    0    0  501 0.00000000E+00 0.00000000E+00 -.10728900E+03 0.10728948E+03 0.32000000E+00 0.0000E+00 0.9000E+01
       25  2    1    2    0    0 -.12707611E+03 0.12370279E+03 0.50358701E+03 0.61259748E+03 0.30037489E+03 0.0000E+00 0.0000E+00
       23  2    1    2    0    0 0.18036427E+03 -.12688021E+03 0.25994754E+03 0.35278201E+03 0.90843632E+02 0.0000E+00 0.0000E+00
       24  1    3    3    0    0 -.36596835E+02 0.38700772E+02 0.95940750E+01 0.96934722E+02 0.80419002E+02 0.0000E+00 0.9000E+01
      -13  1    4    4    0    0 -.91762786E+01 -.93888617E+00 0.20317123E+02 0.22313275E+02 0.10565837E+00 0.0000E+00 0.9000E+01
       13  1    4    4    0    0 0.18954055E+03 -.12594133E+03 0.23963041E+03 0.33046874E+03 0.10565837E+00 0.0000E+00 0.9000E+01
      -24  1    3    3    0    0 -.90479275E+02 0.85002014E+02 0.49399294E+03 0.51566276E+03 0.80419002E+02 0.0000E+00 0.9000E+01
       21  1    1    2  502  501 -.53288162E+02 0.31774282E+01 0.10555320E+03 0.11828679E+03 0.75000000E+00 0.0000E+00 0.9000E+01
#aMCatNLO 2  0  0  1  2 0.53382809D+02 0.00000000D+00  -5  7  0 0.00000000D+00 0.00000000D+00 0.00000000D+00 0.00000000D+00 0.00000000D+00
  <mgrwgt>
 -.9716939494D-04    2    2    0
 0.294161021897459D+03 0.000000000000000D+00 0.000000000000000D+00 0.294161021897459D+03
 0.294161021897459D+03 0.000000000000000D+00 0.000000000000000D+00 -.294161021897459D+03
 0.150132962798241D+03 -.499811098423701D+02 0.394988398555864D+02 -.109610313717255D+03
 0.110718190750708D+02 -.101381070334367D+02 -.881382021267790D+00 0.436200975953399D+01
 0.213422842769515D+03 0.169485459337637D+03 -.124745650918414D+03 -.355318373557057D+02
 0.213694419152092D+03 -.109366242461830D+03 0.861281930840959D+02 0.140780141313427D+03
 0.000000000000000D+00 -.000000000000000D+00 0.000000000000000D+00 0.000000000000000D+00
 0.333607979767136D+03 0.000000000000000D+00 0.000000000000000D+00 0.333607979767136D+03
 0.314000751320126D+03 0.000000000000000D+00 0.000000000000000D+00 -.314000751320126D+03
 0.146009297340210D+03 -.365968350194313D+02 0.387007719403223D+02 -.109610313717255D+03
 0.102037900641990D+02 -.917654687105970D+01 -.938717239226254D+00 0.436200975953399D+01
 0.230324759301127D+03 0.189540820079994D+03 -.125941497548079D+03 -.355318373557057D+02
 0.204201140941785D+03 -.904792757014380D+02 0.850020146106611D+02 0.140780141313427D+03
 0.568697434399406D+02 -.532881624880653D+02 0.317742823632230D+01 0.196072284470099D+02
-.920258680287D-05 0.000000000000D+00 0.000000000000D+00 0.913360616492D-06 0.000000000000D+00  7 2 -2 24 -13 13 -24 21 2 0.15421071D+00 0.15463009D-01 0.71435728D+05 0.71435728D+05 0.71435728D+05 0.11339108D+01  1  2 13  1  7  1        2 -.114553976541D-02 0.100000000000D+01
0.901695706556D-05 0.000000000000D+00 0.000000000000D+00 0.913360616492D-06 0.223390732843D-08  7 2 -2 24 -13 13 -24 21 2 0.15021069D+00 0.16505913D-01 0.71435728D+05 0.71435728D+05 0.71435728D+05 0.11339108D+01  1  2  1  1  7  1        2 0.104837037047D-02 0.100000000000D+01
  </mgrwgt>
  </event>
  <event>
  8     66 0.26993063E-05 0.13158297E+03 0.75467711E-02 0.10652140E+00
        2 -1    0    0  501    0 0.00000000E+00 0.00000000E+00 0.26412985E+03 0.26413005E+03 0.32000000E+00 0.0000E+00 0.9000E+01
       -2 -1    0    0    0  501 0.00000000E+00 0.00000000E+00 -.39778436E+03 0.39778449E+03 0.32000000E+00 0.0000E+00 0.9000E+01
       25  2    1    2    0    0 0.40233451E+02 0.19157363E+02 0.16500462E+03 0.34541370E+03 0.30016390E+03 0.0000E+00 0.0000E+00
       23  2    1    2    0    0 -.40233451E+02 -.19157363E+02 -.29865913E+03 0.31650083E+03 0.94814394E+02 0.0000E+00 0.0000E+00
       24  1    3    3    0    0 0.57598531E+02 0.59117377E+02 0.21296085E+03 0.24214045E+03 0.80419002E+02 0.0000E+00 0.9000E+01
      -13  1    4    4    0    0 -.29534024E+02 -.29385967E+02 -.29880704E+03 0.30169762E+03 0.10565837E+00 0.0000E+00 0.9000E+01
       13  1    4    4    0    0 -.10699426E+02 0.10228605E+02 0.14791784E+00 0.14803213E+02 0.10565837E+00 0.0000E+00 0.9000E+01
      -24  1    3    3    0    0 -.17365080E+02 -.39960015E+02 -.47956237E+02 0.10327326E+03 0.80419002E+02 0.0000E+00 0.9000E+01
#aMCatNLO 1  0  0  2  2 0.10839179D+03 0.00000000D+00  -5  7  0 0.00000000D+00 0.00000000D+00 0.00000000D+00 0.00000000D+00 0.00000000D+00
  <mgrwgt>
 0.9819255994D-03    4    2    0
 0.324140141505799D+03 0.000000000000000D+00 0.000000000000000D+00 0.324140141505799D+03
 0.324140141505799D+03 0.000000000000000D+00 0.000000000000000D+00 -.324140141505799D+03
 0.291138672042309D+03 0.575985311983389D+02 0.591173773876713D+02 0.267361282348036D+03
 0.246438650520691D+03 -.295340488813161D+02 -.293860156896880D+02 -.242891355360829D+03
 0.151447529376203D+02 -.106994022361154D+02 0.102286529700191D+02 0.320327828174335D+01
 0.955582075109787D+02 -.173650800809074D+02 -.399600146680024D+02 -.276732052689500D+02
 0.000000000000000D+00 0.000000000000000D+00 0.000000000000000D+00 0.000000000000000D+00
 0.499650402577983D+03 0.000000000000000D+00 0.000000000000000D+00 0.499650402577983D+03
 0.345815161152925D+03 0.000000000000000D+00 0.000000000000000D+00 -.345815161152925D+03
 0.281473535103112D+03 0.206878027193813D+02 0.291563805869336D+02 0.267361282348036D+03
 0.256790029723703D+03 -.619722975730835D+02 -.557166329742977D+02 -.242891355360829D+03
 0.156661051488538D+02 -.126854779830907D+02 0.861652523498740D+01 0.320327828174335D+01
 0.103349651010285D+03 -.301867312203578D+02 -.503675429016498D+02 -.276732052689500D+02
 0.188186242744954D+03 0.841567040571507D+02 0.683112700540264D+02 0.153835241425058D+03
0.254884786152D-04 0.000000000000D+00 0.000000000000D+00 0.442486508211D-06 0.000000000000D+00  7 2 -2 24 -13 13 -24 21 0 0.40635387D-01 0.61197619D-01 0.17314078D+05 0.17314078D+05 0.17314078D+05 0.11901550D+01  1  2  2  2  7  2       -2 0.100366246886D-02 0.100000000000D+01
-.166927648243D-07 0.000000000000D+00 -.978824691530D-07 0.442486508211D-06 0.000000000000D+00  7 2 -2 24 -13 13 -24 21 2 0.40635387D-01 0.61197619D-01 0.17314078D+05 0.17314078D+05 0.17314078D+05 0.11901550D+01  1  2  3  2  7  2       -2 -.931063004792D-06 0.100000000000D+01
0.157656218957D-05 0.000000000000D+00 0.000000000000D+00 0.442486508211D-06 0.000000000000D+00  7 2 -2 24 -13 13 -24 21 2 0.40635387D-01 0.61197619D-01 0.17314078D+05 0.17314078D+05 0.17314078D+05 0.11901550D+01  1  2 15  2  7  2       -2 0.879350272353D-04 0.100000000000D+01
-.194958359950D-05 0.000000000000D+00 0.000000000000D+00 0.442486508211D-06 0.000000000000D+00  7 2 -2 24 -13 13 -24 21 2 0.40635387D-01 0.61197619D-01 0.17314078D+05 0.17314078D+05 0.17314078D+05 0.11901550D+01  1  2  4  2  7  2       -2 -.108740833729D-03 0.100000000000D+01
  </mgrwgt>
  </event>
  <event>
  8     66 0.26993063E-05 0.16017666E+03 0.75467711E-02 0.10189024E+00
        2 -1    0    0  501    0 0.00000000E+00 0.00000000E+00 0.59826926E+03 0.59826935E+03 0.32000000E+00 0.0000E+00 0.9000E+01
       -2 -1    0    0    0  501 0.00000000E+00 0.00000000E+00 -.21708510E+03 0.21708533E+03 0.32000000E+00 0.0000E+00 0.9000E+01
       25  2    1    2    0    0 -.12369482E+03 -.33863282E+02 -.76592129E+02 0.33150126E+03 0.29593851E+03 0.0000E+00 0.0000E+00
       23  2    1    2    0    0 0.12369482E+03 0.33863282E+02 0.45777629E+03 0.48385342E+03 0.90043700E+02 0.0000E+00 0.0000E+00
       24  1    3    3    0    0 -.11847900E+03 0.93166275E+02 -.26093081E+02 0.17281578E+03 0.80419002E+02 0.0000E+00 0.9000E+01
      -11  1    4    4    0    0 0.72097237E+02 0.24457389E+02 0.12058516E+03 0.14260770E+03 0.51099893E-03 0.0000E+00 0.9000E+01
       11  1    4    4    0    0 0.51597585E+02 0.94058932E+01 0.33719113E+03 0.34124572E+03 0.51099893E-03 0.0000E+00 0.9000E+01
      -24  1    3    3    0    0 -.52158209E+01 -.12702956E+03 -.50499048E+02 0.15868548E+03 0.80419002E+02 0.0000E+00 0.9000E+01
#aMCatNLO 1  0  0  2  1 0.86062953D+02 0.00000000D+00  -5  7  0 0.00000000D+00 0.00000000D+00 0.00000000D+00 0.00000000D+00 0.00000000D+00
  <mgrwgt>
 0.1731105282D-02    9    2    0
 0.360382398577876D+03 0.000000000000000D+00 0.000000000000000D+00 0.360382398577876D+03
 0.360382398577876D+03 0.000000000000000D+00 0.000000000000000D+00 -.360382398577876D+03
 0.209294937352346D+03 -.118479000217723D+03 0.931662745187979D+02 -.120912888670515D+03
 0.975501344324354D+02 0.720972365034904D+02 0.244573891654936D+02 0.609906003541003D+02
 0.207702120245847D+03 0.515975846216937D+02 0.940589321225670D+01 0.200971115309407D+03
 0.206217605125124D+03 -.521582090746101D+01 -.127029556896548D+03 -.141048826992992D+03
 0.000000000000000D+00 -.000000000000000D+00 0.000000000000000D+00 -.000000000000000D+00
 0.391033045651302D+03 0.000000000000000D+00 0.000000000000000D+00 0.391033045651302D+03
 0.428861403736650D+03 0.000000000000000D+00 0.000000000000000D+00 -.428861403736650D+03
 0.193947084883759D+03 -.106082420044411D+03 0.726281577035387D+02 -.120912888670515D+03
 0.100191498916651D+03 0.781762656627538D+02 0.143859170940988D+02 0.609906003541003D+02
 0.211399731953540D+03 0.644817321685265D+02 -.119400040983233D+02 0.200971115309407D+03
 0.220346471714281D+03 0.789773245751619D+01 -.148755523825142D+03 -.141048826992992D+03
 0.940096619197211D+02 -.444733102443853D+02 0.736814531258279D+02 -.378283580853483D+02
0.282657059648D-04 0.000000000000D+00 0.000000000000D+00 0.317827316036D-07 0.000000000000D+00  7 2 -2 24 -11 11 -24 21 0 0.92041450D-01 0.33397732D-01 0.50591449D+05 0.50591449D+05 0.50591449D+05 0.11468464D+01  1  2  2  2  7  2       -2 0.143274190697D-02 0.100000000000D+01
-.114604729506D-05 0.000000000000D+00 -.108547753436D-06 0.317827316036D-07 0.000000000000D+00  7 2 -2 24 -11 11 -24 21 2 0.92041450D-01 0.33397732D-01 0.50591449D+05 0.50591449D+05 0.50591449D+05 0.11468464D+01  1  2  3  2  7  2       -2 -.764048995239D-04 0.100000000000D+01
0.175609836473D-05 0.000000000000D+00 0.000000000000D+00 0.317827316036D-07 0.000000000000D+00  7 2 -2 24 -11 11 -24 21 2 0.92041450D-01 0.33397732D-01 0.50591449D+05 0.50591449D+05 0.50591449D+05 0.11468464D+01  1  2 15  2  7  2       -2 0.117075900523D-03 0.100000000000D+01
0.240565335581D-04 0.000000000000D+00 0.000000000000D+00 0.317827316036D-07 0.000000000000D+00  7 2 -2 24 -11 11 -24 21 2 0.92041450D-01 0.40956066D-01 0.76192194D+05 0.76192194D+05 0.76192194D+05 0.11315434D+01  1  2 12  2  7  2       -2 0.107267774211D-02 0.100000000000D+01
-.278970983799D-04 0.000000000000D+00 0.000000000000D+00 0.317827316036D-07 0.000000000000D+00  7 2 -2 24 -11 11 -24 21 2 0.92041450D-01 0.33397732D-01 0.50591449D+05 0.50591449D+05 0.50591449D+05 0.11468464D+01  1  2  4  2  7  2       -2 -.185984907247D-02 0.100000000000D+01
-.443959888078D-04 0.000000000000D+00 -.164702087471D-04 0.317827316036D-07 0.000000000000D+00  7 2 -2 24 -11 11 -24 21 2 0.92041450D-01 0.42756419D-01 0.50591449D+05 0.50591449D+05 0.50591449D+05 0.11468464D+01  1  2  5  2  7  2       -2 -.188694967637D-02 0.100000000000D+01
0.474980634471D-04 0.000000000000D+00 0.159801343847D-04 0.317827316036D-07 0.000000000000D+00  7 2 -2 24 -11 11 -24 21 2 0.92041450D-01 0.33397732D-01 0.50591449D+05 0.50591449D+05 0.50591449D+05 0.11468464D+01  1  2  6  2  7  2       -2 0.316660994786D-02 0.100000000000D+01
0.698968534832D-06 0.000000000000D+00 0.000000000000D+00 0.317827316036D-07 0.000000000000D+00  7 2 21 24 -11 11 -24 2 2 0.92041450D-01 0.40956066D-01 0.76192194D+05 0.76192194D+05 0.76192194D+05 0.11315434D+01  1  2 12  4  7  2       -2 0.351013798734D-03 0.100000000000D+01
-.121864564320D-05 0.000000000000D+00 -.552510187453D-06 0.317827316036D-07 0.000000000000D+00  7 2 21 24 -11 11 -24 2 2 0.92041450D-01 0.42756419D-01 0.50591449D+05 0.50591449D+05 0.50591449D+05 0.11468464D+01  1  2  5  4  7  2       -2 -.585810365743D-03 0.100000000000D+01
  </mgrwgt>
  </event>
  <event>
  8     66 0.26993063E-05 0.19162471E+03 0.75467711E-02 0.10481173E+00
        2 -1    0    0  501    0 0.00000000E+00 0.00000000E+00 0.11892657E+03 0.11892700E+03 0.32000000E+00 0.0000E+00 0.9000E+01
       -2 -1    0    0    0  501 0.00000000E+00 0.00000000E+00 -.72162086E+03 0.72162093E+03 0.32000000E+00 0.0000E+00 0.9000E+01
       25  2    1    2    0    0 -.92765492E+02 -.11479015E+03 -.16970607E+03 0.37444014E+03 0.29937110E+03 0.0000E+00 0.0000E+00
       23  2    1    2    0    0 0.92765492E+02 0.11479015E+03 -.43298823E+03 0.46610779E+03 0.89417317E+02 0.0000E+00 0.0000E+00
       24  1    3    3    0    0 -.60730339E+02 -.94909945E+02 0.42160688E+02 0.14470940E+03 0.80419002E+02 0.0000E+00 0.9000E+01
      -13  1    4    4    0    0 0.94643829E+02 0.88286399E+02 -.41314828E+03 0.43294740E+03 0.10565837E+00 0.0000E+00 0.9000E+01
       13  1    4    4    0    0 -.18783369E+01 0.26503749E+02 -.19839949E+02 0.33160392E+02 0.10565837E+00 0.0000E+00 0.9000E+01
      -24  1    3    3    0    0 -.32035153E+02 -.19880202E+02 -.21186675E+03 0.22973073E+03 0.80419002E+02 0.0000E+00 0.9000E+01
#aMCatNLO 1  0  0  2  1 0.57983305D+02 0.00000000D+00  -5  7  0 0.00000000D+00 0.00000000D+00 0.00000000D+00 0.00000000D+00 0.00000000D+00
  <mgrwgt>
 0.6766447575D-03    4    2    0
 0.292950685489712D+03 0.000000000000000D+00 0.000000000000000D+00 0.292950685489712D+03
 0.292950685489712D+03 0.000000000000000D+00 0.000000000000000D+00 -.292950685489712D+03
 0.250972609088806D+03 -.607303393047104D+02 -.949099454179473D+02 0.209341736658435D+03
 0.196126991738391D+03 0.946439636857518D+02 0.882864854963065D+02 -.147356077258156D+03
 0.271638489445467D+02 -.187847147835435D+01 0.265036622740122D+02 0.564817850747154D+01
 0.111637921207680D+03 -.320351529026871D+02 -.198802023523715D+02 -.676338379077503D+02
 0.000000000000000D+00 0.000000000000000D+00 -.000000000000000D+00 0.000000000000000D+00
 0.382140139126949D+03 0.000000000000000D+00 0.000000000000000D+00 0.382140139126949D+03
 0.303959373203130D+03 0.000000000000000D+00 0.000000000000000D+00 -.303959373203130D+03
 0.254936540749401D+03 -.844260047231826D+02 -.870270697783869D+02 0.209341736658435D+03
 0.190955605735891D+03 0.765138711147891D+02 0.943178529445996D+02 -.147356077258156D+03
 0.283008983875861D+02 -.447631754562282D+01 0.273678919597941D+02 0.564817850747154D+01
 0.114570473141422D+03 -.426302536812762D+02 -.163555129059583D+02 -.676338379077503D+02
 0.973359943157794D+02 0.550187048352926D+02 -.183031622200485D+02 0.781807659238190D+02
0.301782828133D-04 0.000000000000D+00 0.000000000000D+00 0.315093601899D-06 0.000000000000D+00  7 2 -2 24 -13 13 -24 21 0 0.18296434D-01 0.11101863D+00 0.36720030D+05 0.36720030D+05 0.36720030D+05 0.11592779D+01  1  2  2  2  7  2       -2 0.772138703550D-03 0.100000000000D+01
-.130929893004D-05 0.000000000000D+00 -.115892552127D-06 0.315093601899D-06 0.000000000000D+00  7 2 -2 24 -13 13 -24 21 2 0.18296434D-01 0.11101863D+00 0.36720030D+05 0.36720030D+05 0.36720030D+05 0.11592779D+01  1  2  3  2  7  2       -2 -.450209610387D-04 0.100000000000D+01
0.189601882582D-05 0.000000000000D+00 0.000000000000D+00 0.315093601899D-06 0.000000000000D+00  7 2 -2 24 -13 13 -24 21 2 0.18296434D-01 0.11101863D+00 0.36720030D+05 0.36720030D+05 0.36720030D+05 0.11592779D+01  1  2 15  2  7  2       -2 0.651956461028D-04 0.100000000000D+01
-.336387343704D-05 0.000000000000D+00 0.000000000000D+00 0.315093601899D-06 0.000000000000D+00  7 2 -2 24 -13 13 -24 21 2 0.18296434D-01 0.11101863D+00 0.36720030D+05 0.36720030D+05 0.36720030D+05 0.11592779D+01  1  2  4  2  7  2       -2 -.115668631107D-03 0.100000000000D+01
  </mgrwgt>
  </event>
  <event>
  9     66 0.26993063E-05 0.50457465E+03 0.75467711E-02 0.91487527E-01
        2 -1    0    0  502    0 0.00000000E+00 0.00000000E+00 0.97570099E+03 0.97570104E+03 0.32000000E+00 0.0000E+00 0.9000E+01
       -2 -1    0    0    0  501 0.00000000E+00 0.00000000E+00 -.59250374E+03 0.59250383E+03 0.32000000E+00 0.0000E+00 0.9000E+01
       25  2    1    2    0    0 -.87944365E+02 0.62015347E+03 0.53216770E+03 0.87479572E+03 0.29956728E+03 0.0000E+00 0.0000E+00
       23  2    1    2    0    0 0.32923641E+02 -.33843981E+03 0.32753116E+02 0.35368296E+03 0.91615498E+02 0.0000E+00 0.0000E+00
       24  1    3    3    0    0 -.11757488E+03 0.11843214E+03 0.13648432E+03 0.23009826E+03 0.80419002E+02 0.0000E+00 0.9000E+01
      -11  1    4    4    0    0 -.14892000E+02 -.24422136E+03 0.62609730E+01 0.24475507E+03 0.51099893E-03 0.0000E+00 0.9000E+01
       11  1    4    4    0    0 0.47815640E+02 -.94218442E+02 0.26492143E+02 0.10892788E+03 0.51099893E-03 0.0000E+00 0.9000E+01
      -24  1    3    3    0    0 0.29630517E+02 0.50172133E+03 0.39568337E+03 0.64469745E+03 0.80419002E+02 0.0000E+00 0.9000E+01
       21  1    1    2  502  501 0.55020724E+02 -.28171367E+03 -.18172357E+03 0.33972620E+03 0.75000000E+00 0.0000E+00 0.9000E+01
#aMCatNLO 2  0  0  1  2 0.28703636D+03 0.00000000D+00  -5  7  0 0.00000000D+00 0.00000000D+00 0.00000000D+00 0.00000000D+00 0.00000000D+00
  <mgrwgt>
 0.2133494291D-04    1    2    0
 0.526221071152872D+03 0.000000000000000D+00 0.000000000000000D+00 0.526221071152872D+03
 0.526221071152872D+03 0.000000000000000D+00 0.000000000000000D+00 -.526221071152872D+03
 0.157476560476653D+03 -.108694898245219D+03 0.729654068361113D+02 0.345415640336181D+02
 0.346926966669694D+03 0.100618284467664D+01 -.325622242161046D+03 -.119697381795641D+03
 0.140647250971278D+03 0.542229390116730D+02 -.127024690918832D+03 -.265753643002187D+02
 0.407391364188119D+03 0.534657763888696D+02 0.379681526243766D+03 0.111731182062242D+03
 0.000000000000000D+00 0.000000000000000D+00 -.000000000000000D+00 -.000000000000000D+00
 0.593495529155777D+03 0.000000000000000D+00 0.000000000000000D+00 0.593495529155777D+03
 0.974069778243485D+03 0.000000000000000D+00 0.000000000000000D+00 -.974069778243485D+03
 0.188441928399111D+03 -.117574881549579D+03 0.118432140937834D+03 0.345415640336181D+02
 0.272384487245047D+03 -.148919999579681D+02 -.244221362743450D+03 -.119697381795641D+03
 0.108948154371076D+03 0.478156404614040D+02 -.942184423583844D+02 -.265753643002187D+02
 0.521107794072158D+03 0.296305166712998D+02 0.501721329549728D+03 0.111731182062242D+03
 0.476682943311870D+03 0.550207243748432D+02 -.281713665385728D+03 -.380574249087708D+03
0.551292137623D-05 0.000000000000D+00 0.000000000000D+00 0.182235615942D-05 0.204996028782D-09  7 2 -2 24 -11 11 -24 21 2 0.15010778D+00 0.91154390D-01 0.44329389D+06 0.44329389D+06 0.44329389D+06 0.10722249D+01  1  2  1  1  7  1        2 0.213349429093D-04 0.100000000000D+01
  </mgrwgt>
  </event>
  <event>
  8     66 0.26993063E-05 0.26386942E+03 0.75467711E-02 0.10242685E+00
        2 -1    0    0  501    0 0.00000000E+00 0.00000000E+00 0.13540133E+04 0.13540134E+04 0.32000000E+00 0.0000E+00 0.9000E+01
       -2 -1    0    0    0  501 0.00000000E+00 0.00000000E+00 -.66687305E+02 0.66688073E+02 0.32000000E+00 0.0000E+00 0.9000E+01
       25  2    1    2    0    0 -.16443013E+03 0.70466522E+02 0.51134473E+03 0.61922898E+03 0.29994714E+03 0.0000E+00 0.0000E+00
       23  2    1    2    0    0 0.16443013E+03 -.70466522E+02 0.77598128E+03 0.80147246E+03 0.90599962E+02 0.0000E+00 0.0000E+00
       24  1    3    3    0    0 -.19122542E+03 -.38164740E+02 0.32573453E+03 0.38806431E+03 0.80419002E+02 0.0000E+00 0.9000E+01
      -11  1    4    4    0    0 0.28488481E+02 -.94664117E+01 0.32780778E+03 0.32917951E+03 0.51099893E-03 0.0000E+00 0.9000E+01
       11  1    4    4    0    0 0.13594164E+03 -.61000110E+02 0.44817350E+03 0.47229295E+03 0.51099893E-03 0.0000E+00 0.9000E+01
      -24  1    3    3    0    0 0.26795293E+02 0.10863126E+03 0.18561021E+03 0.23116467E+03 0.80419002E+02 0.0000E+00 0.9000E+01
#aMCatNLO 1  0  0  2  1 0.25959714D+01 0.00000000D+00  -5  7  0 0.00000000D+00 0.00000000D+00 0.00000000D+00 0.00000000D+00 0.00000000D+00
  <mgrwgt>
 0.9514383330D-03    6    2    0
 0.300493047727314D+03 0.000000000000000D+00 0.000000000000000D+00 0.300493047727314D+03
 0.300493047727314D+03 0.000000000000000D+00 0.000000000000000D+00 -.300493047727314D+03
 0.219634008253012D+03 -.191225418330995D+03 -.381647397245630D+02 -.612223296911009D+02
 0.759922936919626D+02 0.284884810635649D+02 -.946641166765462D+01 0.698113328722128D+02
 0.156479267150295D+03 0.135941644602524D+03 -.610001104672775D+02 0.477976655667839D+02
 0.148880526359358D+03 0.267952926649056D+02 0.108631261859495D+03 -.563866687478959D+02
 0.000000000000000D+00 0.000000000000000D+00 0.000000000000000D+00 0.000000000000000D+00
 0.302715933809619D+03 0.000000000000000D+00 0.000000000000000D+00 0.302715933809619D+03
 0.301254726740415D+03 0.000000000000000D+00 0.000000000000000D+00 -.301254726740415D+03
 0.220478153823919D+03 -.192161358497927D+03 -.383306536163776D+02 -.612223296911009D+02
 0.758789725092344D+02 0.281655124421805D+02 -.952366423870681D+01 0.698113328722128D+02
 0.155948530685669D+03 0.135277237320797D+03 -.611178897888154D+02 0.477976655667839D+02
 0.148686045084564D+03 0.261624891876368D+02 0.108519084936892D+03 -.563866687478959D+02
 0.297895844664742D+01 0.255611954731238D+01 0.453122707008194D+00 0.146120706920446D+01
0.702097027314D-05 0.000000000000D+00 0.000000000000D+00 0.129335584915D-05 0.000000000000D+00  7 2 -2 24 -11 11 -24 21 0 0.20830980D+00 0.10259647D-01 0.69627069D+05 0.69627069D+05 0.69627069D+05 0.11348569D+01  1  2  2  2  7  2       -2 0.815212726940D-03 0.100000000000D+01
-.382042766779D-06 0.000000000000D+00 -.269623745128D-07 0.129335584915D-05 0.000000000000D+00  7 2 -2 24 -11 11 -24 21 2 0.20830980D+00 0.10259647D-01 0.69627069D+05 0.69627069D+05 0.69627069D+05 0.11348569D+01  1  2  3  2  7  2       -2 -.571304961719D-04 0.100000000000D+01
0.440913800779D-06 0.000000000000D+00 0.000000000000D+00 0.129335584915D-05 0.000000000000D+00  7 2 -2 24 -11 11 -24 21 2 0.20830980D+00 0.10259647D-01 0.69627069D+05 0.69627069D+05 0.69627069D+05 0.11348569D+01  1  2 15  2  7  2       -2 0.659340429866D-04 0.100000000000D+01
-.358776301788D-04 0.000000000000D+00 0.000000000000D+00 0.129335584915D-05 0.000000000000D+00  7 2 -2 24 -11 11 -24 21 2 0.20830980D+00 0.10259647D-01 0.69627069D+05 0.69627069D+05 0.69627069D+05 0.11348569D+01  1  2  4  2  7  2       -2 -.536512399087D-02 0.100000000000D+01
0.358787517488D-04 0.000000000000D+00 0.000000000000D+00 0.129335584915D-05 0.131751088032D-05  7 2 -2 24 -11 11 -24 21 2 0.20985077D+00 0.10285653D-01 0.70266873D+05 0.70266873D+05 0.70266873D+05 0.11345192D+01  1  2 11  2  7  2       -2 0.527415143733D-02 0.100000000000D+01
0.101675755442D-06 0.000000000000D+00 0.000000000000D+00 0.129335584915D-05 0.625655660755D-09  7 2 21 24 -11 11 -24 2 2 0.20985077D+00 0.10285653D-01 0.70266873D+05 0.70266873D+05 0.70266873D+05 0.11345192D+01  1  2 11  4  7  2       -2 0.218394612827D-03 0.100000000000D+01
  </mgrwgt>
  </event>
  <event>
  8     66 0.26993063E-05 0.10598996E+03 0.75467711E-02 0.96978659E-01
        2 -1    0    0  501    0 0.00000000E+00 0.00000000E+00 0.12061175E+04 0.12061175E+04 0.32000000E+00 0.0000E+00 0.9000E+01
       -2 -1    0    0    0  501 0.00000000E+00 0.00000000E+00 -.14792027E+03 0.14792062E+03 0.32000000E+00 0.0000E+00 0.9000E+01
       25  2    1    2    0    0 -.58374983E+02 0.32382471E+03 0.35727448E+03 0.57449403E+03 0.30680329E+03 0.0000E+00 0.0000E+00
       23  2    1    2    0    0 0.58374983E+02 -.32382471E+03 0.70092275E+03 0.77954413E+03 0.90145857E+02 0.0000E+00 0.0000E+00
       24  1    3    3    0    0 0.80749209E+02 0.13579644E+03 0.24613071E+03 0.30332928E+03 0.80419002E+02 0.0000E+00 0.9000E+01
      -13  1    4    4    0    0 0.54623589E+02 -.22384616E+03 0.39065157E+03 0.45354107E+03 0.10565837E+00 0.0000E+00 0.9000E+01
       13  1    4    4    0    0 0.37513933E+01 -.99978546E+02 0.31027118E+03 0.32600306E+03 0.10565837E+00 0.0000E+00 0.9000E+01
      -24  1    3    3    0    0 -.13912419E+03 0.18802826E+03 0.11114377E+03 0.27116475E+03 0.80419002E+02 0.0000E+00 0.9000E+01
#aMCatNLO 1  0  0  1  2 0.59933745D+02 0.00000000D+00  -5  7  0 0.00000000D+00 0.00000000D+00 0.00000000D+00 0.00000000D+00 0.00000000D+00
  <mgrwgt>
 0.4438529068D-03    7    2    0
 0.422385477331431D+03 0.000000000000000D+00 0.000000000000000D+00 0.422385477331431D+03
 0.422385477331431D+03 0.000000000000000D+00 0.000000000000000D+00 -.422385477331431D+03
 0.177876116614287D+03 0.807491903519695D+02 0.135796446373248D+03 0.145461444138262D+02
 0.237609533639262D+03 0.546236606030581D+02 -.223846338137083D+03 0.580289848369589D+02
 0.133873413548778D+03 0.375132422686387D+01 -.999783799661592D+02 0.889513460330391D+02
 0.295411890860535D+03 -.139124175181891D+03 0.188028271729995D+03 -.161526475283824D+03
 0.000000000000000D+00 -.000000000000000D+00 0.000000000000000D+00 0.000000000000000D+00
 0.130869811217259D+04 0.000000000000000D+00 0.000000000000000D+00 0.130869811217259D+04
 0.424461585777740D+03 0.000000000000000D+00 0.000000000000000D+00 -.424461585777740D+03
 0.170564980365706D+03 0.840404220002065D+02 0.123898400818987D+03 0.145461444138262D+02
 0.254546334584364D+03 0.592723630190540D+02 -.240651740802480D+03 0.580289848369589D+02
 0.141117274051829D+03 0.634877344237229D+01 -.109368350771633D+03 0.889513460330391D+02
 0.280665748923845D+03 -.133682782142055D+03 0.168357233897913D+03 -.161526475283824D+03
 0.886265360024583D+03 -.159787763195781D+02 0.577644568572144D+02 0.884236526394846D+03
0.114150124164D-04 0.000000000000D+00 0.000000000000D+00 0.147398721493D-07 0.000000000000D+00  7 2 -2 24 -13 13 -24 21 0 0.18555657D+00 0.22756995D-01 0.14253811D+06 0.14253811D+06 0.14253811D+06 0.11093049D+01  1  2  2  1  7  1        2 0.441438047765D-03 0.100000000000D+01
-.624454435672D-06 0.000000000000D+00 -.438366533208D-07 0.147398721493D-07 0.000000000000D+00  7 2 -2 24 -13 13 -24 21 2 0.18555657D+00 0.22756995D-01 0.14253811D+06 0.14253811D+06 0.14253811D+06 0.11093049D+01  1  2  3  1  7  1        2 -.297163867348D-04 0.100000000000D+01
0.728250190775D-06 0.000000000000D+00 0.000000000000D+00 0.147398721493D-07 0.000000000000D+00  7 2 -2 24 -13 13 -24 21 2 0.18555657D+00 0.22756995D-01 0.14253811D+06 0.14253811D+06 0.14253811D+06 0.11093049D+01  1  2 15  1  7  1        2 0.346557940379D-04 0.100000000000D+01
0.474191980824D-03 0.000000000000D+00 0.000000000000D+00 0.147398721493D-07 0.000000000000D+00  7 2 -2 24 -13 13 -24 21 2 0.57416730D+00 0.22756995D-01 0.16679058D+06 0.16679058D+06 0.16679058D+06 0.11039338D+01  1  2 12  1  7  1        2 0.685343589747D-03 0.100000000000D+01
-.471286417522D-03 0.000000000000D+00 -.335830405523D-05 0.147398721493D-07 0.000000000000D+00  7 2 -2 24 -13 13 -24 21 2 0.57521584D+00 0.22756995D-01 0.14253811D+06 0.14253811D+06 0.14253811D+06 0.11093049D+01  1  2  5  1  7  1        2 -.687864376084D-03 0.100000000000D+01
0.613010184247D-04 0.000000000000D+00 0.000000000000D+00 0.147398721493D-07 0.000000000000D+00  7 21 -2 24 -13 13 -24 -2 2 0.57416730D+00 0.22756995D-01 0.16679058D+06 0.16679058D+06 0.16679058D+06 0.11039338D+01  1  2 12  3  7  1        2 0.235018396163D-05 0.100000000000D+01
-.608877925262D-04 0.000000000000D+00 -.434993794276D-06 0.147398721493D-07 0.000000000000D+00  7 21 -2 24 -13 13 -24 -2 2 0.57521584D+00 0.22756995D-01 0.14253811D+06 0.14253811D+06 0.14253811D+06 0.11093049D+01  1  2  5  3  7  1        2 -.235394593311D-05 0.100000000000D+01
  </mgrwgt>
  </event>
  <event>
  8     66 0.26993063E-05 0.29468998E+03 0.75467711E-02 0.96349241E-01
        2 -1    0    0  501    0 0.00000000E+00 0.00000000E+00 0.15307251E+04 0.15307252E+04 0.32000000E+00 0.0000E+00 0.9000E+01
       -2 -1    0    0    0  501 0.00000000E+00 0.00000000E+00 -.63509938E+02 0.63510744E+02 0.32000000E+00 0.0000E+00 0.9000E+01
       25  2    1    2    0    0 0.10773781E+02 0.21856505E+03 0.71629981E+03 0.80657993E+03 0.29933096E+03 0.0000E+00 0.0000E+00
       23  2    1    2    0    0 -.10773781E+02 -.21856505E+03 0.75091539E+03 0.78765598E+03 0.92958384E+02 0.0000E+00 0.0000E+00
       24  1    3    3    0    0 -.40369694E+02 0.25278869E+03 0.49003243E+03 0.55868670E+03 0.80419002E+02 0.0000E+00 0.9000E+01
      -13  1    4    4    0    0 0.22088281E+01 -.14949528E+03 0.63271896E+03 0.65014384E+03 0.10565837E+00 0.0000E+00 0.9000E+01
       13  1    4    4    0    0 -.12982609E+02 -.69069768E+02 0.11819643E+03 0.13751214E+03 0.10565837E+00 0.0000E+00 0.9000E+01
      -24  1    3    3    0    0 0.51143475E+02 -.34223640E+02 0.22626738E+03 0.24789323E+03 0.80419002E+02 0.0000E+00 0.9000E+01
#aMCatNLO 1  0  0  1  1 0.22841708D+03 0.00000000D+00  -5  7  0 0.00000000D+00 0.00000000D+00 0.00000000D+00 0.00000000D+00 0.00000000D+00
  <mgrwgt>
 0.1243599739D-02    3    2    0
 0.311796291235714D+03 0.000000000000000D+00 0.000000000000000D+00 0.311796291235714D+03
 0.311796291235714D+03 0.000000000000000D+00 0.000000000000000D+00 -.311796291235714D+03
 0.275332615635778D+03 -.403696939404214D+02 0.252788688922955D+03 -.617170952187369D+02
 0.173427115743369D+03 0.220884736643178D+01 -.149495385037755D+03 0.878818258844740D+02
 0.734567920335141D+02 -.129826287661271D+02 -.690696645889303D+02 -.213713144132159D+02
 0.101376059058768D+03 0.511434753401167D+02 -.342236392962694D+02 -.479341625252115D+01
 0.000000000000000D+00 -.000000000000000D+00 0.000000000000000D+00 -.000000000000000D+00
 0.389808829811507D+03 0.000000000000000D+00 0.000000000000000D+00 0.389808829811507D+03
 0.557903033996881D+03 0.000000000000000D+00 0.000000000000000D+00 -.557903033996881D+03
 0.258649809245017D+03 0.520824002618033D+02 0.232187277017591D+03 -.617170952187369D+02
 0.197395129400878D+03 0.664118839139544D+02 -.163801964168321D+03 0.878818258844740D+02
 0.790906435919810D+02 0.134289706266890D+02 -.749550503432074D+02 -.213713144132159D+02
 0.128974403247302D+03 0.910256543189491D+02 -.431107197233409D+02 -.479341625252115D+01
 0.283601878323209D+03 -.222948909121396D+03 0.496804572172780D+02 -.168094204185374D+03
0.122655729567D-04 0.000000000000D+00 0.000000000000D+00 0.239318918081D-06 0.000000000000D+00  7 2 -2 24 -13 13 -24 21 0 0.23549624D+00 0.97708242D-02 0.86842187D+05 0.86842187D+05 0.86842187D+05 0.11267848D+01  1  2  2  1  7  1        2 0.122988345647D-02 0.100000000000D+01
-.678782822905D-06 0.000000000000D+00 -.471030297533D-07 0.239318918081D-06 0.000000000000D+00  7 2 -2 24 -13 13 -24 21 2 0.23549624D+00 0.97708242D-02 0.86842187D+05 0.86842187D+05 0.86842187D+05 0.11267848D+01  1  2  3  1  7  1        2 -.864149638706D-04 0.100000000000D+01
0.786523158401D-06 0.000000000000D+00 0.000000000000D+00 0.239318918081D-06 0.000000000000D+00  7 2 -2 24 -13 13 -24 21 2 0.23549624D+00 0.97708242D-02 0.86842187D+05 0.86842187D+05 0.86842187D+05 0.11267848D+01  1  2 15  1  7  1        2 0.100131246730D-03 0.100000000000D+01
  </mgrwgt>
  </event>
  <event>
  8     66 0.26993063E-05 0.12588517E+03 0.75467711E-02 0.95899392E-01
        2 -1    0    0  501    0 0.00000000E+00 0.00000000E+00 0.90657103E+03 0.90657109E+03 0.32000000E+00 0.0000E+00 0.9000E+01
       -2 -1    0    0    0  501 0.00000000E+00 0.00000000E+00 -.23471939E+03 0.23471961E+03 0.32000000E+00 0.0000E+00 0.9000E+01
       25  2    1    2    0    0 0.18723448E+03 0.74660799E+02 0.80294809E+03 0.88395024E+03 0.30985709E+03 0.0000E+00 0.0000E+00
       23  2    1    2    0    0 -.18723448E+03 -.74660799E+02 -.13109645E+03 0.25734045E+03 0.91688859E+02 0.0000E+00 0.0000E+00
       24  1    3    3    0    0 0.34417133E+02 0.15396855E+03 0.43923517E+03 0.47358801E+03 0.80419002E+02 0.0000E+00 0.9000E+01
      -13  1    4    4    0    0 -.86470752E+01 -.35204055E+02 -.36452006E+02 0.51408728E+02 0.10565837E+00 0.0000E+00 0.9000E+01
       13  1    4    4    0    0 -.17858740E+03 -.39456744E+02 -.94644439E+02 0.20593173E+03 0.10565837E+00 0.0000E+00 0.9000E+01
      -24  1    3    3    0    0 0.15281734E+03 -.79307749E+02 0.36371291E+03 0.41036223E+03 0.80419002E+02 0.0000E+00 0.9000E+01
#aMCatNLO 1  0  0  2  1 0.25121204D+03 0.00000000D+00  -5  7  0 0.00000000D+00 0.00000000D+00 0.00000000D+00 0.00000000D+00 0.00000000D+00
  <mgrwgt>
 0.5161747668D-03    7    2    0
 0.461291617400324D+03 0.000000000000000D+00 0.000000000000000D+00 0.461291617400324D+03
 0.461291617400324D+03 0.000000000000000D+00 0.000000000000000D+00 -.461291617400324D+03
 0.265993032413680D+03 0.344171530322678D+02 0.153968521080749D+03 0.198479801067048D+03
 0.901407666141313D+02 -.864685158369897D+01 -.352040499426939D+02 -.825303861078154D+02
 0.323673001875545D+03 -.178587634102838D+03 -.394567522332536D+02 -.267046501178879D+03
 0.242776433897292D+03 0.152817332654269D+03 -.793077189048014D+02 0.151097086219647D+03
 0.000000000000000D+00 0.000000000000000D+00 -.000000000000000D+00 -.000000000000000D+00
 0.510259240819406D+03 0.000000000000000D+00 0.000000000000000D+00 0.510259240819406D+03
 0.968468772320501D+03 0.000000000000000D+00 0.000000000000000D+00 -.968468772320501D+03
 0.290333097093088D+03 -.282873699489443D+02 0.193988877472527D+03 0.198479801067048D+03
 0.902502191348058D+02 -.289790454382753D+02 -.222272883695189D+02 -.825303861078154D+02
 0.370668111601204D+03 -.256848075231864D+03 0.104919691101778D+02 -.267046501178879D+03
 0.204921838009317D+03 0.102356451724039D+03 -.471017097900210D+02 0.151097086219647D+03
 0.522554747301492D+03 0.211758038895045D+03 -.135151848423165D+03 -.458209531501095D+03
0.293516417806D-04 0.000000000000D+00 0.000000000000D+00 0.140375630586D-07 0.000000000000D+00  7 2 -2 24 -13 13 -24 21 0 0.13947249D+00 0.36110696D-01 0.85923273D+05 0.85923273D+05 0.85923273D+05 0.11271695D+01  1  2  2  2  7  2       -2 0.773266521527D-03 0.100000000000D+01
-.122302898867D-05 0.000000000000D+00 -.112718032902D-06 0.140375630586D-07 0.000000000000D+00  7 2 -2 24 -13 13 -24 21 2 0.13947249D+00 0.36110696D-01 0.85923273D+05 0.85923273D+05 0.85923273D+05 0.11271695D+01  1  2  3  2  7  2       -2 -.409366198185D-04 0.100000000000D+01
0.182214167825D-05 0.000000000000D+00 0.000000000000D+00 0.140375630586D-07 0.000000000000D+00  7 2 -2 24 -13 13 -24 21 2 0.13947249D+00 0.36110696D-01 0.85923273D+05 0.85923273D+05 0.85923273D+05 0.11271695D+01  1  2 15  2  7  2       -2 0.609898226689D-04 0.100000000000D+01
0.133112968289D-05 0.000000000000D+00 0.000000000000D+00 0.140375630586D-07 0.000000000000D+00  7 2 -2 24 -13 13 -24 21 2 0.13947249D+00 0.75704670D-01 0.20030961D+06 0.20030961D+06 0.20030961D+06 0.10977738D+01  1  2 12  2  7  2       -2 0.941781539528D-05 0.100000000000D+01
-.266372732301D-04 0.000000000000D+00 -.878678111982D-05 0.140375630586D-07 0.000000000000D+00  7 2 -2 24 -13 13 -24 21 2 0.13947249D+00 0.81007080D-01 0.85923273D+05 0.85923273D+05 0.85923273D+05 0.11271695D+01  1  2  5  2  7  2       -2 -.176517309778D-03 0.100000000000D+01
0.106565509540D-06 0.000000000000D+00 0.000000000000D+00 0.140375630586D-07 0.000000000000D+00  7 2 21 24 -13 13 -24 2 2 0.13947249D+00 0.75704670D-01 0.20030961D+06 0.20030961D+06 0.20030961D+06 0.10977738D+01  1  2 12  4  7  2       -2 0.738497881199D-05 0.100000000000D+01
-.178109113898D-05 0.000000000000D+00 -.770695772982D-06 0.140375630586D-07 0.000000000000D+00  7 2 21 24 -13 13 -24 2 2 0.13947249D+00 0.81007080D-01 0.85923273D+05 0.85923273D+05 0.85923273D+05 0.11271695D+01  1  2  5  4  7  2       -2 -.117430442028D-03 0.100000000000D+01
  </mgrwgt>
  </event>
  <event>
  9     66 0.26993063E-05 0.21607670E+03 0.75467711E-02 0.10253001E+00
        2 -1    0    0  502    0 0.00000000E+00 0.00000000E+00 0.94392128E+03 0.94392133E+03 0.32000000E+00 0.0000E+00 0.9000E+01
       -2 -1    0    0    0  501 0.00000000E+00 0.00000000E+00 -.94671680E+02 0.94672220E+02 0.32000000E+00 0.0000E+00 0.9000E+01
       25  2    1    2    0    0 0.32534139E+02 -.75046820E+02 0.40977898E+03 0.51477472E+03 0.30063883E+03 0.0000E+00 0.0000E+00
       23  2    1    2    0    0 -.68743007E+02 0.15741392E+03 0.31420372E+03 0.36958595E+03 0.91460692E+02 0.0000E+00 0.0000E+00
       24  1    3    3    0    0 -.63051708E+02 -.10867894E+02 0.34525230E+03 0.36022215E+03 0.80419002E+02 0.0000E+00 0.9000E+01
      -11  1    4    4    0    0 0.20893289E+02 0.40532094E+02 0.96537233E+02 0.10676524E+03 0.51099893E-03 0.0000E+00 0.9000E+01
       11  1    4    4    0    0 -.89636296E+02 0.11688183E+03 0.21766648E+03 0.26282071E+03 0.51099893E-03 0.0000E+00 0.9000E+01
      -24  1    3    3    0    0 0.95585847E+02 -.64178926E+02 0.64526679E+02 0.15455257E+03 0.80419002E+02 0.0000E+00 0.9000E+01
       21  1    1    2  502  501 0.36208868E+02 -.82367103E+02 0.12526690E+03 0.15423288E+03 0.75000000E+00 0.0000E+00 0.9000E+01
#aMCatNLO 2  0  0  1  1 0.89974562D+02 0.00000000D+00  -5  7  0 0.00000000D+00 0.00000000D+00 0.00000000D+00 0.00000000D+00 0.00000000D+00
  <mgrwgt>
 0.2165929178D-03    1    2    0
 0.249923705342521D+03 0.000000000000000D+00 0.000000000000000D+00 0.249923705342521D+03
 0.249923705342521D+03 0.000000000000000D+00 0.000000000000000D+00 -.249923705342521D+03
 0.134484513580312D+03 -.533655760208126D+02 -.329016845534170D+02 0.876838804346445D+02
 0.439048160013940D+02 0.242061087726883D+02 0.329961661586524D+02 0.159044077233843D+02
 0.123975206288831D+03 -.798868839830579D+02 0.947040909761634D+02 0.436722958111257D+01
 0.197482874814506D+03 0.109046351231182D+03 -.947985725813988D+02 -.107955517739141D+03
 0.000000000000000D+00 0.000000000000000D+00 -.000000000000000D+00 -.000000000000000D+00
 0.298068869819759D+03 0.000000000000000D+00 0.000000000000000D+00 0.298068869819759D+03
 0.299803154475129D+03 0.000000000000000D+00 0.000000000000000D+00 -.299803154475129D+03
 0.135089999022205D+03 -.630517080080330D+02 -.108678935696598D+02 0.876838804346445D+02
 0.482942057136595D+02 0.208932885627844D+02 0.405320936236193D+02 0.159044077233843D+02
 0.147360443171745D+03 -.896362957065191D+02 0.116881829253193D+03 0.436722958111257D+01
 0.177136101635713D+03 0.955858470619155D+02 -.641789262878191D+02 -.107955517739141D+03
 0.899912747515648D+02 0.362088680898522D+02 -.823671030193332D+02 -.173428465536928D+01
0.145353397940D-05 0.000000000000D+00 0.000000000000D+00 0.188780082269D-06 0.172746029318D-09  7 2 -2 24 -11 11 -24 21 2 0.14521794D+00 0.14564843D-01 0.69188561D+05 0.69188561D+05 0.69188561D+05 0.11350903D+01  1  2  1  1  7  1        2 0.216592917841D-03 0.100000000000D+01
  </mgrwgt>
  </event>
  <event>
  8     66 0.26993063E-05 0.21514693E+03 0.75467711E-02 0.98442945E-01
        2 -1    0    0  501    0 0.00000000E+00 0.00000000E+00 0.71112429E+03 0.71112436E+03 0.32000000E+00 0.0000E+00 0.9000E+01
       -2 -1    0    0    0  501 0.00000000E+00 0.00000000E+00 -.70165312E+02 0.70166042E+02 0.32000000E+00 0.0000E+00 0.9000E+01
       25  2    1    2    0    0 0.94792870E+02 -.74472375E+01 0.44496498E+03 0.54509666E+03 0.30015893E+03 0.0000E+00 0.0000E+00
       23  2    1    2    0    0 -.94792870E+02 0.74472375E+01 0.19599399E+03 0.23619374E+03 0.91283562E+02 0.0000E+00 0.0000E+00
       24  1    3    3    0    0 0.85256204E+02 -.11641517E+03 0.32210103E+03 0.36199089E+03 0.80419002E+02 0.0000E+00 0.9000E+01
      -13  1    4    4    0    0 -.20082047E+02 0.42353797E+02 0.50110585E+02 0.68616431E+02 0.10565837E+00 0.0000E+00 0.9000E+01
       13  1    4    4    0    0 -.74710822E+02 -.34906560E+02 0.14588341E+03 0.16757731E+03 0.10565837E+00 0.0000E+00 0.9000E+01
      -24  1    3    3    0    0 0.95366656E+01 0.10896793E+03 0.12286395E+03 0.18310578E+03 0.80419002E+02 0.0000E+00 0.9000E+01
#aMCatNLO 1  0  0  1  2 0.23362936D+03 0.00000000D+00  -5  7  0 0.00000000D+00 0.00000000D+00 0.00000000D+00 0.00000000D+00 0.00000000D+00
  <mgrwgt>
 0.6371897689D-03    3    2    0
 0.223375403315007D+03 0.000000000000000D+00 0.000000000000000D+00 0.223375403315007D+03
 0.223375403315007D+03 0.000000000000000D+00 0.000000000000000D+00 -.223375403315007D+03
 0.170937492409087D+03 0.852562227226586D+02 -.116415169862873D+03 0.439465023591047D+02
 0.481040060724971D+02 -.200819947011411D+02 0.423538797078728D+02 -.108100769070909D+02
 0.837632195399359D+02 -.747109092001703D+02 -.349066394929533D+02 0.146997793686982D+02
 0.143946088608494D+03 0.953668117865282D+01 0.108967929647954D+03 -.478362048207120D+02
 0.000000000000000D+00 -.000000000000000D+00 -.000000000000000D+00 -.000000000000000D+00
 0.332438233234767D+03 0.000000000000000D+00 0.000000000000000D+00 0.332438233234767D+03
 0.421877597430191D+03 0.000000000000000D+00 0.000000000000000D+00 -.421877597430191D+03
 0.176270006773013D+03 0.141279486484999D+03 -.520836919037391D+02 0.439465023591047D+02
 0.640908652010189D+02 -.197892123370577D+01 0.631416273961064D+02 -.108100769070909D+02
 0.551007322487671D+02 -.523046771445104D+02 -.917757754913864D+01 0.146997793686982D+02
 0.208690121638616D+03 0.664358883252841D+02 0.174305252835223D+03 -.478362048207120D+02
 0.250164104803543D+03 -.153431776432067D+03 -.176185610778452D+03 -.894393641954249D+02
0.238760196828D-05 0.000000000000D+00 0.000000000000D+00 0.316999312552D-06 0.000000000000D+00  7 2 -2 24 -13 13 -24 21 0 0.10940380D+00 0.10794725D-01 0.46288202D+05 0.46288202D+05 0.46288202D+05 0.11502537D+01  1  2  2  1  7  1        2 0.629020021871D-03 0.100000000000D+01
-.132417364558D-06 0.000000000000D+00 -.916902022822D-08 0.316999312552D-06 0.000000000000D+00  7 2 -2 24 -13 13 -24 21 2 0.10940380D+00 0.10794725D-01 0.46288202D+05 0.46288202D+05 0.46288202D+05 0.11502537D+01  1  2  3  1  7  1        2 -.461567018361D-04 0.100000000000D+01
0.155855269166D-06 0.000000000000D+00 0.000000000000D+00 0.316999312552D-06 0.000000000000D+00  7 2 -2 24 -13 13 -24 21 2 0.10940380D+00 0.10794725D-01 0.46288202D+05 0.46288202D+05 0.46288202D+05 0.11502537D+01  1  2 15  1  7  1        2 0.543264488951D-04 0.100000000000D+01
  </mgrwgt>
  </event>
  <event>
  8     66 0.26993063E-05 0.12796555E+03 0.75467711E-02 0.10501693E+00
        2 -1    0    0  501    0 0.00000000E+00 0.00000000E+00 0.63268037E+03 0.63268045E+03 0.32000000E+00 0.0000E+00 0.9000E+01
       -2 -1    0    0    0  501 0.00000000E+00 0.00000000E+00 -.12174912E+03 0.12174954E+03 0.32000000E+00 0.0000E+00 0.9000E+01
       25  2    1    2    0    0 -.72940046E+02 -.51449433E+02 0.10700411E+03 0.33020188E+03 0.29935949E+03 0.0000E+00 0.0000E+00
       23  2    1    2    0    0 0.72940046E+02 0.51449433E+02 0.40392714E+03 0.42422811E+03 0.94048184E+02 0.0000E+00 0.0000E+00
       24  1    3    3    0    0 -.16505272E+03 -.37545078E+02 0.46587113E+02 0.19310518E+03 0.80419002E+02 0.0000E+00 0.9000E+01
      -11  1    4    4    0    0 -.35054123E+01 0.39795825E+02 0.23592741E+03 0.23928590E+03 0.51099893E-03 0.0000E+00 0.9000E+01
       11  1    4    4    0    0 0.76445458E+02 0.11653608E+02 0.16799973E+03 0.18494222E+03 0.51099893E-03 0.0000E+00 0.9000E+01
      -24  1    3    3    0    0 0.92112676E+02 -.13904355E+02 0.60416995E+02 0.13709670E+03 0.80419002E+02 0.0000E+00 0.9000E+01
#aMCatNLO 1  0  0  1  2 0.11656974D+02 0.00000000D+00  -5  7  0 0.00000000D+00 0.00000000D+00 0.00000000D+00 0.00000000D+00 0.00000000D+00
  <mgrwgt>
 0.5960374307D-03    9    2    0
 0.277540026739503D+03 0.000000000000000D+00 0.000000000000000D+00 0.277540026739503D+03
 0.277540026739503D+03 0.000000000000000D+00 0.000000000000000D+00 -.277540026739503D+03
 0.219574677273833D+03 -.165052721790971D+03 -.375450783224756D+02 -.114428095626419D+03
 0.108059670047254D+03 -.350541220974225D+01 0.397958249325562D+02 0.100403668727285D+03
 0.967241438736520D+02 0.764454579173905D+02 0.116536081702841D+02 0.581020256833177D+02
 0.130721562284267D+03 0.921126760833227D+02 -.139043547803646D+02 -.440775987841842D+02
 0.000000000000000D+00 -.000000000000000D+00 0.000000000000000D+00 0.000000000000000D+00
 0.332793758531335D+03 0.000000000000000D+00 0.000000000000000D+00 0.332793758531335D+03
 0.278216725218124D+03 0.000000000000000D+00 0.000000000000000D+00 -.278216725218124D+03
 0.217141549216904D+03 -.161203414854938D+03 -.400363136710229D+02 -.114428095626419D+03
 0.107567615742200D+03 -.160482881842427D+01 0.385657851861824D+02 0.100403668727285D+03
 0.979602609005025D+02 0.781614464339073D+02 0.105430364956716D+02 0.581020256833177D+02
 0.132533015425291D+03 0.944330562534453D+02 -.154060830649463D+02 -.440775987841842D+02
 0.558080424645612D+02 -.978625901399056D+01 0.633357505411519D+01 0.545770333132101D+02
0.397353303336D-05 0.000000000000D+00 0.000000000000D+00 0.724246177859D-07 0.000000000000D+00  7 2 -2 24 -11 11 -24 21 0 0.97335480D-01 0.18730672D-01 0.45741670D+05 0.45741670D+05 0.45741670D+05 0.11507113D+01  1  2  2  1  7  1        2 0.503136955995D-03 0.100000000000D+01
-.202526442108D-06 0.000000000000D+00 -.152594131034D-07 0.724246177859D-07 0.000000000000D+00  7 2 -2 24 -11 11 -24 21 2 0.97335480D-01 0.18730672D-01 0.45741670D+05 0.45741670D+05 0.45741670D+05 0.11507113D+01  1  2  3  1  7  1        2 -.339565766732D-04 0.100000000000D+01
0.245498471579D-06 0.000000000000D+00 0.000000000000D+00 0.724246177859D-07 0.000000000000D+00  7 2 -2 24 -11 11 -24 21 2 0.97335480D-01 0.18730672D-01 0.45741670D+05 0.45741670D+05 0.45741670D+05 0.11507113D+01  1  2 15  1  7  1        2 0.411614779115D-04 0.100000000000D+01
0.119337136946D-03 0.000000000000D+00 0.000000000000D+00 0.724246177859D-07 0.000000000000D+00  7 2 -2 24 -11 11 -24 21 2 0.11681695D+00 0.18730672D-01 0.48105337D+05 0.48105337D+05 0.48105337D+05 0.11487740D+01  1  2 12  1  7  1        2 0.160758940206D-01 0.100000000000D+01
-.118111079629D-03 0.000000000000D+00 0.000000000000D+00 0.724246177859D-07 0.000000000000D+00  7 2 -2 24 -11 11 -24 21 2 0.97335480D-01 0.18730672D-01 0.45741670D+05 0.45741670D+05 0.45741670D+05 0.11507113D+01  1  2  4  1  7  1        2 -.198030829438D-01 0.100000000000D+01
-.125460337705D-03 0.000000000000D+00 -.312478801931D-05 0.724246177859D-07 0.000000000000D+00  7 2 -2 24 -11 11 -24 21 2 0.11683226D+00 0.18730672D-01 0.45741670D+05 0.45741670D+05 0.45741670D+05 0.11507113D+01  1  2  5  1  7  1        2 -.169555664470D-01 0.100000000000D+01
0.124009606557D-03 0.000000000000D+00 0.307342104428D-05 0.724246177859D-07 0.000000000000D+00  7 2 -2 24 -11 11 -24 21 2 0.97335480D-01 0.18730672D-01 0.45741670D+05 0.45741670D+05 0.45741670D+05 0.11507113D+01  1  2  6  1  7  1        2 0.207920589008D-01 0.100000000000D+01
0.318073735125D-05 0.000000000000D+00 0.000000000000D+00 0.724246177859D-07 0.000000000000D+00  7 21 -2 24 -11 11 -24 -2 2 0.11681695D+00 0.18730672D-01 0.48105337D+05 0.48105337D+05 0.48105337D+05 0.11487740D+01  1  2 12  3  7  1        2 0.492368912124D-03 0.100000000000D+01
-.331508994353D-05 0.000000000000D+00 -.833328428790D-07 0.724246177859D-07 0.000000000000D+00  7 21 -2 24 -11 11 -24 -2 2 0.11683226D+00 0.18730672D-01 0.45741670D+05 0.45741670D+05 0.45741670D+05 0.11507113D+01  1  2  5  3  7  1        2 -.515976869186D-03 0.100000000000D+01
  </mgrwgt>
  </event>
  <event>
  8     66 0.26993063E-05 0.15304464E+03 0.75467711E-02 0.10187116E+00
        2 -1    0    0  501    0 0.00000000E+00 0.00000000E+00 0.74097902E+03 0.74097909E+03 0.32000000E+00 0.0000E+00 0.9000E+01
       -2 -1    0    0    0  501 0.00000000E+00 0.00000000E+00 -.92370743E+02 0.92371297E+02 0.32000000E+00 0.0000E+00 0.9000E+01
       25  2    1    2    0    0 -.12365798E+03 -.84524530E+02 0.34090173E+03 0.47880545E+03 0.30100660E+03 0.0000E+00 0.0000E+00
       23  2    1    2    0    0 0.12365798E+03 0.84524530E+02 0.30770654E+03 0.35454494E+03 0.92645041E+02 0.0000E+00 0.0000E+00
       24  1    3    3    0    0 -.18659978E+03 -.10984901E+03 0.23639800E+03 0.33051099E+03 0.80419002E+02 0.0000E+00 0.9000E+01
      -11  1    4    4    0    0 -.79650936E+00 -.62317510E+01 -.35821970E+01 0.72319626E+01 0.51099893E-03 0.0000E+00 0.9000E+01
       11  1    4    4    0    0 0.12445449E+03 0.90756282E+02 0.31128874E+03 0.34731298E+03 0.51099893E-03 0.0000E+00 0.9000E+01
      -24  1    3    3    0    0 0.62941800E+02 0.25324483E+02 0.10450373E+03 0.14829446E+03 0.80419002E+02 0.0000E+00 0.9000E+01
#aMCatNLO 1  0  0  1  2 0.53708977D+02 0.00000000D+00  -5  7  0 0.00000000D+00 0.00000000D+00 0.00000000D+00 0.00000000D+00 0.00000000D+00
  <mgrwgt>
 0.1188715454D-02    9    2    0
 0.261620033876308D+03 0.000000000000000D+00 0.000000000000000D+00 0.261620033876308D+03
 0.261620033876308D+03 0.000000000000000D+00 0.000000000000000D+00 -.261620033876308D+03
 0.233357056314455D+03 -.186599781999571D+03 -.109849013812948D+03 -.331966157825210D+02
 0.159586430572087D+02 -.796509355940714D+00 -.623175103166955D+01 -.146700081851573D+02
 0.167282580449354D+03 0.124454491373298D+03 0.907562815258740D+02 0.652521161526929D+02
 0.106641787931599D+03 0.629417999822134D+02 0.253244833187437D+02 -.173854921850146D+02
 0.000000000000000D+00 0.000000000000000D+00 0.000000000000000D+00 0.000000000000000D+00
 0.366860343582680D+03 0.000000000000000D+00 0.000000000000000D+00 0.366860343582680D+03
 0.269937921479951D+03 0.000000000000000D+00 0.000000000000000D+00 -.269937921479951D+03
 0.251807656119549D+03 -.195222529890613D+03 -.133139131173923D+03 -.331966157825210D+02
 0.166707595820697D+02 -.137642604316695D+01 -.779811106860376D+01 -.146700081851573D+02
 0.154989787986875D+03 0.118726800727098D+03 0.752857390673680D+02 0.652521161526929D+02
 0.102521171389650D+03 0.592243831541775D+02 0.152837079999423D+02 -.173854921850146D+02
 0.110808889984487D+03 0.186477720525042D+02 0.503677951752165D+02 0.969224221027281D+02
0.582702397842D-05 0.000000000000D+00 0.000000000000D+00 0.125150562430D-06 0.000000000000D+00  7 2 -2 24 -11 11 -24 21 0 0.11399682D+00 0.14210931D-01 0.61631177D+05 0.61631177D+05 0.61631177D+05 0.11393907D+01  1  2  2  1  7  1        2 0.954000855673D-03 0.100000000000D+01
-.322641516520D-06 0.000000000000D+00 -.223773063678D-07 0.125150562430D-06 0.000000000000D+00  7 2 -2 24 -11 11 -24 21 2 0.11399682D+00 0.14210931D-01 0.61631177D+05 0.61631177D+05 0.61631177D+05 0.11393907D+01  1  2  3  1  7  1        2 -.685752693304D-04 0.100000000000D+01
0.375076147890D-06 0.000000000000D+00 0.000000000000D+00 0.125150562430D-06 0.000000000000D+00  7 2 -2 24 -11 11 -24 21 2 0.11399682D+00 0.14210931D-01 0.61631177D+05 0.61631177D+05 0.61631177D+05 0.11393907D+01  1  2 15  1  7  1        2 0.797198951282D-04 0.100000000000D+01
0.159499586337D-04 0.000000000000D+00 0.000000000000D+00 0.125150562430D-06 0.000000000000D+00  7 2 -2 24 -11 11 -24 21 2 0.16111173D+00 0.14210931D-01 0.76413067D+05 0.76413067D+05 0.76413067D+05 0.11314375D+01  1  2 12  1  7  1        2 0.212478082560D-02 0.100000000000D+01
-.158620998718D-04 0.000000000000D+00 0.000000000000D+00 0.125150562430D-06 0.000000000000D+00  7 2 -2 24 -11 11 -24 21 2 0.11399682D+00 0.14210931D-01 0.61631177D+05 0.61631177D+05 0.61631177D+05 0.11393907D+01  1  2  4  1  7  1        2 -.337138190580D-02 0.100000000000D+01
-.191034996321D-04 0.000000000000D+00 -.264409965972D-05 0.125150562430D-06 0.000000000000D+00  7 2 -2 24 -11 11 -24 21 2 0.16208279D+00 0.14210931D-01 0.61631177D+05 0.61631177D+05 0.61631177D+05 0.11393907D+01  1  2  5  1  7  1        2 -.256139577301D-02 0.100000000000D+01
0.190008453271D-04 0.000000000000D+00 0.248839674042D-05 0.125150562430D-06 0.000000000000D+00  7 2 -2 24 -11 11 -24 21 2 0.11399682D+00 0.14210931D-01 0.61631177D+05 0.61631177D+05 0.61631177D+05 0.11393907D+01  1  2  6  1  7  1        2 0.403850099597D-02 0.100000000000D+01
0.683225160215D-06 0.000000000000D+00 0.000000000000D+00 0.125150562430D-06 0.000000000000D+00  7 21 -2 24 -11 11 -24 -2 2 0.16111173D+00 0.14210931D-01 0.76413067D+05 0.76413067D+05 0.76413067D+05 0.11314375D+01  1  2 12  3  7  1        2 0.627163778049D-04 0.100000000000D+01
-.753160048938D-06 0.000000000000D+00 -.114677445372D-06 0.125150562430D-06 0.000000000000D+00  7 21 -2 24 -11 11 -24 -2 2 0.16208279D+00 0.14210931D-01 0.61631177D+05 0.61631177D+05 0.61631177D+05 0.11393907D+01  1  2  5  3  7  1        2 -.696505480697D-04 0.100000000000D+01
  </mgrwgt>
  </event>
  <event>
  8     66 0.26993063E-05 0.22717805E+03 0.75467711E-02 0.95870277E-01
        2 -1    0    0  501    0 0.00000000E+00 0.00000000E+00 0.18144915E+04 0.18144915E+04 0.32000000E+00 0.0000E+00 0.9000E+01
       -2 -1    0    0    0  501 0.00000000E+00 0.00000000E+00 -.46508263E+03 0.46508274E+03 0.32000000E+00 0.0000E+00 0.9000E+01
       25  2    1    2    0    0 0.29110585E+03 0.26443460E+03 0.16839997E+04 0.17553678E+04 0.30131831E+03 0.0000E+00 0.0000E+00
       23  2    1    2    0    0 -.29110585E+03 -.26443460E+03 -.33459086E+03 0.52420648E+03 0.90405292E+02 0.0000E+00 0.0000E+00
       24  1    3    3    0    0 0.17995127E+03 0.29271619E+03 0.11228468E+04 0.11769951E+04 0.80419002E+02 0.0000E+00 0.9000E+01
      -13  1    4    4    0    0 -.12788796E+03 -.14119754E+03 -.10808580E+03 0.21903111E+03 0.10565837E+00 0.0000E+00 0.9000E+01
       13  1    4    4    0    0 -.16321789E+03 -.12323706E+03 -.22650507E+03 0.30517537E+03 0.10565837E+00 0.0000E+00 0.9000E+01
      -24  1    3    3    0    0 0.11115458E+03 -.28281586E+02 0.56115289E+03 0.57837270E+03 0.80419002E+02 0.0000E+00 0.9000E+01
#aMCatNLO 1  0  0  1  2 0.10198103D+02 0.00000000D+00  -5  7  0 0.00000000D+00 0.00000000D+00 0.00000000D+00 0.00000000D+00 0.00000000D+00
  <mgrwgt>
 0.2945647902D-02    9    2    0
 0.918634114826657D+03 0.000000000000000D+00 0.000000000000000D+00 0.918634114826657D+03
 0.918634114826657D+03 0.000000000000000D+00 0.000000000000000D+00 -.918634114826657D+03
 0.635654735616586D+03 0.179951269057984D+03 0.292716186085556D+03 0.528700768039322D+03
 0.351145854511855D+03 -.127887907942244D+03 -.141197568221157D+03 -.294976848026160D+03
 0.545003898612791D+03 -.163217938571231D+03 -.123237031504990D+03 -.505175007395989D+03
 0.305463740912081D+03 0.111154577455491D+03 -.282815863594091D+02 0.271451087382827D+03
 0.000000000000000D+00 -.000000000000000D+00 -.000000000000000D+00 0.000000000000000D+00
 0.941859300169968D+03 0.000000000000000D+00 0.000000000000000D+00 0.941859300169968D+03
 0.919768437338543D+03 0.000000000000000D+00 0.000000000000000D+00 -.919768437338543D+03
 0.637556421225722D+03 0.181405710229210D+03 0.295936548034619D+03 0.528700768039322D+03
 0.350144804526177D+03 -.127086794943807D+03 -.139423777800407D+03 -.294976848026160D+03
 0.544015973189738D+03 -.161973906637233D+03 -.120482548764182D+03 -.505175007395989D+03
 0.305579333739233D+03 0.111852596947693D+03 -.267360612073004D+02 0.271451087382827D+03
 0.243312048276402D+02 -.419760559586360D+01 -.929416026272902D+01 0.220908628314257D+02
0.283821986251D-03 0.000000000000D+00 0.000000000000D+00 0.228126129341D-05 0.000000000000D+00  7 2 -2 24 -13 13 -24 21 0 0.27915255D+00 0.71551185D-01 0.19713331D+06 0.19713331D+06 0.19713331D+06 0.10983073D+01  1  2  2  1  7  1        2 0.575344679003D-03 0.100000000000D+01
-.563326317900D-05 0.000000000000D+00 -.108995115925D-05 0.228126129341D-05 0.000000000000D+00  7 2 -2 24 -13 13 -24 21 2 0.27915255D+00 0.71551185D-01 0.19713331D+06 0.19713331D+06 0.19713331D+06 0.10983073D+01  1  2  3  1  7  1        2 -.137749431434D-04 0.100000000000D+01
0.173644493763D-04 0.000000000000D+00 0.000000000000D+00 0.228126129341D-05 0.000000000000D+00  7 2 -2 24 -13 13 -24 21 2 0.27915255D+00 0.71551185D-01 0.19713331D+06 0.19713331D+06 0.19713331D+06 0.10983073D+01  1  2 15  1  7  1        2 0.424610559234D-04 0.100000000000D+01
0.137443314821D-02 0.000000000000D+00 0.000000000000D+00 0.228126129341D-05 0.000000000000D+00  7 2 -2 24 -13 13 -24 21 2 0.28638015D+00 0.71551185D-01 0.20131332D+06 0.20131332D+06 0.20131332D+06 0.10976071D+01  1  2 12  1  7  1        2 0.316191648602D-02 0.100000000000D+01
-.139350483600D-02 0.000000000000D+00 0.000000000000D+00 0.228126129341D-05 0.000000000000D+00  7 2 -2 24 -13 13 -24 21 2 0.27915255D+00 0.71551185D-01 0.19713331D+06 0.19713331D+06 0.19713331D+06 0.10983073D+01  1  2  4  1  7  1        2 -.340751874642D-02 0.100000000000D+01
-.183959085378D-01 0.000000000000D+00 -.116590511958D-02 0.228126129341D-05 0.000000000000D+00  7 2 -2 24 -13 13 -24 21 2 0.28633987D+00 0.71551185D-01 0.19713331D+06 0.19713331D+06 0.19713331D+06 0.10983073D+01  1  2  5  1  7  1        2 -.424406720632D-01 0.100000000000D+01
0.184199716221D-01 0.000000000000D+00 0.116552849888D-02 0.228126129341D-05 0.000000000000D+00  7 2 -2 24 -13 13 -24 21 2 0.27915255D+00 0.71551185D-01 0.19713331D+06 0.19713331D+06 0.19713331D+06 0.10983073D+01  1  2  6  1  7  1        2 0.450421103604D-01 0.100000000000D+01
0.584607261258D-04 0.000000000000D+00 0.000000000000D+00 0.228126129341D-05 0.000000000000D+00  7 21 -2 24 -13 13 -24 -2 2 0.28638015D+00 0.71551185D-01 0.20131332D+06 0.20131332D+06 0.20131332D+06 0.10976071D+01  1  2 12  3  7  1        2 0.316640797984D-04 0.100000000000D+01
-.843523531313D-04 0.000000000000D+00 -.535127488576D-05 0.228126129341D-05 0.000000000000D+00  7 21 -2 24 -13 13 -24 -2 2 0.28633987D+00 0.71551185D-01 0.19713331D+06 0.19713331D+06 0.19713331D+06 0.10983073D+01  1  2  5  3  7  1        2 -.458830060849D-04 0.100000000000D+01
  </mgrwgt>
  </event>
  <event>
  8     66 0.26993063E-05 0.19360127E+03 0.75467711E-02 0.99798926E-01
        2 -1    0    0  501    0 0.00000000E+00 0.00000000E+00 0.24279725E+04 0.24279726E+04 0.32000000E+00 0.0000E+00 0.9000E+01
       -2 -1    0    0    0  501 0.00000000E+00 0.00000000E+00 -.15451987E+03 0.15452021E+03 0.32000000E+00 0.0000E+00 0.9000E+01
       25  2    1    2    0    0 -.24505618E+03 0.62633471E+01 0.22878717E+04 0.23203220E+04 0.29907490E+03 0.0000E+00 0.0000E+00
       23  2    1    2    0    0 0.24505618E+03 -.62633471E+01 -.14419022E+02 0.26217072E+03 0.91835799E+02 0.0000E+00 0.0000E+00
       24  1    3    3    0    0 -.32534618E+02 -.10101652E+03 0.91598093E+03 0.92560852E+03 0.80419002E+02 0.0000E+00 0.9000E+01
      -11  1    4    4    0    0 0.13593687E+03 0.35261698E+02 -.32176096E+02 0.14407471E+03 0.51099893E-03 0.0000E+00 0.9000E+01
       11  1    4    4    0    0 0.10911931E+03 -.41525045E+02 0.17757074E+02 0.11809601E+03 0.51099893E-03 0.0000E+00 0.9000E+01
      -24  1    3    3    0    0 -.21252157E+03 0.10727986E+03 0.13718907E+04 0.13947135E+04 0.80419002E+02 0.0000E+00 0.9000E+01
#aMCatNLO 1  0  0  1  2 0.72260972D+01 0.00000000D+00  -5  7  0 0.00000000D+00 0.00000000D+00 0.00000000D+00 0.00000000D+00 0.00000000D+00
  <mgrwgt>
 0.1762807196D-02   11    2    0
 0.612511605967613D+03 0.000000000000000D+00 0.000000000000000D+00 0.612511605967613D+03
 0.612511605967613D+03 0.000000000000000D+00 0.000000000000000D+00 -.612511605967613D+03
 0.251373198488012D+03 -.325346184029934D+02 -.101016517448533D+03 0.213209828037230D+03
 0.363440231512111D+03 0.135936870510331D+03 0.352616979250971D+02 -.335211249478405D+03
 0.216005886634008D+03 0.109119313968834D+03 -.415250449781704D+02 -.181733841149841D+03
 0.394203895301095D+03 -.212521566076171D+03 0.107279864501606D+03 0.303735262591017D+03
 0.000000000000000D+00 -.000000000000000D+00 0.000000000000000D+00 0.000000000000000D+00
 0.618546980856760D+03 0.000000000000000D+00 0.000000000000000D+00 0.618546980856760D+03
 0.614689022162244D+03 0.000000000000000D+00 0.000000000000000D+00 -.614689022162244D+03
 0.251915195729283D+03 -.322015943543218D+02 -.102463049116876D+03 0.213209828037230D+03
 0.363423756513870D+03 0.136417833693483D+03 0.331725740960191D+02 -.335211249478405D+03
 0.216392754894290D+03 0.109405430533206D+03 -.427678281130606D+02 -.181733841149841D+03
 0.393312817057549D+03 -.212000469212108D+03 0.105016415002542D+03 0.303735262591017D+03
 0.819147882401160D+01 -.162120066025875D+01 0.704188813137600D+01 0.385795869451616D+01
0.531595184886D-04 0.000000000000D+00 0.000000000000D+00 0.200982538697D-05 0.000000000000D+00  7 2 -2 24 -11 11 -24 21 0 0.37353426D+00 0.23772316D-01 0.10292014D+06 0.10292014D+06 0.10292014D+06 0.11206977D+01  1  2  2  1  7  1        2 0.415762623927D-03 0.100000000000D+01
-.145150010559D-05 0.000000000000D+00 -.204146548219D-06 0.200982538697D-05 0.000000000000D+00  7 2 -2 24 -11 11 -24 21 2 0.37353426D+00 0.23772316D-01 0.10292014D+06 0.10292014D+06 0.10292014D+06 0.11206977D+01  1  2  3  1  7  1        2 -.142579940000D-04 0.100000000000D+01
0.317819248995D-05 0.000000000000D+00 0.000000000000D+00 0.200982538697D-05 0.000000000000D+00  7 2 -2 24 -11 11 -24 21 2 0.37353426D+00 0.23772316D-01 0.10292014D+06 0.10292014D+06 0.10292014D+06 0.11206977D+01  1  2 15  1  7  1        2 0.312191843995D-04 0.100000000000D+01
0.207027738089D-04 0.000000000000D+00 0.000000000000D+00 0.200982538697D-05 0.000000000000D+00  7 2 -2 24 -11 11 -24 21 2 0.37787434D+00 0.23772316D-01 0.10534608D+06 0.10534608D+06 0.10534608D+06 0.11198707D+01  1  2 12  1  7  1        2 0.195527254869D-03 0.100000000000D+01
-.455793481821D-04 0.000000000000D+00 0.000000000000D+00 0.200982538697D-05 0.000000000000D+00  7 2 -2 24 -11 11 -24 21 2 0.37353426D+00 0.23772316D-01 0.10292014D+06 0.10292014D+06 0.10292014D+06 0.11206977D+01  1  2  4  1  7  1        2 -.447723062781D-03 0.100000000000D+01
-.382695065261D-02 0.000000000000D+00 -.430394251656D-03 0.200982538697D-05 0.000000000000D+00  7 2 -2 24 -11 11 -24 21 2 0.37771373D+00 0.23772316D-01 0.10292014D+06 0.10292014D+06 0.10292014D+06 0.11206977D+01  1  2  5  1  7  1        2 -.362877307960D-01 0.100000000000D+01
0.383152903413D-02 0.000000000000D+00 0.430367610228D-03 0.200982538697D-05 0.000000000000D+00  7 2 -2 24 -11 11 -24 21 2 0.37353426D+00 0.23772316D-01 0.10292014D+06 0.10292014D+06 0.10292014D+06 0.11206977D+01  1  2  6  1  7  1        2 0.376368680711D-01 0.100000000000D+01
0.254630912487D-04 0.000000000000D+00 0.000000000000D+00 0.200982538697D-05 0.257456534750D-06  7 2 -2 24 -11 11 -24 21 2 0.37721488D+00 0.23856824D-01 0.10534608D+06 0.10534608D+06 0.10534608D+06 0.11198707D+01  1  2 11  1  7  1        2 0.240383028663D-03 0.100000000000D+01
0.192841923079D-05 0.000000000000D+00 0.000000000000D+00 0.200982538697D-05 0.000000000000D+00  7 21 -2 24 -11 11 -24 -2 2 0.37787434D+00 0.23772316D-01 0.10534608D+06 0.10534608D+06 0.10534608D+06 0.11198707D+01  1  2 12  3  7  1        2 0.236732595264D-05 0.100000000000D+01
-.783277930813D-05 0.000000000000D+00 -.883121981083D-06 0.200982538697D-05 0.000000000000D+00  7 21 -2 24 -11 11 -24 -2 2 0.37771373D+00 0.23772316D-01 0.10292014D+06 0.10292014D+06 0.10292014D+06 0.11206977D+01  1  2  5  3  7  1        2 -.967792440824D-05 0.100000000000D+01
0.563705075633D-07 0.000000000000D+00 0.000000000000D+00 0.200982538697D-05 0.468057640534D-09  7 21 -2 24 -11 11 -24 -2 2 0.37721488D+00 0.23856824D-01 0.10534608D+06 0.10534608D+06 0.10534608D+06 0.11198707D+01  1  2 11  3  7  1        2 0.694841709065D-07 0.100000000000D+01
  </mgrwgt>
  </event>
  <event>
  8     66 0.26993063E-05 0.23777645E+03 0.75467711E-02 0.94761029E-01
        2 -1    0    0  501    0 0.00000000E+00 0.00000000E+00 0.17443571E+04 0.17443572E+04 0.32000000E+00 0.0000E+00 0.9000E+01
       -2 -1    0    0    0  501 0.00000000E+00 0.00000000E+00 -.23809310E+03 0.23809332E+03 0.32000000E+00 0.0000E+00 0.9000E+01
       25  2    1    2    0    0 0.44377075E+02 -.32258181E+03 0.57718549E+01 0.44279431E+03 0.30000856E+03 0.0000E+00 0.0000E+00
       23  2    1    2    0    0 -.44377075E+02 0.32258181E+03 0.15004922E+04 0.15396562E+04 0.11417528E+03 0.0000E+00 0.0000E+00
       24  1    3    3    0    0 0.13561850E+03 -.23716238E+03 0.46805677E+02 0.28861109E+03 0.80419002E+02 0.0000E+00 0.9000E+01
      -11  1    4    4    0    0 0.10313848E+02 0.24427963E+02 0.31168602E+03 0.31281189E+03 0.51099893E-03 0.0000E+00 0.9000E+01
       11  1    4    4    0    0 -.54690923E+02 0.29815385E+03 0.11888062E+04 0.12268443E+04 0.51099893E-03 0.0000E+00 0.9000E+01
      -24  1    3    3    0    0 -.91241420E+02 -.85419433E+02 -.41033822E+02 0.15418322E+03 0.80419002E+02 0.0000E+00 0.9000E+01
#aMCatNLO 1  0  0  1  2 0.20197332D+03 0.00000000D+00  -5  7  0 0.00000000D+00 0.00000000D+00 0.00000000D+00 0.00000000D+00 0.00000000D+00
  <mgrwgt>
 0.1256111143D-02    9    2    0
 0.644452979665630D+03 0.000000000000000D+00 0.000000000000000D+00 0.644452979665630D+03
 0.644452979665630D+03 0.000000000000000D+00 0.000000000000000D+00 -.644452979665630D+03
 0.389210302176956D+03 0.135618495347588D+03 -.237162380656823D+03 -.265290543154390D+03
 0.116884115654306D+03 0.103138480649920D+02 0.244279631897757D+02 0.113836706052048D+03
 0.497710540714419D+03 -.546909230653722D+02 0.298153850332304D+03 0.394751778722427D+03
 0.285101000785578D+03 -.912414203472075D+02 -.854194328652565D+02 -.243297941620084D+03
 0.000000000000000D+00 0.000000000000000D+00 0.000000000000000D+00 0.000000000000000D+00
 0.797683668246381D+03 0.000000000000000D+00 0.000000000000000D+00 0.797683668246381D+03
 0.722473277744583D+03 0.000000000000000D+00 0.000000000000000D+00 -.722473277744583D+03
 0.388763845000183D+03 0.797637000125798D+02 -.260631523607770D+03 -.265290543154390D+03
 0.115337641011370D+03 -.635855517354897D+01 0.174225303957912D+02 0.113836706052048D+03
 0.493586634912746D+03 -.125861284010824D+03 0.268249392445007D+03 0.394751778722427D+03
 0.306946614346106D+03 -.133747586511917D+03 -.103279730876071D+03 -.243297941620084D+03
 0.215522210720560D+03 0.186203725683710D+03 0.782393316430433D+02 0.752103905017976D+02
0.126512050181D-03 0.000000000000D+00 0.000000000000D+00 0.534297906489D-07 0.000000000000D+00  7 2 -2 24 -11 11 -24 21 0 0.26836266D+00 0.36629727D-01 0.14556419D+06 0.14556419D+06 0.14556419D+06 0.11085821D+01  1  2  2  1  7  1        2 0.107548825767D-02 0.100000000000D+01
-.468010792946D-05 0.000000000000D+00 -.485839584085D-06 0.534297906489D-07 0.000000000000D+00  7 2 -2 24 -11 11 -24 21 2 0.26836266D+00 0.36629727D-01 0.14556419D+06 0.14556419D+06 0.14556419D+06 0.11085821D+01  1  2  3  1  7  1        2 -.488951081041D-04 0.100000000000D+01
0.772280179466D-05 0.000000000000D+00 0.000000000000D+00 0.534297906489D-07 0.000000000000D+00  7 2 -2 24 -11 11 -24 21 2 0.26836266D+00 0.36629727D-01 0.14556419D+06 0.14556419D+06 0.14556419D+06 0.11085821D+01  1  2 15  1  7  1        2 0.806834445503D-04 0.100000000000D+01
0.525053928585D-04 0.000000000000D+00 0.000000000000D+00 0.534297906489D-07 0.000000000000D+00  7 2 -2 24 -11 11 -24 21 2 0.34534697D+00 0.36629727D-01 0.24411062D+06 0.24411062D+06 0.24411062D+06 0.10912388D+01  1  2 12  1  7  1        2 0.276623541703D-03 0.100000000000D+01
-.907041726811D-04 0.000000000000D+00 0.000000000000D+00 0.534297906489D-07 0.000000000000D+00  7 2 -2 24 -11 11 -24 21 2 0.26836266D+00 0.36629727D-01 0.14556419D+06 0.14556419D+06 0.14556419D+06 0.11085821D+01  1  2  4  1  7  1        2 -.947625652138D-03 0.100000000000D+01
-.137481753511D-03 0.000000000000D+00 -.591371169871D-04 0.534297906489D-07 0.000000000000D+00  7 2 -2 24 -11 11 -24 21 2 0.34926116D+00 0.36629727D-01 0.14556419D+06 0.14556419D+06 0.14556419D+06 0.11085821D+01  1  2  5  1  7  1        2 -.743781971011D-03 0.100000000000D+01
0.149827385779D-03 0.000000000000D+00 0.571421525180D-04 0.534297906489D-07 0.000000000000D+00  7 2 -2 24 -11 11 -24 21 2 0.26836266D+00 0.36629727D-01 0.14556419D+06 0.14556419D+06 0.14556419D+06 0.11085821D+01  1  2  6  1  7  1        2 0.156531138491D-02 0.100000000000D+01
0.178852129014D-05 0.000000000000D+00 0.000000000000D+00 0.534297906489D-07 0.000000000000D+00  7 21 -2 24 -11 11 -24 -2 2 0.34534697D+00 0.36629727D-01 0.24411062D+06 0.24411062D+06 0.24411062D+06 0.10912388D+01  1  2 12  3  7  1        2 0.145727815384D-05 0.100000000000D+01
-.375643604707D-05 0.000000000000D+00 -.208014780237D-05 0.534297906489D-07 0.000000000000D+00  7 21 -2 24 -11 11 -24 -2 2 0.34926116D+00 0.36629727D-01 0.14556419D+06 0.14556419D+06 0.14556419D+06 0.11085821D+01  1  2  5  3  7  1        2 -.315003274936D-05 0.100000000000D+01
  </mgrwgt>
  </event>
  <event>
  8     66 0.26993063E-05 0.21315755E+03 0.75467711E-02 0.97152195E-01
        2 -1    0    0  501    0 0.00000000E+00 0.00000000E+00 0.15648118E+04 0.15648119E+04 0.32000000E+00 0.0000E+00 0.9000E+01
       -2 -1    0    0    0  501 0.00000000E+00 0.00000000E+00 -.96364336E+02 0.96364867E+02 0.32000000E+00 0.0000E+00 0.9000E+01
       25  2    1    2    0    0 0.18612137E+03 0.21072999E+03 0.49054366E+03 0.63961682E+03 0.29904565E+03 0.0000E+00 0.0000E+00
       23  2    1    2    0    0 -.18612137E+03 -.21072999E+03 0.97790384E+03 0.10215599E+04 0.90776940E+02 0.0000E+00 0.0000E+00
       24  1    3    3    0    0 0.18859469E+03 0.55606942E+02 0.16078839E+03 0.26642112E+03 0.80419002E+02 0.0000E+00 0.9000E+01
      -13  1    4    4    0    0 -.10643904E+03 -.11535902E+03 0.69596962E+03 0.71344985E+03 0.10565837E+00 0.0000E+00 0.9000E+01
       13  1    4    4    0    0 -.79682323E+02 -.95370968E+02 0.28193422E+03 0.30811006E+03 0.10565837E+00 0.0000E+00 0.9000E+01
      -24  1    3    3    0    0 -.24733266E+01 0.15512304E+03 0.32975527E+03 0.37319570E+03 0.80419002E+02 0.0000E+00 0.9000E+01
#aMCatNLO 1  0  0  2  1 0.12251119D+03 0.00000000D+00  -5  7  0 0.00000000D+00 0.00000000D+00 0.00000000D+00 0.00000000D+00 0.00000000D+00
  <mgrwgt>
 0.7392713547D-03    9    2    0
 0.388320127553915D+03 0.000000000000000D+00 0.000000000000000D+00 0.388320127553915D+03
 0.388320127553915D+03 0.000000000000000D+00 0.000000000000000D+00 -.388320127553915D+03
 0.265841558661091D+03 0.188594693984920D+03 0.556069420081352D+02 -.159826242395379D+03
 0.210099257959305D+03 -.106439080215260D+03 -.115359044894643D+03 0.139659268074037D+03
 0.125952235759723D+03 -.796822871877326D+02 -.953709412615012D+02 0.204715012712739D+02
 0.174747202727711D+03 -.247332658192744D+01 0.155123044148009D+03 -.304526949931912D+00
 0.000000000000000D+00 -.000000000000000D+00 0.000000000000000D+00 -.000000000000000D+00
 0.411600627887974D+03 0.000000000000000D+00 0.000000000000000D+00 0.411600627887974D+03
 0.596178711335343D+03 0.000000000000000D+00 0.000000000000000D+00 -.596178711335343D+03
 0.290498000381160D+03 0.226353513215049D+03 0.337865589851980D+02 -.159826242395379D+03
 0.207264831304631D+03 -.781125394479732D+02 -.131728623760177D+03 0.139659268074037D+03
 0.124154118415610D+03 -.627075449424200D+02 -.105180447624793D+03 0.204715012712739D+02
 0.164326700592788D+03 0.205396517566501D+02 0.141824111287163D+03 -.304526949931912D+00
 0.221535688529127D+03 -.106073080581306D+03 0.612984011126093D+02 -.184578083447369D+03
0.140822242676D-04 0.000000000000D+00 0.000000000000D+00 0.719801458644D-06 0.000000000000D+00  7 2 -2 24 -13 13 -24 21 0 0.24074033D+00 0.14825326D-01 0.11169566D+06 0.11169566D+06 0.11169566D+06 0.11178013D+01  1  2  2  2  7  2       -2 0.701480384121D-03 0.100000000000D+01
-.760925249450D-06 0.000000000000D+00 -.540794491225D-07 0.719801458644D-06 0.000000000000D+00  7 2 -2 24 -13 13 -24 21 2 0.24074033D+00 0.14825326D-01 0.11169566D+06 0.11169566D+06 0.11169566D+06 0.11178013D+01  1  2  3  2  7  2       -2 -.473604139202D-04 0.100000000000D+01
0.901293618425D-06 0.000000000000D+00 0.000000000000D+00 0.719801458644D-06 0.000000000000D+00  7 2 -2 24 -13 13 -24 21 2 0.24074033D+00 0.14825326D-01 0.11169566D+06 0.11169566D+06 0.11169566D+06 0.11178013D+01  1  2 15  2  7  2       -2 0.560970198625D-04 0.100000000000D+01
0.192291814405D-04 0.000000000000D+00 0.000000000000D+00 0.719801458644D-06 0.000000000000D+00  7 2 -2 24 -13 13 -24 21 2 0.24074033D+00 0.23012069D-01 0.16201370D+06 0.16201370D+06 0.16201370D+06 0.11049210D+01  1  2 12  2  7  2       -2 0.562495384067D-03 0.100000000000D+01
-.215114970146D-04 0.000000000000D+00 0.000000000000D+00 0.719801458644D-06 0.000000000000D+00  7 2 -2 24 -13 13 -24 21 2 0.24074033D+00 0.14825326D-01 0.11169566D+06 0.11169566D+06 0.11169566D+06 0.11178013D+01  1  2  4  2  7  2       -2 -.133888762844D-02 0.100000000000D+01
-.240351564485D-04 0.000000000000D+00 -.518981814413D-05 0.719801458644D-06 0.000000000000D+00  7 2 -2 24 -13 13 -24 21 2 0.24074033D+00 0.24023355D-01 0.11169566D+06 0.11169566D+06 0.11169566D+06 0.11178013D+01  1  2  5  2  7  2       -2 -.676236379052D-03 0.100000000000D+01
0.242150782254D-04 0.000000000000D+00 0.463884372540D-05 0.719801458644D-06 0.000000000000D+00  7 2 -2 24 -13 13 -24 21 2 0.24074033D+00 0.14825326D-01 0.11169566D+06 0.11169566D+06 0.11169566D+06 0.11178013D+01  1  2  6  2  7  2       -2 0.150716003799D-02 0.100000000000D+01
0.981893351696D-06 0.000000000000D+00 0.000000000000D+00 0.719801458644D-06 0.000000000000D+00  7 2 21 24 -13 13 -24 2 2 0.24074033D+00 0.23012069D-01 0.16201370D+06 0.16201370D+06 0.16201370D+06 0.11049210D+01  1  2 12  4  7  2       -2 0.354553955525D-03 0.100000000000D+01
-.109335438590D-05 0.000000000000D+00 -.284623249000D-06 0.719801458644D-06 0.000000000000D+00  7 2 21 24 -13 13 -24 2 2 0.24074033D+00 0.24023355D-01 0.11169566D+06 0.11169566D+06 0.11169566D+06 0.11178013D+01  1  2  5  4  7  2       -2 -.380031005445D-03 0.100000000000D+01
  </mgrwgt>
  </event>
  <event>
  8     66 0.26993063E-05 0.16884504E+03 0.75467711E-02 0.99385022E-01
        2 -1    0    0  501    0 0.00000000E+00 0.00000000E+00 0.74468182E+03 0.74468189E+03 0.32000000E+00 0.0000E+00 0.9000E+01
       -2 -1    0    0    0  501 0.00000000E+00 0.00000000E+00 -.12811848E+03 0.12811888E+03 0.32000000E+00 0.0000E+00 0.9000E+01
       25  2    1    2    0    0 0.14876842E+03 -.15227872E+03 0.25803093E+03 0.44592969E+03 0.29487706E+03 0.0000E+00 0.0000E+00
       23  2    1    2    0    0 -.14876842E+03 0.15227872E+03 0.35853241E+03 0.42687108E+03 0.91392429E+02 0.0000E+00 0.0000E+00
       24  1    3    3    0    0 0.19124666E+03 -.17332083E+03 0.19283644E+03 0.33206701E+03 0.80419002E+02 0.0000E+00 0.9000E+01
      -11  1    4    4    0    0 -.51611044E+02 0.63931804E+02 0.22523528E+03 0.23975385E+03 0.51099893E-03 0.0000E+00 0.9000E+01
       11  1    4    4    0    0 -.97157373E+02 0.88346918E+02 0.13329713E+03 0.18711723E+03 0.51099893E-03 0.0000E+00 0.9000E+01
      -24  1    3    3    0    0 -.42478245E+02 0.21042106E+02 0.65194497E+02 0.11386268E+03 0.80419002E+02 0.0000E+00 0.9000E+01
#aMCatNLO 1  0  0  2  1 0.84564575D+02 0.00000000D+00  -5  7  0 0.00000000D+00 0.00000000D+00 0.00000000D+00 0.00000000D+00 0.00000000D+00
  <mgrwgt>
 0.2395085057D-02    9    2    0
 0.308881380951246D+03 0.000000000000000D+00 0.000000000000000D+00 0.308881380951246D+03
 0.308881380951246D+03 0.000000000000000D+00 0.000000000000000D+00 -.308881380951246D+03
 0.276695973001334D+03 0.191246661474170D+03 -.173320828021912D+03 -.589749995300322D+02
 0.113936172766589D+03 -.516110439221920D+02 0.639318038460971D+02 0.789333647258487D+02
 0.131328632783255D+03 -.971573729769329D+02 0.883469180743162D+02 0.157376354963649D+01
 0.958019833513139D+02 -.424782445750455D+02 0.210421061014990D+02 -.215321287454530D+02
 0.000000000000000D+00 0.000000000000000D+00 -.000000000000000D+00 -.000000000000000D+00
 0.349379781582643D+03 0.000000000000000D+00 0.000000000000000D+00 0.349379781582643D+03
 0.359287015076556D+03 0.000000000000000D+00 0.000000000000000D+00 -.359287015076556D+03
 0.244116417517946D+03 0.167423679974772D+03 -.147026766820070D+03 -.589749995300322D+02
 0.126227811636862D+03 -.625966161962321D+02 0.760568734860235D+02 0.789333647258487D+02
 0.150445424063672D+03 -.110046271677253D+03 0.102572739945484D+03 0.157376354963649D+01
 0.102734201413374D+03 -.515596795460807D+02 0.310655285238767D+02 -.215321287454530D+02
 0.851429420273463D+02 0.567788874447939D+02 -.626683751353150D+02 -.990723349391340D+01
0.172363311028D-04 0.000000000000D+00 0.000000000000D+00 0.175258277153D-07 0.000000000000D+00  7 2 -2 24 -11 11 -24 21 0 0.11456647D+00 0.19710571D-01 0.83281984D+05 0.83281984D+05 0.83281984D+05 0.11283006D+01  1  2  2  2  7  2       -2 0.165564537290D-02 0.100000000000D+01
-.952196132745D-06 0.000000000000D+00 -.661920498648D-07 0.175258277153D-07 0.000000000000D+00  7 2 -2 24 -11 11 -24 21 2 0.11456647D+00 0.19710571D-01 0.83281984D+05 0.83281984D+05 0.83281984D+05 0.11283006D+01  1  2  3  2  7  2       -2 -.116439029420D-03 0.100000000000D+01
0.112984893952D-05 0.000000000000D+00 0.000000000000D+00 0.175258277153D-07 0.000000000000D+00  7 2 -2 24 -11 11 -24 21 2 0.11456647D+00 0.19710571D-01 0.83281984D+05 0.83281984D+05 0.83281984D+05 0.11283006D+01  1  2 15  2  7  2       -2 0.138163251650D-03 0.100000000000D+01
0.114947557469D-04 0.000000000000D+00 0.000000000000D+00 0.175258277153D-07 0.000000000000D+00  7 2 -2 24 -11 11 -24 21 2 0.11456647D+00 0.24034728D-01 0.11250774D+06 0.11250774D+06 0.11250774D+06 0.11175460D+01  1  2 12  2  7  2       -2 0.988268403187D-03 0.100000000000D+01
-.106024806289D-04 0.000000000000D+00 0.000000000000D+00 0.175258277153D-07 0.000000000000D+00  7 2 -2 24 -11 11 -24 21 2 0.11456647D+00 0.19710571D-01 0.83281984D+05 0.83281984D+05 0.83281984D+05 0.11283006D+01  1  2  4  2  7  2       -2 -.129652128529D-02 0.100000000000D+01
-.268979060229D-04 0.000000000000D+00 -.943507426841D-05 0.175258277153D-07 0.000000000000D+00  7 2 -2 24 -11 11 -24 21 2 0.11456647D+00 0.25859036D-01 0.83281984D+05 0.83281984D+05 0.83281984D+05 0.11283006D+01  1  2  5  2  7  2       -2 -.208612014259D-02 0.100000000000D+01
0.287314678992D-04 0.000000000000D+00 0.909769144437D-05 0.175258277153D-07 0.000000000000D+00  7 2 -2 24 -11 11 -24 21 2 0.11456647D+00 0.19710571D-01 0.83281984D+05 0.83281984D+05 0.83281984D+05 0.11283006D+01  1  2  6  2  7  2       -2 0.351341926410D-02 0.100000000000D+01
0.326851565242D-06 0.000000000000D+00 0.000000000000D+00 0.175258277153D-07 0.000000000000D+00  7 2 21 24 -11 11 -24 2 2 0.11456647D+00 0.24034728D-01 0.11250774D+06 0.11250774D+06 0.11250774D+06 0.11175460D+01  1  2 12  4  7  2       -2 0.347067510195D-03 0.100000000000D+01
-.786363849920D-06 0.000000000000D+00 -.339235289383D-06 0.175258277153D-07 0.000000000000D+00  7 2 21 24 -11 11 -24 2 2 0.11456647D+00 0.25859036D-01 0.83281984D+05 0.83281984D+05 0.83281984D+05 0.11283006D+01  1  2  5  4  7  2       -2 -.748398287908D-03 0.100000000000D+01
  </mgrwgt>
  </event>
  <event>
  8     66 0.26993063E-05 0.14849812E+03 0.75467711E-02 0.10116762E+00
        2 -1    0    0  501    0 0.00000000E+00 0.00000000E+00 0.39549993E+04 0.39549993E+04 0.32000000E+00 0.0000E+00 0.9000E+01
       -2 -1    0    0    0  501 0.00000000E+00 0.00000000E+00 -.34630333E+02 0.34631811E+02 0.32000000E+00 0.0000E+00 0.9000E+01
       25  2    1    2    0    0 -.16631436E+03 -.72990080E+02 0.35482386E+04 0.35655786E+04 0.30060955E+03 0.0000E+00 0.0000E+00
       23  2    1    2    0    0 0.16631436E+03 0.72990080E+02 0.37213036E+03 0.42405245E+03 0.91386282E+02 0.0000E+00 0.0000E+00
       24  1    3    3    0    0 -.26966453E+01 0.77673266E+02 0.13621184E+04 0.13667019E+04 0.80419002E+02 0.0000E+00 0.9000E+01
      -13  1    4    4    0    0 0.14432480E+03 0.38880760E+02 0.21558628E+03 0.26233341E+03 0.10565837E+00 0.0000E+00 0.9000E+01
       13  1    4    4    0    0 0.21989558E+02 0.34109321E+02 0.15654408E+03 0.16171904E+03 0.10565837E+00 0.0000E+00 0.9000E+01
      -24  1    3    3    0    0 -.16361771E+03 -.15066335E+03 0.21861202E+04 0.21988767E+04 0.80419002E+02 0.0000E+00 0.9000E+01
#aMCatNLO 1  0  0  1  2 0.45383493D+02 0.00000000D+00  -5  7  0 0.00000000D+00 0.00000000D+00 0.00000000D+00 0.00000000D+00 0.00000000D+00
  <mgrwgt>
 0.1752771715D-02    9    2    0
 0.370089064191641D+03 0.000000000000000D+00 0.000000000000000D+00 0.370089064191641D+03
 0.370089064191641D+03 0.000000000000000D+00 0.000000000000000D+00 -.370089064191641D+03
 0.152165860712244D+03 -.269664531894659D+01 0.776732654938977D+02 0.103183453826017D+03
 0.272145286809842D+03 0.144324962632449D+03 0.388807662327725D+02 -.227423939617415D+03
 0.425418111035171D+02 0.219893949613992D+02 0.341093140009160D+02 -.127603643986306D+02
 0.273325169757679D+03 -.163617712274902D+03 -.150663345727586D+03 0.137000850190029D+03
 0.000000000000000D+00 -.000000000000000D+00 0.000000000000000D+00 0.000000000000000D+00
 0.402806254931157D+03 0.000000000000000D+00 0.000000000000000D+00 0.402806254931157D+03
 0.386864035776267D+03 0.000000000000000D+00 0.000000000000000D+00 -.386864035776267D+03
 0.147686763468003D+03 -.250988918388711D+01 0.684911633869820D+02 0.103183453826017D+03
 0.270452858222569D+03 0.144662907090110D+03 0.222652986031954D+02 -.227423939617415D+03
 0.405581639147129D+02 0.220411518209577D+02 0.315646223952129D+02 -.127603643986306D+02
 0.282870365807716D+03 -.163271299003237D+03 -.167695193332502D+03 0.137000850190029D+03
 0.481021392944225D+02 -.922870723943276D+00 0.453741089471118D+02 0.159422191548902D+02
0.844110776673D-04 0.000000000000D+00 0.000000000000D+00 0.203467329216D-05 0.000000000000D+00  7 2 -2 24 -13 13 -24 21 0 0.60846154D+00 0.53278582D-02 0.72469131D+05 0.72469131D+05 0.72469131D+05 0.11333820D+01  1  2  2  1  7  1        2 0.691775737773D-03 0.100000000000D+01
-.411188366921D-05 0.000000000000D+00 -.324160764190D-06 0.203467329216D-05 0.000000000000D+00  7 2 -2 24 -13 13 -24 21 2 0.60846154D+00 0.53278582D-02 0.72469131D+05 0.72469131D+05 0.72469131D+05 0.11333820D+01  1  2  3  1  7  1        2 -.432871838287D-04 0.100000000000D+01
0.528255484875D-05 0.000000000000D+00 0.000000000000D+00 0.203467329216D-05 0.000000000000D+00  7 2 -2 24 -13 13 -24 21 2 0.60846154D+00 0.53278582D-02 0.72469131D+05 0.72469131D+05 0.72469131D+05 0.11333820D+01  1  2 15  1  7  1        2 0.556112334927D-04 0.100000000000D+01
0.911341747229D-04 0.000000000000D+00 0.000000000000D+00 0.203467329216D-05 0.000000000000D+00  7 2 -2 24 -13 13 -24 21 2 0.67509720D+00 0.53278582D-02 0.85086246D+05 0.85086246D+05 0.85086246D+05 0.11275237D+01  1  2 12  1  7  1        2 0.398403566747D-03 0.100000000000D+01
-.857296478498D-04 0.000000000000D+00 0.000000000000D+00 0.203467329216D-05 0.000000000000D+00  7 2 -2 24 -13 13 -24 21 2 0.60846154D+00 0.53278582D-02 0.72469131D+05 0.72469131D+05 0.72469131D+05 0.11333820D+01  1  2  4  1  7  1        2 -.902504867498D-03 0.100000000000D+01
-.260764061394D-03 0.000000000000D+00 -.535008937986D-04 0.203467329216D-05 0.000000000000D+00  7 2 -2 24 -13 13 -24 21 2 0.66769714D+00 0.53278582D-02 0.72469131D+05 0.72469131D+05 0.72469131D+05 0.11333820D+01  1  2  5  1  7  1        2 -.128951246409D-02 0.100000000000D+01
0.270007754917D-03 0.000000000000D+00 0.562223338362D-04 0.203467329216D-05 0.000000000000D+00  7 2 -2 24 -13 13 -24 21 2 0.60846154D+00 0.53278582D-02 0.72469131D+05 0.72469131D+05 0.72469131D+05 0.11333820D+01  1  2  6  1  7  1        2 0.284246254577D-02 0.100000000000D+01
0.153012366900D-05 0.000000000000D+00 0.000000000000D+00 0.203467329216D-05 0.000000000000D+00  7 21 -2 24 -13 13 -24 -2 2 0.67509720D+00 0.53278582D-02 0.85086246D+05 0.85086246D+05 0.85086246D+05 0.11275237D+01  1  2 12  3  7  1        2 0.888247493227D-07 0.100000000000D+01
-.381939331982D-05 0.000000000000D+00 -.815163033447D-06 0.203467329216D-05 0.000000000000D+00  7 21 -2 24 -13 13 -24 -2 2 0.66769714D+00 0.53278582D-02 0.72469131D+05 0.72469131D+05 0.72469131D+05 0.11333820D+01  1  2  5  3  7  1        2 -.265678516898D-06 0.100000000000D+01
  </mgrwgt>
  </event>
  <event>
  8     66 0.26993063E-05 0.17788771E+03 0.75467711E-02 0.95538811E-01
        2 -1    0    0  501    0 0.00000000E+00 0.00000000E+00 0.27448585E+04 0.27448586E+04 0.32000000E+00 0.0000E+00 0.9000E+01
       -2 -1    0    0    0  501 0.00000000E+00 0.00000000E+00 -.79167958E+02 0.79168605E+02 0.32000000E+00 0.0000E+00 0.9000E+01
       25  2    1    2    0    0 0.23209994E+03 -.28353226E+03 0.88387332E+03 0.10027277E+04 0.29994989E+03 0.0000E+00 0.0000E+00
       23  2    1    2    0    0 -.23209994E+03 0.28353226E+03 0.17818173E+04 0.18212994E+04 0.89431196E+02 0.0000E+00 0.0000E+00
       24  1    3    3    0    0 0.21471721E+03 -.26722043E+03 0.51117282E+03 0.62070533E+03 0.80419002E+02 0.0000E+00 0.9000E+01
      -13  1    4    4    0    0 -.80223553E+02 0.16503754E+03 0.80195176E+03 0.82267846E+03 0.10565837E+00 0.0000E+00 0.9000E+01
       13  1    4    4    0    0 -.15187638E+03 0.11849472E+03 0.97986552E+03 0.99862099E+03 0.10565837E+00 0.0000E+00 0.9000E+01
      -24  1    3    3    0    0 0.17382724E+02 -.16311826E+02 0.37270050E+03 0.38202240E+03 0.80419002E+02 0.0000E+00 0.9000E+01
#aMCatNLO 1  0  0  2  1 0.10369547D+03 0.00000000D+00  -5  7  0 0.00000000D+00 0.00000000D+00 0.00000000D+00 0.00000000D+00 0.00000000D+00
  <mgrwgt>
 0.4771581863D-03    9    2    0
 0.466160686761248D+03 0.000000000000000D+00 0.000000000000000D+00 0.466160686761248D+03
 0.466160686761248D+03 0.000000000000000D+00 0.000000000000000D+00 -.466160686761248D+03
 0.418589728365480D+03 0.214717213785273D+03 -.267220434079523D+03 -.226362325605117D+03
 0.198977554884315D+03 -.802234533381199D+02 0.165037607805223D+03 0.769340814735344D+02
 0.223221897727365D+03 -.151876484345036D+03 0.118494652735466D+03 0.112785488433128D+03
 0.915321925453356D+02 0.173827238978837D+02 -.163118264611661D+02 0.366427556984545D+02
 0.000000000000000D+00 -.000000000000000D+00 0.000000000000000D+00 -.000000000000000D+00
 0.502905814564082D+03 0.000000000000000D+00 0.000000000000000D+00 0.502905814564082D+03
 0.548401410969257D+03 0.000000000000000D+00 0.000000000000000D+00 -.548401410969257D+03
 0.458749541415807D+03 0.251152671878859D+03 -.299443414937774D+03 -.226362325605117D+03
 0.181360274519280D+03 -.644282148004730D+02 0.151068532193691D+03 0.769340814735344D+02
 0.203213743441824D+03 -.134166826897120D+03 0.102832493322385D+03 0.112785488433128D+03
 0.947467443312166D+02 0.251187943464064D+02 -.231534928769016D+02 0.366427556984545D+02
 0.113236921825210D+03 -.776764245276726D+02 0.686958822985994D+02 -.454955964051750D+02
0.245125360920D-04 0.000000000000D+00 0.000000000000D+00 0.587389512925D-06 0.000000000000D+00  7 2 -2 24 -13 13 -24 21 0 0.42228598D+00 0.12179737D-01 0.16488370D+06 0.16488370D+06 0.16488370D+06 0.11043241D+01  1  2  2  2  7  2       -2 0.365489733427D-03 0.100000000000D+01
-.133026039843D-05 0.000000000000D+00 -.941345928922D-07 0.587389512925D-06 0.000000000000D+00  7 2 -2 24 -13 13 -24 21 2 0.42228598D+00 0.12179737D-01 0.16488370D+06 0.16488370D+06 0.16488370D+06 0.11043241D+01  1  2  3  2  7  2       -2 -.241889330125D-04 0.100000000000D+01
0.154929827718D-05 0.000000000000D+00 0.000000000000D+00 0.587389512925D-06 0.000000000000D+00  7 2 -2 24 -13 13 -24 21 2 0.42228598D+00 0.12179737D-01 0.16488370D+06 0.16488370D+06 0.16488370D+06 0.11043241D+01  1  2 15  2  7  2       -2 0.281718318364D-04 0.100000000000D+01
0.234162629656D-04 0.000000000000D+00 0.000000000000D+00 0.587389512925D-06 0.000000000000D+00  7 2 -2 24 -13 13 -24 21 2 0.42228598D+00 0.14743485D-01 0.21314767D+06 0.21314767D+06 0.21314767D+06 0.10957080D+01  1  2 12  2  7  2       -2 0.305612885309D-03 0.100000000000D+01
-.234304033804D-04 0.000000000000D+00 0.000000000000D+00 0.587389512925D-06 0.000000000000D+00  7 2 -2 24 -13 13 -24 21 2 0.42228598D+00 0.12179737D-01 0.16488370D+06 0.16488370D+06 0.16488370D+06 0.11043241D+01  1  2  4  2  7  2       -2 -.426049259599D-03 0.100000000000D+01
-.447634175584D-04 0.000000000000D+00 -.138473277566D-04 0.587389512925D-06 0.000000000000D+00  7 2 -2 24 -13 13 -24 21 2 0.42228598D+00 0.15852538D-01 0.16488370D+06 0.16488370D+06 0.16488370D+06 0.11043241D+01  1  2  5  2  7  2       -2 -.534310202196D-03 0.100000000000D+01
0.472304830054D-04 0.000000000000D+00 0.133799349776D-04 0.587389512925D-06 0.000000000000D+00  7 2 -2 24 -13 13 -24 21 2 0.42228598D+00 0.12179737D-01 0.16488370D+06 0.16488370D+06 0.16488370D+06 0.11043241D+01  1  2  6  2  7  2       -2 0.858820566948D-03 0.100000000000D+01
0.646820564545D-06 0.000000000000D+00 0.000000000000D+00 0.587389512925D-06 0.000000000000D+00  7 2 21 24 -13 13 -24 2 2 0.42228598D+00 0.14743485D-01 0.21314767D+06 0.21314767D+06 0.21314767D+06 0.10957080D+01  1  2 12  4  7  2       -2 0.112869247935D-03 0.100000000000D+01
-.132199762753D-05 0.000000000000D+00 -.487181522621D-06 0.587389512925D-06 0.000000000000D+00  7 2 21 24 -13 13 -24 2 2 0.42228598D+00 0.15852538D-01 0.16488370D+06 0.16488370D+06 0.16488370D+06 0.11043241D+01  1  2  5  4  7  2       -2 -.209257684381D-03 0.100000000000D+01
  </mgrwgt>
  </event>
  <event>
  8     66 0.26993063E-05 0.17426928E+03 0.75467711E-02 0.10207422E+00
        2 -1    0    0  501    0 0.00000000E+00 0.00000000E+00 0.28182437E+04 0.28182437E+04 0.32000000E+00 0.0000E+00 0.9000E+01
       -2 -1    0    0    0  501 0.00000000E+00 0.00000000E+00 -.52672840E+02 0.52673812E+02 0.32000000E+00 0.0000E+00 0.9000E+01
       25  2    1    2    0    0 0.76630908E+02 -.20477102E+03 0.24417122E+04 0.24699079E+04 0.30113592E+03 0.0000E+00 0.0000E+00
       23  2    1    2    0    0 -.76630908E+02 0.20477102E+03 0.32385859E+03 0.40100961E+03 0.90115782E+02 0.0000E+00 0.0000E+00
       24  1    3    3    0    0 -.30375427E+02 -.20875271E+02 0.14392195E+04 0.14419357E+04 0.80419002E+02 0.0000E+00 0.9000E+01
      -11  1    4    4    0    0 -.38025157E+02 0.52472216E+02 0.38826926E+02 0.75543207E+02 0.51099893E-03 0.0000E+00 0.9000E+01
       11  1    4    4    0    0 -.38605752E+02 0.15229881E+03 0.28503166E+03 0.32546640E+03 0.51099893E-03 0.0000E+00 0.9000E+01
      -24  1    3    3    0    0 0.10700633E+03 -.18389575E+03 0.10024927E+04 0.10279722E+04 0.80419002E+02 0.0000E+00 0.9000E+01
#aMCatNLO 1  0  0  1  2 0.64194081D+01 0.00000000D+00  -5  7  0 0.00000000D+00 0.00000000D+00 0.00000000D+00 0.00000000D+00 0.00000000D+00
  <mgrwgt>
 0.2061349768D-02   11    2    0
 0.385287317971992D+03 0.000000000000000D+00 0.000000000000000D+00 0.385287317971992D+03
 0.385287317971992D+03 0.000000000000000D+00 0.000000000000000D+00 -.385287317971992D+03
 0.206877863726521D+03 -.303754265271210D+02 -.208752708461430D+02 0.187010136292325D+03
 0.142101357520015D+03 -.380251566371755D+02 0.524722160823233D+02 -.126465607226468D+03
 0.189614259552660D+03 -.386057517300034D+02 0.152298807149378D+03 -.106151950994512D+03
 0.231981155144789D+03 0.107006334894300D+03 -.183895752385559D+03 0.456074219286549D+02
 0.000000000000000D+00 0.000000000000000D+00 0.000000000000000D+00 0.000000000000000D+00
 0.404417965556129D+03 0.000000000000000D+00 0.000000000000000D+00 0.404417965556129D+03
 0.385839581949787D+03 0.000000000000000D+00 0.000000000000000D+00 -.385839581949787D+03
 0.207183942530381D+03 -.315356150007320D+02 -.221513881847939D+02 0.187010136292325D+03
 0.141995943713364D+03 -.388211885563100D+02 0.515966427102097D+02 -.126465607226468D+03
 0.188898416509227D+03 -.396663326318077D+02 0.151132250414314D+03 -.106151950994512D+03
 0.232523071733569D+03 0.105704808306181D+03 -.185327330688215D+03 0.456074219286549D+02
 0.196561730193750D+02 0.431832788266867D+01 0.474982574848483D+01 0.185783836063422D+02
0.169355923883D-04 0.000000000000D+00 0.000000000000D+00 0.321428273127D-06 0.000000000000D+00  7 2 -2 24 -11 11 -24 21 0 0.43357602D+00 0.81035900D-02 0.72316294D+05 0.72316294D+05 0.72316294D+05 0.11334597D+01  1  2  2  1  7  1        2 0.442654635250D-03 0.100000000000D+01
-.792949526764D-06 0.000000000000D+00 -.650371340150D-07 0.321428273127D-06 0.000000000000D+00  7 2 -2 24 -11 11 -24 21 2 0.43357602D+00 0.81035900D-02 0.72316294D+05 0.72316294D+05 0.72316294D+05 0.11334597D+01  1  2  3  1  7  1        2 -.266270057404D-04 0.100000000000D+01
0.107818843984D-05 0.000000000000D+00 0.000000000000D+00 0.321428273127D-06 0.000000000000D+00  7 2 -2 24 -11 11 -24 21 2 0.43357602D+00 0.81035900D-02 0.72316294D+05 0.72316294D+05 0.72316294D+05 0.11334597D+01  1  2 15  1  7  1        2 0.362052423360D-04 0.100000000000D+01
0.212442923576D-03 0.000000000000D+00 0.000000000000D+00 0.321428273127D-06 0.000000000000D+00  7 2 -2 24 -11 11 -24 21 2 0.45540661D+00 0.81035900D-02 0.74099146D+05 0.74099146D+05 0.74099146D+05 0.11325646D+01  1  2 12  1  7  1        2 0.583802905097D-02 0.100000000000D+01
-.275016803737D-03 0.000000000000D+00 0.000000000000D+00 0.321428273127D-06 0.000000000000D+00  7 2 -2 24 -11 11 -24 21 2 0.43357602D+00 0.81035900D-02 0.72316294D+05 0.72316294D+05 0.72316294D+05 0.11334597D+01  1  2  4  1  7  1        2 -.923498124993D-02 0.100000000000D+01
-.552325130677D-03 0.000000000000D+00 -.288080908861D-04 0.321428273127D-06 0.000000000000D+00  7 2 -2 24 -11 11 -24 21 2 0.45528019D+00 0.81035900D-02 0.72316294D+05 0.72316294D+05 0.72316294D+05 0.11334597D+01  1  2  5  1  7  1        2 -.152342606602D-01 0.100000000000D+01
0.553106654711D-03 0.000000000000D+00 0.287737581042D-04 0.321428273127D-06 0.000000000000D+00  7 2 -2 24 -11 11 -24 21 2 0.43357602D+00 0.81035900D-02 0.72316294D+05 0.72316294D+05 0.72316294D+05 0.11334597D+01  1  2  6  1  7  1        2 0.185731544984D-01 0.100000000000D+01
0.607114720028D-04 0.000000000000D+00 0.000000000000D+00 0.321428273127D-06 0.534309190451D-07  7 2 -2 24 -11 11 -24 21 2 0.45510435D+00 0.81152055D-02 0.74099146D+05 0.74099146D+05 0.74099146D+05 0.11325646D+01  1  2 11  1  7  1        2 0.166939857524D-02 0.100000000000D+01
0.384544489130D-05 0.000000000000D+00 0.000000000000D+00 0.321428273127D-06 0.000000000000D+00  7 21 -2 24 -11 11 -24 -2 2 0.45540661D+00 0.81035900D-02 0.74099146D+05 0.74099146D+05 0.74099146D+05 0.11325646D+01  1  2 12  3  7  1        2 0.805887916202D-05 0.100000000000D+01
-.538938667075D-05 0.000000000000D+00 -.245547619457D-06 0.321428273127D-06 0.000000000000D+00  7 21 -2 24 -11 11 -24 -2 2 0.45528019D+00 0.81035900D-02 0.72316294D+05 0.72316294D+05 0.72316294D+05 0.11334597D+01  1  2  5  3  7  1        2 -.113645124839D-04 0.100000000000D+01
0.514930477129D-06 0.000000000000D+00 0.000000000000D+00 0.321428273127D-06 0.450889799899D-09  7 21 -2 24 -11 11 -24 -2 2 0.45510435D+00 0.81152055D-02 0.74099146D+05 0.74099146D+05 0.74099146D+05 0.11325646D+01  1  2 11  3  7  1        2 0.108231492520D-05 0.100000000000D+01
  </mgrwgt>
  </event>
  <event>
  8     66 0.26993063E-05 0.31338569E+03 0.75467711E-02 0.89630427E-01
        2 -1    0    0  501    0 0.00000000E+00 0.00000000E+00 0.58061872E+03 0.58061881E+03 0.32000000E+00 0.0000E+00 0.9000E+01
       -2 -1    0    0    0  501 0.00000000E+00 0.00000000E+00 -.17733547E+03 0.17733576E+03 0.32000000E+00 0.0000E+00 0.9000E+01
       25  2    1    2    0    0 0.10031588E+02 -.23652628E+03 0.28867837E+03 0.47955412E+03 0.30098446E+03 0.0000E+00 0.0000E+00
       23  2    1    2    0    0 -.10031588E+02 0.23652628E+03 0.11460488E+03 0.27840045E+03 0.91253586E+02 0.0000E+00 0.0000E+00
       24  1    3    3    0    0 -.16598503E+01 0.42752273E+02 0.83848015E+02 0.12380718E+03 0.80419002E+02 0.0000E+00 0.9000E+01
      -11  1    4    4    0    0 -.17625130E+02 0.14949931E+02 0.36765991E+02 0.43426763E+02 0.51099893E-03 0.0000E+00 0.9000E+01
       11  1    4    4    0    0 0.75935416E+01 0.22157635E+03 0.77838893E+02 0.23497368E+03 0.51099893E-03 0.0000E+00 0.9000E+01
      -24  1    3    3    0    0 0.11691439E+02 -.27927855E+03 0.20483035E+03 0.35574694E+03 0.80419002E+02 0.0000E+00 0.9000E+01
#aMCatNLO 1  0  0  2  1 0.68034764D+03 0.00000000D+00  -5  7  0 0.00000000D+00 0.00000000D+00 0.00000000D+00 0.00000000D+00 0.00000000D+00
  <mgrwgt>
 0.1263879575D-02    3    2    0
 0.320880720754529D+03 0.000000000000000D+00 0.000000000000000D+00 0.320880720754529D+03
 0.320880720754529D+03 0.000000000000000D+00 0.000000000000000D+00 -.320880720754529D+03
 0.935327566898219D+02 -.165985028395640D+01 0.427522729951861D+02 0.212284872378325D+02
 0.281855592980006D+02 -.176251298546630D+02 0.149499314239688D+02 0.161331987208367D+02
 0.228602477431778D+03 0.759354161428826D+01 0.221576345786229D+03 -.557257014466401D+02
 0.291440648089457D+03 0.116914385243312D+02 -.279278550205384D+03 0.183640154879710D+02
 0.000000000000000D+00 -.000000000000000D+00 0.000000000000000D+00 0.000000000000000D+00
 0.881718802214722D+03 0.000000000000000D+00 0.000000000000000D+00 0.881718802214722D+03
 0.747091368559971D+03 0.000000000000000D+00 0.000000000000000D+00 -.747091368559971D+03
 0.108121254859926D+03 0.685410534704974D+02 -.862931728829561D+01 0.212284872378325D+02
 0.166378338619104D+02 -.202096366434311D+01 0.352889791832093D+01 0.161331987208367D+02
 0.200913043044910D+03 0.157118847271744D+03 0.112135475634806D+03 -.557257014466401D+02
 0.609598235830882D+03 0.325366051208679D+03 -.508863919756335D+03 0.183640154879710D+02
 0.693539803177066D+03 -.549004988286578D+03 0.401828863491504D+03 0.134627433654751D+03
0.167896487941D-04 0.000000000000D+00 0.000000000000D+00 0.399461410118D-06 0.000000000000D+00  7 2 -2 24 -11 11 -24 21 0 0.89325986D-01 0.27282409D-01 0.98210592D+05 0.98210592D+05 0.98210592D+05 0.11223661D+01  1  2  2  2  7  2       -2 0.124969371832D-02 0.100000000000D+01
-.932124755363D-06 0.000000000000D+00 -.644766721854D-07 0.399461410118D-06 0.000000000000D+00  7 2 -2 24 -11 11 -24 21 2 0.89325986D-01 0.27282409D-01 0.98210592D+05 0.98210592D+05 0.98210592D+05 0.11223661D+01  1  2  3  2  7  2       -2 -.873987272304D-04 0.100000000000D+01
0.108341972694D-05 0.000000000000D+00 0.000000000000D+00 0.399461410118D-06 0.000000000000D+00  7 2 -2 24 -11 11 -24 21 2 0.89325986D-01 0.27282409D-01 0.98210592D+05 0.98210592D+05 0.98210592D+05 0.11223661D+01  1  2 15  2  7  2       -2 0.101584583658D-03 0.100000000000D+01
  </mgrwgt>
  </event>
  <event>
  8     66 0.26993063E-05 0.24810622E+03 0.75467711E-02 0.96909587E-01
        2 -1    0    0  501    0 0.00000000E+00 0.00000000E+00 0.19462579E+04 0.19462579E+04 0.32000000E+00 0.0000E+00 0.9000E+01
       -2 -1    0    0    0  501 0.00000000E+00 0.00000000E+00 -.33192702E+02 0.33194245E+02 0.32000000E+00 0.0000E+00 0.9000E+01
       25  2    1    2    0    0 -.10631995E+03 0.90105067E+02 0.14600833E+04 0.14969370E+04 0.29925663E+03 0.0000E+00 0.0000E+00
       23  2    1    2    0    0 0.10631995E+03 -.90105067E+02 0.45298191E+03 0.48251510E+03 0.90583414E+02 0.0000E+00 0.0000E+00
       24  1    3    3    0    0 0.53737453E+02 0.11380919E+03 0.67657956E+03 0.69286893E+03 0.80419002E+02 0.0000E+00 0.9000E+01
      -11  1    4    4    0    0 0.51681018E+01 -.60575321E+02 0.17134200E+03 0.18180803E+03 0.51099893E-03 0.0000E+00 0.9000E+01
       11  1    4    4    0    0 0.10115185E+03 -.29529747E+02 0.28163990E+03 0.30070706E+03 0.51099893E-03 0.0000E+00 0.9000E+01
      -24  1    3    3    0    0 -.16005740E+03 -.23704125E+02 0.78350369E+03 0.80406810E+03 0.80419002E+02 0.0000E+00 0.9000E+01
#aMCatNLO 1  0  0  1  2 0.26018276D+03 0.00000000D+00  -5  7  0 0.00000000D+00 0.00000000D+00 0.00000000D+00 0.00000000D+00 0.00000000D+00
  <mgrwgt>
 0.6801861611D-03    3    2    0
 0.254171419812863D+03 0.000000000000000D+00 0.000000000000000D+00 0.254171419812863D+03
 0.254171419812863D+03 0.000000000000000D+00 0.000000000000000D+00 -.254171419812863D+03
 0.151787542035079D+03 0.537374529246017D+02 0.113809191993601D+03 0.270554233679688D+02
 0.631303901675100D+02 0.516810184847224D+01 -.605753206755139D+02 -.170108027748403D+02
 0.111026940991479D+03 0.101151849227605D+03 -.295297466796592D+02 -.349754068567654D+02
 0.182397966431658D+03 -.160057404000679D+03 -.237041246384284D+02 0.249307862636369D+02
 0.000000000000000D+00 -.000000000000000D+00 0.000000000000000D+00 -.000000000000000D+00
 0.370802168926578D+03 0.000000000000000D+00 0.000000000000000D+00 0.370802168926578D+03
 0.483994713148023D+03 0.000000000000000D+00 0.000000000000000D+00 -.483994713148023D+03
 0.180207981837059D+03 0.130419579781439D+03 0.909199540223602D+02 0.270554233679688D+02
 0.823214882456267D+02 0.387636132034298D+02 -.706034156917725D+02 -.170108027748403D+02
 0.178656742417217D+03 0.168061067461694D+03 -.495018194612219D+02 -.349754068567654D+02
 0.129872024029017D+03 -.879313501828233D+02 -.452333972008031D+02 0.249307862636369D+02
 0.283738645545681D+03 -.249312910263740D+03 0.744186783314373D+02 -.113192544221445D+03
0.418832571871D-05 0.000000000000D+00 0.000000000000D+00 0.936390294971D-07 0.000000000000D+00  7 2 -2 24 -11 11 -24 21 0 0.29942441D+00 0.51066903D-02 0.61556696D+05 0.61556696D+05 0.61556696D+05 0.11394359D+01  1  2  2  1  7  1        2 0.673000705456D-03 0.100000000000D+01
-.232519735454D-06 0.000000000000D+00 -.160842735713D-07 0.936390294971D-07 0.000000000000D+00  7 2 -2 24 -11 11 -24 21 2 0.29942441D+00 0.51066903D-02 0.61556696D+05 0.61556696D+05 0.61556696D+05 0.11394359D+01  1  2  3  1  7  1        2 -.485081461215D-04 0.100000000000D+01
0.266962615169D-06 0.000000000000D+00 0.000000000000D+00 0.936390294971D-07 0.000000000000D+00  7 2 -2 24 -11 11 -24 21 2 0.29942441D+00 0.51066903D-02 0.61556696D+05 0.61556696D+05 0.61556696D+05 0.11394359D+01  1  2 15  1  7  1        2 0.556936017509D-04 0.100000000000D+01
  </mgrwgt>
  </event>
  <event>
  8     66 0.26993063E-05 0.24788084E+03 0.75467711E-02 0.92391606E-01
        2 -1    0    0  501    0 0.00000000E+00 0.00000000E+00 0.11880672E+04 0.11880673E+04 0.32000000E+00 0.0000E+00 0.9000E+01
       -2 -1    0    0    0  501 0.00000000E+00 0.00000000E+00 -.22312149E+03 0.22312172E+03 0.32000000E+00 0.0000E+00 0.9000E+01
       25  2    1    2    0    0 -.38727304E+03 0.10655261E+03 0.84541480E+03 0.98227555E+03 0.29800204E+03 0.0000E+00 0.0000E+00
       23  2    1    2    0    0 0.38727304E+03 -.10655261E+03 0.11953094E+03 0.42891344E+03 0.91352204E+02 0.0000E+00 0.0000E+00
       24  1    3    3    0    0 -.35421097E+03 0.47783404E+02 0.77102505E+03 0.85363664E+03 0.80419002E+02 0.0000E+00 0.9000E+01
      -13  1    4    4    0    0 0.38203918E+03 -.87400645E+02 0.11627109E+03 0.40879308E+03 0.10565837E+00 0.0000E+00 0.9000E+01
       13  1    4    4    0    0 0.52338630E+01 -.19151962E+02 0.32598573E+01 0.20120358E+02 0.10565837E+00 0.0000E+00 0.9000E+01
      -24  1    3    3    0    0 -.33062077E+02 0.58769204E+02 0.74389741E+02 0.12863891E+03 0.80419002E+02 0.0000E+00 0.9000E+01
#aMCatNLO 1  0  0  2  1 0.29631211D+03 0.00000000D+00  -5  7  0 0.00000000D+00 0.00000000D+00 0.00000000D+00 0.00000000D+00 0.00000000D+00
  <mgrwgt>
 0.8264073923D-03    7    2    0
 0.514862627730367D+03 0.000000000000000D+00 0.000000000000000D+00 0.514862627730367D+03
 0.514862627730367D+03 0.000000000000000D+00 0.000000000000000D+00 -.514862627730367D+03
 0.447347766050439D+03 -.354210968411618D+03 0.477834036410458D+02 0.256718024356157D+03
 0.451275326857111D+03 0.382039686113262D+03 -.874007367963109D+02 -.223732451986597D+03
 0.245186315379759D+02 0.523335891648120D+01 -.191518704698391D+02 -.143868378892938D+02
 0.106583531015207D+03 -.330620766181248D+02 0.587692036251041D+02 -.185987344802666D+02
 0.000000000000000D+00 0.000000000000000D+00 -.000000000000000D+00 -.000000000000000D+00
 0.590193103618565D+03 0.000000000000000D+00 0.000000000000000D+00 0.590193103618565D+03
 0.938971720060849D+03 0.000000000000000D+00 0.000000000000000D+00 -.938971720060849D+03
 0.531515204454175D+03 -.427863481019279D+03 0.164529311043139D+03 0.256718024356157D+03
 0.389658618342577D+03 0.318765356746097D+03 0.128948096241949D+02 -.223732451986597D+03
 0.200489937569698D+02 0.187996045026145D+01 -.138364299918601D+02 -.143868378892938D+02
 0.130287783768522D+03 -.508849670779693D+02 0.870201002421224D+02 -.185987344802666D+02
 0.457654223357171D+03 0.158103130900889D+03 -.250607790917596D+03 -.348778616442284D+03
0.525379405447D-04 0.000000000000D+00 0.000000000000D+00 0.537530215880D-06 0.000000000000D+00  7 2 -2 24 -13 13 -24 21 0 0.18277959D+00 0.34326404D-01 0.19495176D+06 0.19495176D+06 0.19495176D+06 0.10986791D+01  1  2  2  2  7  2       -2 0.100684190370D-02 0.100000000000D+01
-.283499706213D-05 0.000000000000D+00 -.201759525249D-06 0.537530215880D-06 0.000000000000D+00  7 2 -2 24 -13 13 -24 21 2 0.18277959D+00 0.34326404D-01 0.19495176D+06 0.19495176D+06 0.19495176D+06 0.10986791D+01  1  2  3  2  7  2       -2 -.655816894171D-04 0.100000000000D+01
0.335068750294D-05 0.000000000000D+00 0.000000000000D+00 0.537530215880D-06 0.000000000000D+00  7 2 -2 24 -13 13 -24 21 2 0.18277959D+00 0.34326404D-01 0.19495176D+06 0.19495176D+06 0.19495176D+06 0.10986791D+01  1  2 15  2  7  2       -2 0.775111022467D-04 0.100000000000D+01
0.110964504597D-04 0.000000000000D+00 0.000000000000D+00 0.537530215880D-06 0.000000000000D+00  7 2 -2 24 -13 13 -24 21 2 0.18277959D+00 0.63306029D-01 0.37433768D+06 0.37433768D+06 0.37433768D+06 0.10775097D+01  1  2 12  2  7  2       -2 0.731064812648D-04 0.100000000000D+01
-.366200769754D-04 0.000000000000D+00 -.161446500601D-04 0.537530215880D-06 0.000000000000D+00  7 2 -2 24 -13 13 -24 21 2 0.18277959D+00 0.69700475D-01 0.19495176D+06 0.19495176D+06 0.19495176D+06 0.10986791D+01  1  2  5  2  7  2       -2 -.209889416898D-03 0.100000000000D+01
0.741278475114D-06 0.000000000000D+00 0.000000000000D+00 0.537530215880D-06 0.000000000000D+00  7 2 21 24 -13 13 -24 2 2 0.18277959D+00 0.63306029D-01 0.37433768D+06 0.37433768D+06 0.37433768D+06 0.10775097D+01  1  2 12  4  7  2       -2 0.484811242962D-04 0.100000000000D+01
-.182537205328D-05 0.000000000000D+00 -.123670635413D-05 0.537530215880D-06 0.000000000000D+00  7 2 21 24 -13 13 -24 2 2 0.18277959D+00 0.69700475D-01 0.19495176D+06 0.19495176D+06 0.19495176D+06 0.10986791D+01  1  2  5  4  7  2       -2 -.104062112899D-03 0.100000000000D+01
  </mgrwgt>
  </event>
  <event>
  8     66 0.26993063E-05 0.31480678E+03 0.75467711E-02 0.96596439E-01
        2 -1    0    0  501    0 0.00000000E+00 0.00000000E+00 0.98739236E+03 0.98739241E+03 0.32000000E+00 0.0000E+00 0.9000E+01
       -2 -1    0    0    0  501 0.00000000E+00 0.00000000E+00 -.13043900E+03 0.13043939E+03 0.32000000E+00 0.0000E+00 0.9000E+01
       25  2    1    2    0    0 0.39686980E+02 0.25196919E+03 0.70651964E+03 0.80889854E+03 0.30013883E+03 0.0000E+00 0.0000E+00
       23  2    1    2    0    0 -.39686980E+02 -.25196919E+03 0.15043372E+03 0.30893326E+03 0.88010925E+02 0.0000E+00 0.0000E+00
       24  1    3    3    0    0 -.59005146E+02 0.18520098E+02 0.83099562E+02 0.13113868E+03 0.80419002E+02 0.0000E+00 0.9000E+01
      -13  1    4    4    0    0 -.12628774E+02 -.22006011E+03 0.96360090E+02 0.24056437E+03 0.10565837E+00 0.0000E+00 0.9000E+01
       13  1    4    4    0    0 -.27058206E+02 -.31909081E+02 0.54073629E+02 0.68368885E+02 0.10565837E+00 0.0000E+00 0.9000E+01
      -24  1    3    3    0    0 0.98692126E+02 0.23344909E+03 0.62342008E+03 0.67775986E+03 0.80419002E+02 0.0000E+00 0.9000E+01
#aMCatNLO 1  0  0  1  1 0.18469710D+03 0.00000000D+00  -5  7  0 0.00000000D+00 0.00000000D+00 0.00000000D+00 0.00000000D+00 0.00000000D+00
  <mgrwgt>
 0.1105471036D-02    4    2    0
 0.358879809644766D+03 0.000000000000000D+00 0.000000000000000D+00 0.358879809644766D+03
 0.358879809644766D+03 0.000000000000000D+00 0.000000000000000D+00 -.358879809644766D+03
 0.105019201869666D+03 -.590051463775535D+02 0.185200978809366D+02 -.271517123293401D+02
 0.259605892898816D+03 -.126287537035464D+02 -.220060383515191D+03 -.137146497639690D+03
 0.419166941000336D+02 -.270582262280829D+02 -.319088094513728D+02 0.258641007221512D+01
 0.311217830421016D+03 0.986921263091828D+02 0.233449095085628D+03 0.161711799896815D+03
 0.000000000000000D+00 -.000000000000000D+00 0.000000000000000D+00 -.000000000000000D+00
 0.412421932894531D+03 0.000000000000000D+00 0.000000000000000D+00 0.412421932894531D+03
 0.574348761158513D+03 0.000000000000000D+00 0.000000000000000D+00 -.574348761158513D+03
 0.927494599331272D+02 -.342008329181921D+02 0.151107216506327D+02 -.271517123293401D+02
 0.272554656543005D+03 0.541152741860859D+02 -.229234412966741D+03 -.137146497639690D+03
 0.375024245276296D+02 -.170974129468002D+02 -.332779326117997D+02 0.258641007221512D+01
 0.338335745055212D+03 0.180159687185067D+03 0.222251302167628D+03 0.161711799896815D+03
 0.245628407994070D+03 -.182976715506161D+03 0.251503217602801D+02 -.161926828263982D+03
0.198740630837D-04 0.000000000000D+00 0.000000000000D+00 0.375458118477D-06 0.000000000000D+00  7 2 -2 24 -13 13 -24 21 0 0.15190655D+00 0.20067572D-01 0.99103306D+05 0.99103306D+05 0.99103306D+05 0.11220432D+01  1  2  2  1  7  1        2 0.128313683424D-02 0.100000000000D+01
-.108106693694D-05 0.000000000000D+00 -.763216352025D-07 0.375458118477D-06 0.000000000000D+00  7 2 -2 24 -13 13 -24 21 2 0.15190655D+00 0.20067572D-01 0.99103306D+05 0.99103306D+05 0.99103306D+05 0.11220432D+01  1  2  3  1  7  1        2 -.878735250307D-04 0.100000000000D+01
0.126822104545D-05 0.000000000000D+00 0.000000000000D+00 0.375458118477D-06 0.000000000000D+00  7 2 -2 24 -13 13 -24 21 2 0.15190655D+00 0.20067572D-01 0.99103306D+05 0.99103306D+05 0.99103306D+05 0.11220432D+01  1  2 15  1  7  1        2 0.103086173459D-03 0.100000000000D+01
-.237289344235D-05 0.000000000000D+00 0.000000000000D+00 0.375458118477D-06 0.000000000000D+00  7 2 -2 24 -13 13 -24 21 2 0.15190655D+00 0.20067572D-01 0.99103306D+05 0.99103306D+05 0.99103306D+05 0.11220432D+01  1  2  4  1  7  1        2 -.192878446446D-03 0.100000000000D+01
  </mgrwgt>
  </event>
  <event>
  8     66 0.26993063E-05 0.18208285E+03 0.75467711E-02 0.10059791E+00
        2 -1    0    0  501    0 0.00000000E+00 0.00000000E+00 0.85749894E+03 0.85749900E+03 0.32000000E+00 0.0000E+00 0.9000E+01
       -2 -1    0    0    0  501 0.00000000E+00 0.00000000E+00 -.10457601E+03 0.10457650E+03 0.32000000E+00 0.0000E+00 0.9000E+01
       25  2    1    2    0    0 -.24046134E+02 -.13754003E+03 0.20128893E+03 0.38648289E+03 0.29892526E+03 0.0000E+00 0.0000E+00
       23  2    1    2    0    0 0.24046134E+02 0.13754003E+03 0.55163400E+03 0.57559261E+03 0.86667780E+02 0.0000E+00 0.0000E+00
       24  1    3    3    0    0 -.37416031E+02 -.57033473E+02 0.24272815E+03 0.26464494E+03 0.80419002E+02 0.0000E+00 0.9000E+01
      -11  1    4    4    0    0 0.13759598E+02 0.13148639E+03 0.35866106E+03 0.38225090E+03 0.51099893E-03 0.0000E+00 0.9000E+01
       11  1    4    4    0    0 0.10286536E+02 0.60536436E+01 0.19297295E+03 0.19334171E+03 0.51099893E-03 0.0000E+00 0.9000E+01
      -24  1    3    3    0    0 0.13369897E+02 -.80506557E+02 -.41439217E+02 0.12183794E+03 0.80419002E+02 0.0000E+00 0.9000E+01
#aMCatNLO 1  0  0  1  1 0.19962440D+03 0.00000000D+00  -5  7  0 0.00000000D+00 0.00000000D+00 0.00000000D+00 0.00000000D+00 0.00000000D+00
  <mgrwgt>
 0.1147396256D-02    6    2    0
 0.299456307203924D+03 0.000000000000000D+00 0.000000000000000D+00 0.299456307203924D+03
 0.299456307203924D+03 0.000000000000000D+00 0.000000000000000D+00 -.299456307203924D+03
 0.119972137235068D+03 -.374160306576005D+02 -.570334726709514D+02 0.572129478641060D+02
 0.163145818856427D+03 0.137595975775566D+02 0.131486386497078D+03 0.955958254882432D+02
 0.679824839556812D+02 0.102865363242364D+02 0.605364358546406D+01 0.669265171256863D+02
 0.247812174360672D+03 0.133698967558075D+02 -.805065574115909D+02 -.219735290478035D+03
 0.000000000000000D+00 0.000000000000000D+00 -.000000000000000D+00 0.000000000000000D+00
 0.485794558008959D+03 0.000000000000000D+00 0.000000000000000D+00 0.485794558008959D+03
 0.374206484304586D+03 0.000000000000000D+00 0.000000000000000D+00 -.374206484304586D+03
 0.138851670316236D+03 -.794143560524135D+02 -.568560378914825D+02 0.572129478641060D+02
 0.167568625823971D+03 -.399041398964354D+02 0.131713105380145D+03 0.955958254882432D+02
 0.682392939040881D+02 -.118176379653737D+02 0.614702943486518D+01 0.669265171256863D+02
 0.256645583355884D+03 -.684864875426812D+02 -.801607300634863D+02 -.219735290478035D+03
 0.228695868913366D+03 0.199622621456904D+03 -.843366860041156D+00 0.111588073704372D+03
0.703097491919D-05 0.000000000000D+00 0.000000000000D+00 0.195863651454D-07 0.000000000000D+00  7 2 -2 24 -11 11 -24 21 0 0.13192296D+00 0.16088659D-01 0.33154166D+05 0.33154166D+05 0.33154166D+05 0.11633289D+01  1  2  2  1  7  1        2 0.787848062803D-03 0.100000000000D+01
-.273059781299D-06 0.000000000000D+00 -.270007949879D-07 0.195863651454D-07 0.000000000000D+00  7 2 -2 24 -11 11 -24 21 2 0.13192296D+00 0.16088659D-01 0.33154166D+05 0.33154166D+05 0.33154166D+05 0.11633289D+01  1  2  3  1  7  1        2 -.414085215938D-04 0.100000000000D+01
0.429225890054D-06 0.000000000000D+00 0.000000000000D+00 0.195863651454D-07 0.000000000000D+00  7 2 -2 24 -11 11 -24 21 2 0.13192296D+00 0.16088659D-01 0.33154166D+05 0.33154166D+05 0.33154166D+05 0.11633289D+01  1  2 15  1  7  1        2 0.650905433688D-04 0.100000000000D+01
-.165901022475D-05 0.000000000000D+00 -.227817708009D-05 0.195863651454D-07 0.000000000000D+00  7 2 -2 24 -11 11 -24 21 2 0.24275994D+00 0.16088659D-01 0.33154166D+05 0.33154166D+05 0.33154166D+05 0.11633289D+01  1  2  5  1  7  1        2 -.989745841799D-04 0.100000000000D+01
0.286541826143D-05 0.000000000000D+00 0.191154777875D-05 0.195863651454D-07 0.000000000000D+00  7 2 -2 24 -11 11 -24 21 2 0.13192296D+00 0.16088659D-01 0.33154166D+05 0.33154166D+05 0.33154166D+05 0.11633289D+01  1  2  6  1  7  1        2 0.434530246047D-03 0.100000000000D+01
0.145441591221D-07 0.000000000000D+00 -.151699804142D-06 0.195863651454D-07 0.000000000000D+00  7 21 -2 24 -11 11 -24 -2 2 0.24275994D+00 0.16088659D-01 0.33154166D+05 0.33154166D+05 0.33154166D+05 0.11633289D+01  1  2  5  3  7  1        2 0.310509177676D-06 0.100000000000D+01
  </mgrwgt>
  </event>
  <event>
  8     66 0.26993063E-05 0.52479275E+03 0.75467711E-02 0.86537127E-01
        2 -1    0    0  501    0 0.00000000E+00 0.00000000E+00 0.14846381E+04 0.14846382E+04 0.32000000E+00 0.0000E+00 0.9000E+01
       -2 -1    0    0    0  501 0.00000000E+00 0.00000000E+00 -.48380142E+03 0.48380153E+03 0.32000000E+00 0.0000E+00 0.9000E+01
       25  2    1    2    0    0 0.88119099E+02 0.73363710E+03 0.92254490E+03 0.12193530E+04 0.29957348E+03 0.0000E+00 0.0000E+00
       23  2    1    2    0    0 -.88119099E+02 -.73363710E+03 0.78291799E+02 0.74908669E+03 0.94936250E+02 0.0000E+00 0.0000E+00
       24  1    3    3    0    0 -.10712536E+02 0.20727880E+03 0.44392688E+03 0.49660603E+03 0.80419002E+02 0.0000E+00 0.9000E+01
      -11  1    4    4    0    0 -.37872026E+02 -.11637065E+03 -.13076642E+02 0.12307484E+03 0.51099893E-03 0.0000E+00 0.9000E+01
       11  1    4    4    0    0 -.50247073E+02 -.61726645E+03 0.91368441E+02 0.62601185E+03 0.51099893E-03 0.0000E+00 0.9000E+01
      -24  1    3    3    0    0 0.98831635E+02 0.52635830E+03 0.47861802E+03 0.72274697E+03 0.80419002E+02 0.0000E+00 0.9000E+01
#aMCatNLO 1  0  0  2  1 0.56883773D+03 0.00000000D+00  -5  7  0 0.00000000D+00 0.00000000D+00 0.00000000D+00 0.00000000D+00 0.00000000D+00
  <mgrwgt>
 0.1050114465D-02    9    2    0
 0.847508215569588D+03 0.000000000000000D+00 0.000000000000000D+00 0.847508215569588D+03
 0.847508215569588D+03 0.000000000000000D+00 0.000000000000000D+00 -.847508215569588D+03
 0.314593237199687D+03 -.107125361033930D+02 0.207278800477402D+03 0.222311559259276D+03
 0.150649270784836D+03 -.378720258908511D+02 -.116370649810753D+03 -.878566121902533D+02
 0.673044610446408D+03 -.502470728932325D+02 -.617266450282567D+03 -.263526865181102D+03
 0.556729312708244D+03 0.988316348874766D+02 0.526358299615918D+03 0.129071918112079D+03
 0.000000000000000D+00 0.000000000000000D+00 -.000000000000000D+00 -.000000000000000D+00
 0.108479350803687D+04 0.000000000000000D+00 0.000000000000000D+00 0.108479350803687D+04
 0.131785839310718D+04 0.000000000000000D+00 0.000000000000000D+00 -.131785839310718D+04
 0.356556526282677D+03 -.115061406500711D+03 0.240839747205868D+03 0.222311559259276D+03
 0.159048351824341D+03 -.860231224752002D+02 -.100884172753249D+03 -.878566121902533D+02
 0.662561983782121D+03 -.257904211412984D+03 -.550479237952321D+03 -.263526865181102D+03
 0.609752897764587D+03 -.825304211308962D+02 0.584688421230288D+03 0.129071918112079D+03
 0.614732141490332D+03 0.541519161519792D+03 -.174164757730586D+03 -.233064885070312D+03
0.373790228194D-03 0.000000000000D+00 0.000000000000D+00 0.968715197968D-06 0.000000000000D+00  7 2 -2 24 -11 11 -24 21 0 0.22840588D+00 0.74430999D-01 0.56688659D+06 0.56688659D+06 0.56688659D+06 0.10646780D+01  1  2  2  2  7  2       -2 0.994967762628D-03 0.100000000000D+01
-.204125142166D-04 0.000000000000D+00 -.143545289749D-05 0.968715197968D-06 0.000000000000D+00  7 2 -2 24 -11 11 -24 21 2 0.22840588D+00 0.74430999D-01 0.56688659D+06 0.56688659D+06 0.56688659D+06 0.10646780D+01  1  2  3  2  7  2       -2 -.615905546318D-04 0.100000000000D+01
0.233326894280D-04 0.000000000000D+00 0.000000000000D+00 0.968715197968D-06 0.000000000000D+00  7 2 -2 24 -11 11 -24 21 2 0.22840588D+00 0.74430999D-01 0.56688659D+06 0.56688659D+06 0.56688659D+06 0.10646780D+01  1  2 15  2  7  2       -2 0.704015814843D-04 0.100000000000D+01
0.191353562228D-04 0.000000000000D+00 0.000000000000D+00 0.968715197968D-06 0.000000000000D+00  7 2 -2 24 -11 11 -24 21 2 0.22840588D+00 0.12149302D+00 0.11924844D+07 0.11924844D+07 0.11924844D+07 0.10428124D+01  1  2 12  2  7  2       -2 0.164091923384D-04 0.100000000000D+01
-.145373421118D-03 0.000000000000D+00 0.000000000000D+00 0.968715197968D-06 0.000000000000D+00  7 2 -2 24 -11 11 -24 21 2 0.22840588D+00 0.74430999D-01 0.56688659D+06 0.56688659D+06 0.56688659D+06 0.10646780D+01  1  2  4  2  7  2       -2 -.438634336777D-03 0.100000000000D+01
-.130891482881D-03 0.000000000000D+00 -.113330786087D-03 0.968715197968D-06 0.000000000000D+00  7 2 -2 24 -11 11 -24 21 2 0.22840588D+00 0.14166145D+00 0.56688659D+06 0.56688659D+06 0.56688659D+06 0.10646780D+01  1  2  5  2  7  2       -2 -.813567534307D-04 0.100000000000D+01
0.184323646933D-03 0.000000000000D+00 0.933273174162D-04 0.968715197968D-06 0.000000000000D+00  7 2 -2 24 -11 11 -24 21 2 0.22840588D+00 0.74430999D-01 0.56688659D+06 0.56688659D+06 0.56688659D+06 0.10646780D+01  1  2  6  2  7  2       -2 0.556158615537D-03 0.100000000000D+01
0.106181964407D-05 0.000000000000D+00 0.000000000000D+00 0.968715197968D-06 0.000000000000D+00  7 2 21 24 -11 11 -24 2 2 0.22840588D+00 0.12149302D+00 0.11924844D+07 0.11924844D+07 0.11924844D+07 0.10428124D+01  1  2 12  4  7  2       -2 0.775125384660D-05 0.100000000000D+01
-.266710247251D-05 0.000000000000D+00 -.792342299132D-05 0.968715197968D-06 0.000000000000D+00  7 2 21 24 -11 11 -24 2 2 0.22840588D+00 0.14166145D+00 0.56688659D+06 0.56688659D+06 0.56688659D+06 0.10646780D+01  1  2  5  4  7  2       -2 -.139922958624D-04 0.100000000000D+01
  </mgrwgt>
  </event>
  <event>
  8     66 0.26993063E-05 0.11574712E+03 0.75467711E-02 0.10375097E+00
        2 -1    0    0  501    0 0.00000000E+00 0.00000000E+00 0.18237619E+03 0.18237647E+03 0.32000000E+00 0.0000E+00 0.9000E+01
       -2 -1    0    0    0  501 0.00000000E+00 0.00000000E+00 -.44880936E+03 0.44880948E+03 0.32000000E+00 0.0000E+00 0.9000E+01
       25  2    1    2    0    0 -.15221632E+03 0.80631009E+02 -.65792135E+02 0.35234685E+03 0.30024745E+03 0.0000E+00 0.0000E+00
       23  2    1    2    0    0 0.15221632E+03 -.80631009E+02 -.20064104E+03 0.27883910E+03 0.88449116E+02 0.0000E+00 0.0000E+00
       24  1    3    3    0    0 0.20369384E+02 0.40966151E+02 -.11897528E+03 0.15071652E+03 0.80419002E+02 0.0000E+00 0.9000E+01
      -11  1    4    4    0    0 0.74947673E+01 -.32329442E+02 -.71979367E+02 0.79261552E+02 0.51099893E-03 0.0000E+00 0.9000E+01
       11  1    4    4    0    0 0.14472156E+03 -.48301567E+02 -.12866167E+03 0.19957754E+03 0.51099893E-03 0.0000E+00 0.9000E+01
      -24  1    3    3    0    0 -.17258571E+03 0.39664858E+02 0.53183142E+02 0.20163033E+03 0.80419002E+02 0.0000E+00 0.9000E+01
#aMCatNLO 1  0  0  1  2 0.78935719D+01 0.00000000D+00  -5  7  0 0.00000000D+00 0.00000000D+00 0.00000000D+00 0.00000000D+00 0.00000000D+00
  <mgrwgt>
 0.6190958071D-03   11    2    0
 0.286098349344164D+03 0.000000000000000D+00 0.000000000000000D+00 0.286098349344164D+03
 0.286098349344164D+03 0.000000000000000D+00 0.000000000000000D+00 -.286098349344164D+03
 0.110855566800980D+03 0.203693840696967D+02 0.409661509492592D+02 -.610622911903879D+02
 0.539169250195150D+02 0.749476726758894D+01 -.323294422042807D+02 -.424931810285457D+02
 0.160243501912290D+03 0.144721555317388D+03 -.483015665187147D+02 -.489960202819427D+02
 0.247180704955543D+03 -.172585706654673D+03 0.396648577737362D+02 0.152551492500876D+03
 0.000000000000000D+00 -.000000000000000D+00 0.000000000000000D+00 0.000000000000000D+00
 0.294353833762195D+03 0.000000000000000D+00 0.000000000000000D+00 0.294353833762195D+03
 0.288018695223322D+03 0.000000000000000D+00 0.000000000000000D+00 -.288018695223322D+03
 0.110415282452339D+03 0.208403738525871D+02 0.395144790794966D+02 -.610622911903879D+02
 0.543781848638403D+02 0.772528064277671D+01 -.330399242455483D+02 -.424931810285457D+02
 0.161508682967825D+03 0.145406426335023D+03 -.504124572998604D+02 -.489960202819427D+02
 0.245948992543405D+03 -.171536047153905D+03 0.364296258739201D+02 0.152551492500876D+03
 0.101213861581075D+02 -.243603367648177D+01 0.750827659199198D+01 0.633513853887371D+01
0.763273517608D-05 0.000000000000D+00 0.000000000000D+00 0.143533379101D-06 0.000000000000D+00  7 2 -2 24 -11 11 -24 21 0 0.28057905D-01 0.69047625D-01 0.55877436D+05 0.55877436D+05 0.55877436D+05 0.11430739D+01  1  2  2  1  7  1        2 0.350117994168D-03 0.100000000000D+01
-.405256353259D-06 0.000000000000D+00 -.293117128215D-07 0.143533379101D-06 0.000000000000D+00  7 2 -2 24 -11 11 -24 21 2 0.28057905D-01 0.69047625D-01 0.55877436D+05 0.55877436D+05 0.55877436D+05 0.11430739D+01  1  2  3  1  7  1        2 -.242891723476D-04 0.100000000000D+01
0.467590875431D-06 0.000000000000D+00 0.000000000000D+00 0.143533379101D-06 0.000000000000D+00  7 2 -2 24 -11 11 -24 21 2 0.28057905D-01 0.69047625D-01 0.55877436D+05 0.55877436D+05 0.55877436D+05 0.11430739D+01  1  2 15  1  7  1        2 0.280252123629D-04 0.100000000000D+01
0.197066073498D-04 0.000000000000D+00 0.000000000000D+00 0.143533379101D-06 0.000000000000D+00  7 2 -2 24 -11 11 -24 21 2 0.28959976D-01 0.69047625D-01 0.57753333D+05 0.57753333D+05 0.57753333D+05 0.11418289D+01  1  2 12  1  7  1        2 0.113696463054D-02 0.100000000000D+01
-.204322333610D-04 0.000000000000D+00 0.000000000000D+00 0.143533379101D-06 0.000000000000D+00  7 2 -2 24 -11 11 -24 21 2 0.28057905D-01 0.69047625D-01 0.55877436D+05 0.55877436D+05 0.55877436D+05 0.11430739D+01  1  2  4  1  7  1        2 -.122461260277D-02 0.100000000000D+01
-.261632041818D-03 0.000000000000D+00 -.315255836497D-04 0.143533379101D-06 0.000000000000D+00  7 2 -2 24 -11 11 -24 21 2 0.29035504D-01 0.69047625D-01 0.55877436D+05 0.55877436D+05 0.55877436D+05 0.11430739D+01  1  2  5  1  7  1        2 -.150858900942D-01 0.100000000000D+01
0.262576225202D-03 0.000000000000D+00 0.315071031012D-04 0.143533379101D-06 0.000000000000D+00  7 2 -2 24 -11 11 -24 21 2 0.28057905D-01 0.69047625D-01 0.55877436D+05 0.55877436D+05 0.55877436D+05 0.11430739D+01  1  2  6  1  7  1        2 0.157375921119D-01 0.100000000000D+01
0.600862183150D-06 0.000000000000D+00 0.000000000000D+00 0.143533379101D-06 0.160275949697D-07  7 2 -2 24 -11 11 -24 21 2 0.28867528D-01 0.69511085D-01 0.57753333D+05 0.57753333D+05 0.57753333D+05 0.11418289D+01  1  2 11  1  7  1        2 0.343011728455D-04 0.100000000000D+01
0.512774998743D-06 0.000000000000D+00 0.000000000000D+00 0.143533379101D-06 0.000000000000D+00  7 21 -2 24 -11 11 -24 -2 2 0.28959976D-01 0.69047625D-01 0.57753333D+05 0.57753333D+05 0.57753333D+05 0.11418289D+01  1  2 12  3  7  1        2 0.160393935118D-03 0.100000000000D+01
-.158377988222D-05 0.000000000000D+00 -.192439251824D-06 0.143533379101D-06 0.000000000000D+00  7 21 -2 24 -11 11 -24 -2 2 0.29035504D-01 0.69047625D-01 0.55877436D+05 0.55877436D+05 0.55877436D+05 0.11430739D+01  1  2  5  3  7  1        2 -.494564750880D-03 0.100000000000D+01
0.340769859230D-08 0.000000000000D+00 0.000000000000D+00 0.143533379101D-06 0.815946709235D-10  7 21 -2 24 -11 11 -24 -2 2 0.28867528D-01 0.69511085D-01 0.57753333D+05 0.57753333D+05 0.57753333D+05 0.11418289D+01  1  2 11  3  7  1        2 0.105737037651D-05 0.100000000000D+01
  </mgrwgt>
  </event>
  <event>
  8     66 0.26993063E-05 0.23506466E+03 0.75467711E-02 0.96274741E-01
        2 -1    0    0  501    0 0.00000000E+00 0.00000000E+00 0.20367935E+03 0.20367960E+03 0.32000000E+00 0.0000E+00 0.9000E+01
       -2 -1    0    0    0  501 0.00000000E+00 0.00000000E+00 -.94843726E+03 0.94843732E+03 0.32000000E+00 0.0000E+00 0.9000E+01
       25  2    1    2    0    0 0.81875987E+02 0.36466642E+03 -.51916042E+03 0.70608208E+03 0.29889645E+03 0.0000E+00 0.0000E+00
       23  2    1    2    0    0 -.81875987E+02 -.36466642E+03 -.22559749E+03 0.44603484E+03 0.91474466E+02 0.0000E+00 0.0000E+00
       24  1    3    3    0    0 -.51956477E+02 0.27689361E+03 -.37670162E+03 0.47722204E+03 0.80419002E+02 0.0000E+00 0.9000E+01
      -11  1    4    4    0    0 -.72955144E+02 -.30964623E+03 -.22611058E+03 0.39029378E+03 0.51099893E-03 0.0000E+00 0.9000E+01
       11  1    4    4    0    0 -.89208434E+01 -.55020187E+02 0.51309072E+00 0.55741059E+02 0.51099893E-03 0.0000E+00 0.9000E+01
      -24  1    3    3    0    0 0.13383246E+03 0.87772810E+02 -.14245880E+03 0.22886005E+03 0.80419002E+02 0.0000E+00 0.9000E+01
#aMCatNLO 1  0  0  1  2 0.20699211D+02 0.00000000D+00  -5  7  0 0.00000000D+00 0.00000000D+00 0.00000000D+00 0.00000000D+00 0.00000000D+00
  <mgrwgt>
 0.8305868062D-03    9    2    0
 0.439519356550403D+03 0.000000000000000D+00 0.000000000000000D+00 0.439519356550403D+03
 0.439519356550403D+03 0.000000000000000D+00 0.000000000000000D+00 -.439519356550403D+03
 0.306316512494350D+03 -.519564765787444D+02 0.276893608340929D+03 -.894038258342078D+02
 0.319970467670564D+03 -.729551438767505D+02 -.309646231685079D+03 0.343199412364308D+02
 0.734920368892596D+02 -.892084342599596D+01 -.550201865324434D+02 0.478986128466817D+02
 0.179259696046632D+03 0.133832463881491D+03 0.877728098765937D+02 0.718527175109530D+01
 0.000000000000000D+00 0.000000000000000D+00 -.000000000000000D+00 0.000000000000000D+00
 0.452498439139853D+03 0.000000000000000D+00 0.000000000000000D+00 0.452498439139853D+03
 0.447972241907322D+03 0.000000000000000D+00 0.000000000000000D+00 -.447972241907322D+03
 0.312275799097888D+03 -.564712265675242D+02 0.282607351716157D+03 -.894038258342078D+02
 0.315403224843572D+03 -.775923715263564D+02 -.303777483951936D+03 0.343199412364308D+02
 0.726260942111897D+02 -.998727574075956D+01 -.536705391347463D+02 0.478986128466817D+02
 0.178977269060985D+03 0.131217898029489D+03 0.910817324865060D+02 0.718527175109530D+01
 0.211882938335394D+02 0.128329758051514D+02 -.162410611159810D+02 0.452619723253118D+01
0.662664128920D-04 0.000000000000D+00 0.000000000000D+00 0.833709000736D-06 0.000000000000D+00  7 2 -2 24 -11 11 -24 21 0 0.31335309D-01 0.14591345D+00 0.17891124D+06 0.17891124D+06 0.17891124D+06 0.11015615D+01  1  2  2  1  7  1        2 0.437008351237D-03 0.100000000000D+01
-.367488108009D-05 0.000000000000D+00 -.254480473853D-06 0.833709000736D-06 0.000000000000D+00  7 2 -2 24 -11 11 -24 21 2 0.31335309D-01 0.14591345D+00 0.17891124D+06 0.17891124D+06 0.17891124D+06 0.11015615D+01  1  2  3  1  7  1        2 -.294074290688D-04 0.100000000000D+01
0.419603860294D-05 0.000000000000D+00 0.000000000000D+00 0.833709000736D-06 0.000000000000D+00  7 2 -2 24 -11 11 -24 21 2 0.31335309D-01 0.14591345D+00 0.17891124D+06 0.17891124D+06 0.17891124D+06 0.11015615D+01  1  2 15  1  7  1        2 0.335778777317D-04 0.100000000000D+01
0.136390422481D-03 0.000000000000D+00 0.000000000000D+00 0.833709000736D-06 0.000000000000D+00  7 2 -2 24 -11 11 -24 21 2 0.32554609D-01 0.14591345D+00 0.18786099D+06 0.18786099D+06 0.18786099D+06 0.10999200D+01  1  2 12  1  7  1        2 0.104075188763D-02 0.100000000000D+01
-.119664094115D-03 0.000000000000D+00 0.000000000000D+00 0.833709000736D-06 0.000000000000D+00  7 2 -2 24 -11 11 -24 21 2 0.31335309D-01 0.14591345D+00 0.17891124D+06 0.17891124D+06 0.17891124D+06 0.11015615D+01  1  2  4  1  7  1        2 -.957585642388D-03 0.100000000000D+01
-.131215722267D-02 0.000000000000D+00 -.198942568126D-03 0.833709000736D-06 0.000000000000D+00  7 2 -2 24 -11 11 -24 21 2 0.32852763D-01 0.14591345D+00 0.17891124D+06 0.17891124D+06 0.17891124D+06 0.11015615D+01  1  2  5  1  7  1        2 -.995223116236D-02 0.100000000000D+01
0.132031089701D-02 0.000000000000D+00 0.198720320288D-03 0.833709000736D-06 0.000000000000D+00  7 2 -2 24 -11 11 -24 21 2 0.31335309D-01 0.14591345D+00 0.17891124D+06 0.17891124D+06 0.17891124D+06 0.11015615D+01  1  2  6  1  7  1        2 0.105654980954D-01 0.100000000000D+01
0.209489937500D-05 0.000000000000D+00 0.000000000000D+00 0.833709000736D-06 0.000000000000D+00  7 21 -2 24 -11 11 -24 -2 2 0.32554609D-01 0.14591345D+00 0.18786099D+06 0.18786099D+06 0.18786099D+06 0.10999200D+01  1  2 12  3  7  1        2 0.759568371653D-04 0.100000000000D+01
-.106952248896D-04 0.000000000000D+00 -.164538137323D-05 0.833709000736D-06 0.000000000000D+00  7 21 -2 24 -11 11 -24 -2 2 0.32852763D-01 0.14591345D+00 0.17891124D+06 0.17891124D+06 0.17891124D+06 0.11015615D+01  1  2  5  3  7  1        2 -.382982009061D-03 0.100000000000D+01
  </mgrwgt>
  </event>
  <event>
  8     66 0.26993063E-05 0.32704375E+03 0.75467711E-02 0.93323638E-01
        2 -1    0    0  501    0 0.00000000E+00 0.00000000E+00 0.26237265E+04 0.26237265E+04 0.32000000E+00 0.0000E+00 0.9000E+01
       -2 -1    0    0    0  501 0.00000000E+00 0.00000000E+00 -.15400711E+03 0.15400744E+03 0.32000000E+00 0.0000E+00 0.9000E+01
       25  2    1    2    0    0 -.35595528E+03 0.26318256E+03 0.21726621E+04 0.22376863E+04 0.30134717E+03 0.0000E+00 0.0000E+00
       23  2    1    2    0    0 0.35595528E+03 -.26318256E+03 0.29705731E+03 0.54004768E+03 0.86251013E+02 0.0000E+00 0.0000E+00
       24  1    3    3    0    0 -.82073898E+01 0.13146176E+03 0.57509956E+03 0.59544628E+03 0.80419002E+02 0.0000E+00 0.9000E+01
      -13  1    4    4    0    0 0.25684590E+03 -.18985554E+03 0.16541936E+03 0.35969226E+03 0.10565837E+00 0.0000E+00 0.9000E+01
       13  1    4    4    0    0 0.99109380E+02 -.73327019E+02 0.13163794E+03 0.18035543E+03 0.10565837E+00 0.0000E+00 0.9000E+01
      -24  1    3    3    0    0 -.34774789E+03 0.13172080E+03 0.15975625E+04 0.16422400E+04 0.80419002E+02 0.0000E+00 0.9000E+01
#aMCatNLO 1  0  0  1  2 0.13664782D+03 0.00000000D+00  -5  7  0 0.00000000D+00 0.00000000D+00 0.00000000D+00 0.00000000D+00 0.00000000D+00
  <mgrwgt>
 0.1598604680D-02    9    2    0
 0.635667383568848D+03 0.000000000000000D+00 0.000000000000000D+00 0.635667383568848D+03
 0.635667383568848D+03 0.000000000000000D+00 0.000000000000000D+00 -.635667383568848D+03
 0.183788589857757D+03 -.820738993521572D+01 0.131461756581695D+03 0.998071896931225D+02
 0.464543744271966D+03 0.256846137181055D+03 -.189855715464388D+03 -.337321448269887D+03
 0.138334918543496D+03 0.991091435021825D+02 -.733268437946520D+02 -.627463253251862D+02
 0.484667514464476D+03 -.347747890748021D+03 0.131720802677345D+03 0.300260583901951D+03
 0.000000000000000D+00 -.000000000000000D+00 -.000000000000000D+00 0.000000000000000D+00
 0.710789031114433D+03 0.000000000000000D+00 0.000000000000000D+00 0.710789031114433D+03
 0.704653839298143D+03 0.000000000000000D+00 0.000000000000000D+00 -.704653839298143D+03
 0.193030180736706D+03 0.751143806817218D+01 0.144137219012245D+03 0.998071896931225D+02
 0.475900025782004D+03 0.296076332229500D+03 -.158220986502881D+03 -.337321448269887D+03
 0.142476742911966D+03 0.110823077499686D+03 -.638808768136977D+02 -.627463253251862D+02
 0.467250439228586D+03 -.308039055214609D+03 0.163741501221548D+03 0.300260583901951D+03
 0.136785481753314D+03 -.106371792582749D+03 -.857768569172146D+02 0.613519181628974D+01
0.138202702176D-03 0.000000000000D+00 0.000000000000D+00 0.108793343068D-06 0.000000000000D+00  7 2 -2 24 -13 13 -24 21 0 0.40365026D+00 0.23693429D-01 0.23886003D+06 0.23886003D+06 0.23886003D+06 0.10919515D+01  1  2  2  1  7  1        2 0.803633997271D-03 0.100000000000D+01
-.703291111506D-05 0.000000000000D+00 -.530734765963D-06 0.108793343068D-06 0.000000000000D+00  7 2 -2 24 -13 13 -24 21 2 0.40365026D+00 0.23693429D-01 0.23886003D+06 0.23886003D+06 0.23886003D+06 0.10919515D+01  1  2  3  1  7  1        2 -.487622361295D-04 0.100000000000D+01
0.869992788659D-05 0.000000000000D+00 0.000000000000D+00 0.108793343068D-06 0.000000000000D+00  7 2 -2 24 -13 13 -24 21 2 0.40365026D+00 0.23693429D-01 0.23886003D+06 0.23886003D+06 0.23886003D+06 0.10919515D+01  1  2 15  1  7  1        2 0.603203895193D-04 0.100000000000D+01
0.103537426078D-03 0.000000000000D+00 0.000000000000D+00 0.108793343068D-06 0.000000000000D+00  7 2 -2 24 -13 13 -24 21 2 0.47087112D+00 0.23693429D-01 0.31555910D+06 0.31555910D+06 0.31555910D+06 0.10829309D+01  1  2 12  1  7  1        2 0.374949926691D-03 0.100000000000D+01
-.899111444096D-04 0.000000000000D+00 0.000000000000D+00 0.108793343068D-06 0.000000000000D+00  7 2 -2 24 -13 13 -24 21 2 0.40365026D+00 0.23693429D-01 0.23886003D+06 0.23886003D+06 0.23886003D+06 0.10919515D+01  1  2  4  1  7  1        2 -.623393127346D-03 0.100000000000D+01
-.308500903451D-03 0.000000000000D+00 -.855762761545D-04 0.108793343068D-06 0.000000000000D+00  7 2 -2 24 -13 13 -24 21 2 0.46896118D+00 0.23693429D-01 0.23886003D+06 0.23886003D+06 0.23886003D+06 0.10919515D+01  1  2  5  1  7  1        2 -.117678487759D-02 0.100000000000D+01
0.318697612681D-03 0.000000000000D+00 0.846228497000D-04 0.108793343068D-06 0.000000000000D+00  7 2 -2 24 -13 13 -24 21 2 0.40365026D+00 0.23693429D-01 0.23886003D+06 0.23886003D+06 0.23886003D+06 0.10919515D+01  1  2  6  1  7  1        2 0.220966936581D-02 0.100000000000D+01
0.241297137290D-05 0.000000000000D+00 0.000000000000D+00 0.108793343068D-06 0.000000000000D+00  7 21 -2 24 -13 13 -24 -2 2 0.47087112D+00 0.23693429D-01 0.31555910D+06 0.31555910D+06 0.31555910D+06 0.10829309D+01  1  2 12  3  7  1        2 0.541497128976D-06 0.100000000000D+01
-.644237057213D-05 0.000000000000D+00 -.195177400121D-05 0.108793343068D-06 0.000000000000D+00  7 21 -2 24 -13 13 -24 -2 2 0.46896118D+00 0.23693429D-01 0.23886003D+06 0.23886003D+06 0.23886003D+06 0.10919515D+01  1  2  5  3  7  1        2 -.157025571597D-05 0.100000000000D+01
  </mgrwgt>
  </event>
  <event>
  8     66 0.26993063E-05 0.30673834E+03 0.75467711E-02 0.89057241E-01
        2 -1    0    0  501    0 0.00000000E+00 0.00000000E+00 0.14179229E+04 0.14179229E+04 0.32000000E+00 0.0000E+00 0.9000E+01
       -2 -1    0    0    0  501 0.00000000E+00 0.00000000E+00 -.27824058E+03 0.27824076E+03 0.32000000E+00 0.0000E+00 0.9000E+01
       25  2    1    2    0    0 0.53001822E+03 -.86920668E+02 0.26729615E+03 0.66780555E+03 0.29333003E+03 0.0000E+00 0.0000E+00
       23  2    1    2    0    0 -.53001822E+03 0.86920668E+02 0.87238614E+03 0.10283581E+04 0.89377343E+02 0.0000E+00 0.0000E+00
       24  1    3    3    0    0 0.38677548E+02 0.13051679E+02 -.73362432E+01 0.90483896E+02 0.80419002E+02 0.0000E+00 0.9000E+01
      -13  1    4    4    0    0 -.14746785E+03 0.58301717E+02 0.21376774E+03 0.26616258E+03 0.10565837E+00 0.0000E+00 0.9000E+01
       13  1    4    4    0    0 -.38255036E+03 0.28618951E+02 0.65861840E+03 0.76219553E+03 0.10565837E+00 0.0000E+00 0.9000E+01
      -24  1    3    3    0    0 0.49134067E+03 -.99972348E+02 0.27463239E+03 0.57732165E+03 0.80419002E+02 0.0000E+00 0.9000E+01
#aMCatNLO 1  0  0  1  2 0.45962507D+03 0.00000000D+00  -5  7  0 0.00000000D+00 0.00000000D+00 0.00000000D+00 0.00000000D+00 0.00000000D+00
  <mgrwgt>
 0.1479282390D-02    7    2    0
 0.628111343393350D+03 0.000000000000000D+00 0.000000000000000D+00 0.628111343393350D+03
 0.628111343393350D+03 0.000000000000000D+00 0.000000000000000D+00 -.628111343393350D+03
 0.128827862073198D+03 0.386775483501902D+02 0.130516794541619D+02 -.919951249198830D+02
 0.165438432724502D+03 -.147467525798661D+03 0.583017585898456D+02 0.471604580394658D+02
 0.431605888287342D+03 -.382550692594075D+03 0.286189096508101D+02 0.197786673996246D+03
 0.530350503701658D+03 0.491340670042546D+03 -.999723476948177D+02 -.152952007115829D+03
 0.000000000000000D+00 0.000000000000000D+00 0.000000000000000D+00 0.000000000000000D+00
 0.159610467236135D+04 0.000000000000000D+00 0.000000000000000D+00 0.159610467236135D+04
 0.725789186275241D+03 0.000000000000000D+00 0.000000000000000D+00 -.725789186275241D+03
 0.122518687011567D+03 -.546286410005952D+01 0.711806290132501D+01 -.919951249198830D+02
 0.226796444752376D+03 -.216350147550367D+03 0.490421472282753D+02 0.471604580394658D+02
 0.596912120446792D+03 -.563174652952185D+03 0.433836351346247D+01 0.197786673996246D+03
 0.391438864856774D+03 0.329459939757673D+03 -.121733317461158D+03 -.152952007115829D+03
 0.984227741569078D+03 0.455527724844938D+03 0.612347438180947D+02 0.870315486086106D+03
0.163808181354D-03 0.000000000000D+00 0.000000000000D+00 0.128853650861D-07 0.000000000000D+00  7 2 -2 24 -13 13 -24 21 0 0.21814200D+00 0.42806259D-01 0.32501180D+06 0.32501180D+06 0.32501180D+06 0.10819882D+01  1  2  2  1  7  1        2 0.151726920356D-02 0.100000000000D+01
-.899654066548D-05 0.000000000000D+00 -.629066548084D-06 0.128853650861D-07 0.000000000000D+00  7 2 -2 24 -13 13 -24 21 2 0.21814200D+00 0.42806259D-01 0.32501180D+06 0.32501180D+06 0.32501180D+06 0.10819882D+01  1  2  3  1  7  1        2 -.975545747810D-04 0.100000000000D+01
0.104502814711D-04 0.000000000000D+00 0.000000000000D+00 0.128853650861D-07 0.000000000000D+00  7 2 -2 24 -13 13 -24 21 2 0.21814200D+00 0.42806259D-01 0.32501180D+06 0.32501180D+06 0.32501180D+06 0.10819882D+01  1  2 15  1  7  1        2 0.113318307910D-03 0.100000000000D+01
0.127581010583D-04 0.000000000000D+00 0.000000000000D+00 0.128853650861D-07 0.000000000000D+00  7 2 -2 24 -13 13 -24 21 2 0.54459848D+00 0.42806259D-01 0.71055863D+06 0.71055863D+06 0.71055863D+06 0.10578877D+01  1  2 12  1  7  1        2 0.672535731620D-05 0.100000000000D+01
-.133055162814D-03 0.000000000000D+00 -.444207154473D-04 0.128853650861D-07 0.000000000000D+00  7 2 -2 24 -13 13 -24 21 2 0.56817587D+00 0.42806259D-01 0.32501180D+06 0.32501180D+06 0.32501180D+06 0.10819882D+01  1  2  5  1  7  1        2 -.603571222433D-04 0.100000000000D+01
0.128457622073D-05 0.000000000000D+00 0.000000000000D+00 0.128853650861D-07 0.000000000000D+00  7 21 -2 24 -13 13 -24 -2 2 0.54459848D+00 0.42806259D-01 0.71055863D+06 0.71055863D+06 0.71055863D+06 0.10578877D+01  1  2 12  3  7  1        2 0.218164490521D-07 0.100000000000D+01
-.114447733236D-04 0.000000000000D+00 -.471292607144D-05 0.128853650861D-07 0.000000000000D+00  7 21 -2 24 -13 13 -24 -2 2 0.56817587D+00 0.42806259D-01 0.32501180D+06 0.32501180D+06 0.32501180D+06 0.10819882D+01  1  2  5  3  7  1        2 -.140598055249D-06 0.100000000000D+01
  </mgrwgt>
  </event>
  <event>
  8     66 0.26993063E-05 0.15856109E+03 0.75467711E-02 0.10018736E+00
        2 -1    0    0  501    0 0.00000000E+00 0.00000000E+00 0.97829819E+03 0.97829824E+03 0.32000000E+00 0.0000E+00 0.9000E+01
       -2 -1    0    0    0  501 0.00000000E+00 0.00000000E+00 -.16846275E+03 0.16846305E+03 0.32000000E+00 0.0000E+00 0.9000E+01
       25  2    1    2    0    0 -.52760304E+02 0.75458824E+02 -.12498129E+02 0.31428932E+03 0.30023973E+03 0.0000E+00 0.0000E+00
       23  2    1    2    0    0 0.52760304E+02 -.75458824E+02 0.82233357E+03 0.83247197E+03 0.91101033E+02 0.0000E+00 0.0000E+00
       24  1    3    3    0    0 -.14499679E+02 0.51545251E+02 0.11925069E+03 0.15347670E+03 0.80419002E+02 0.0000E+00 0.9000E+01
      -13  1    4    4    0    0 0.67527664E+02 -.19305094E+02 0.39245481E+03 0.39868969E+03 0.10565837E+00 0.0000E+00 0.9000E+01
       13  1    4    4    0    0 -.14767360E+02 -.56153730E+02 0.42987875E+03 0.43378228E+03 0.10565837E+00 0.0000E+00 0.9000E+01
      -24  1    3    3    0    0 -.38260625E+02 0.23913573E+02 -.13174882E+03 0.16081263E+03 0.80419002E+02 0.0000E+00 0.9000E+01
#aMCatNLO 1  0  0  2  2 0.24755095D+03 0.00000000D+00  -5  7  0 0.00000000D+00 0.00000000D+00 0.00000000D+00 0.00000000D+00 0.00000000D+00
  <mgrwgt>
 0.6850541845D-03    4    2    0
 0.405964291940805D+03 0.000000000000000D+00 0.000000000000000D+00 0.405964291940805D+03
 0.405964291940805D+03 0.000000000000000D+00 0.000000000000000D+00 -.405964291940805D+03
 0.978259694663760D+02 -.144996793407184D+02 0.515452506856677D+02 0.153476636148244D+02
 0.171662965411055D+03 0.675277744337039D+02 -.193050448933817D+02 0.156638081625805D+03
 0.183900037357638D+03 -.147674705423711D+02 -.561537790816623D+02 0.174493262473853D+03
 0.358539611646540D+03 -.382606245506144D+02 0.239135732893762D+02 -.346479007714482D+03
 0.000000000000000D+00 0.000000000000000D+00 -.000000000000000D+00 0.000000000000000D+00
 0.555369263462573D+03 0.000000000000000D+00 0.000000000000000D+00 0.555369263462573D+03
 0.541403616086560D+03 0.000000000000000D+00 0.000000000000000D+00 -.541403616086560D+03
 0.117713821759513D+03 -.327664816778807D+02 0.779752190050090D+02 0.153476636148244D+02
 0.162916569902666D+03 0.391724614639971D+02 0.217218414571487D+02 0.156638081625805D+03
 0.180733344556009D+03 -.456698198258363D+02 -.114416232549361D+02 0.174493262473853D+03
 0.387464571834652D+03 -.101483804293169D+03 0.115390264546075D+03 -.346479007714482D+03
 0.247944571496295D+03 0.140747644332889D+03 -.203645701753297D+03 0.139656473760131D+02
0.215071543537D-04 0.000000000000D+00 0.000000000000D+00 0.304429539577D-05 0.000000000000D+00  7 2 -2 24 -13 13 -24 21 0 0.15050744D+00 0.25917373D-01 0.25141618D+05 0.25141618D+05 0.25141618D+05 0.11745225D+01  1  2  2  2  7  2       -2 0.933165674004D-03 0.100000000000D+01
0.891533128729D-07 0.000000000000D+00 -.825931356822D-07 0.304429539577D-05 0.000000000000D+00  7 2 -2 24 -13 13 -24 21 2 0.15050744D+00 0.25917373D-01 0.25141618D+05 0.25141618D+05 0.25141618D+05 0.11745225D+01  1  2  3  2  7  2       -2 0.533624767116D-05 0.100000000000D+01
0.133079886731D-05 0.000000000000D+00 0.000000000000D+00 0.304429539577D-05 0.000000000000D+00  7 2 -2 24 -13 13 -24 21 2 0.15050744D+00 0.25917373D-01 0.25141618D+05 0.25141618D+05 0.25141618D+05 0.11745225D+01  1  2 15  2  7  2       -2 0.796546098805D-04 0.100000000000D+01
-.556517980340D-05 0.000000000000D+00 0.000000000000D+00 0.304429539577D-05 0.000000000000D+00  7 2 -2 24 -13 13 -24 21 2 0.15050744D+00 0.25917373D-01 0.25141618D+05 0.25141618D+05 0.25141618D+05 0.11745225D+01  1  2  4  2  7  2       -2 -.333102347053D-03 0.100000000000D+01
  </mgrwgt>
  </event>
  <event>
  9     66 0.26993063E-05 0.25452384E+03 0.75467711E-02 0.96617999E-01
        2 -1    0    0  501    0 0.00000000E+00 0.00000000E+00 0.49928411E+03 0.49928422E+03 0.32000000E+00 0.0000E+00 0.9000E+01
       21 -1    0    0  502  501 0.00000000E+00 0.00000000E+00 -.44897855E+03 0.44897917E+03 0.75000000E+00 0.0000E+00 0.9000E+01
       25  2    1    2    0    0 -.43610293E-01 0.10142785E+02 -.58659888E+02 0.30440608E+03 0.29852840E+03 0.0000E+00 0.0000E+00
       23  2    1    2    0    0 0.17775433E+03 -.21012465E+03 0.21059678E+03 0.35767053E+03 0.88477284E+02 0.0000E+00 0.0000E+00
       24  1    3    3    0    0 -.22916123E+02 0.12267137E+03 -.69249523E+02 0.16381736E+03 0.80419002E+02 0.0000E+00 0.9000E+01
      -11  1    4    4    0    0 0.18171447E+03 -.18124893E+03 0.20383622E+03 0.32775071E+03 0.51099893E-03 0.0000E+00 0.9000E+01
       11  1    4    4    0    0 -.39601446E+01 -.28875721E+02 0.67605608E+01 0.29919813E+02 0.51099893E-03 0.0000E+00 0.9000E+01
      -24  1    3    3    0    0 0.22872512E+02 -.11252858E+03 0.10589635E+02 0.14058873E+03 0.80419002E+02 0.0000E+00 0.9000E+01
        2  1    1    2  502    0 -.17771072E+03 0.19998187E+03 -.10163133E+03 0.28618678E+03 0.32000000E+00 0.0000E+00 0.9000E+01
#aMCatNLO 2  0  0  2  2 0.26753289D+03 0.00000000D+00  -5  7  0 0.00000000D+00 0.00000000D+00 0.00000000D+00 0.00000000D+00 0.00000000D+00
  <mgrwgt>
 0.1300128443D-03    1    2    0
 0.293124022205153D+03 0.000000000000000D+00 0.000000000000000D+00 0.293124022205153D+03
 0.293124022205153D+03 0.000000000000000D+00 0.000000000000000D+00 -.293124022205153D+03
 0.251746146740541D+03 -.859312556392736D+02 0.193583715688791D+03 -.109772814342709D+03
 0.200404470698063D+03 0.111089408035997D+03 -.101772957657639D+03 0.132149008273234D+03
 0.233879999151544D+02 -.115462601657379D+02 -.203388948872713D+02 -.108494151405683D+00
 0.110709427056547D+03 -.136118922309852D+02 -.714718631438802D+02 -.222676997791186D+02
 0.000000000000000D+00 -.000000000000000D+00 0.000000000000000D+00 -.000000000000000D+00
 0.395254430094626D+03 0.000000000000000D+00 0.000000000000000D+00 0.395254430094626D+03
 0.567148908615031D+03 0.000000000000000D+00 0.000000000000000D+00 -.567148908615031D+03
 0.184636670829850D+03 -.229161225039968D+02 0.122671369200081D+03 -.109772814342709D+03
 0.288677473042519D+03 0.181714470613996D+03 -.181248928890877D+03 0.132149008273234D+03
 0.291462141699341D+02 -.396014457768545D+01 -.288757213655799D+02 -.108494151405683D+00
 0.141946822553940D+03 0.228725122084640D+02 -.112528583971406D+03 -.222676997791186D+02
 0.317996158113414D+03 -.177710715740778D+03 0.199981865027781D+03 -.171894478520405D+03
0.722732105696D-06 0.000000000000D+00 0.000000000000D+00 0.294476206673D-07 0.422533219873D-12  7 2 21 24 -11 11 -24 2 2 0.76812983D-01 0.69073666D-01 0.17723392D+06 0.17723392D+06 0.17723392D+06 0.11018791D+01  1  2  1  4  7  2       -2 0.130012844306D-03 0.100000000000D+01
  </mgrwgt>
  </event>
  <event>
  7     66 0.26993063E-05 0.41825939E+03 0.75467711E-02 0.93609094E-01
        2 -1    0    0  501    0 0.00000000E+00 0.00000000E+00 0.21634492E+04 0.21634492E+04 0.32000000E+00 0.0000E+00 0.9000E+01
       -2 -1    0    0    0  501 0.00000000E+00 0.00000000E+00 -.11287120E+03 0.11287165E+03 0.32000000E+00 0.0000E+00 0.9000E+01
       23  2    1    2    0    0 -.38014259E+02 -.38598654E+03 0.42978890E+03 0.58590767E+03 0.90214182E+02 0.0000E+00 0.0000E+00
       24  1    1    2    0    0 -.32301399E+02 0.61669928E+02 0.70613895E+03 0.71410503E+03 0.80419002E+02 0.0000E+00 0.9000E+01
      -11  1    3    3    0    0 -.32971152E+02 -.20464299E+03 0.29203437E+03 0.35811999E+03 0.51099893E-03 0.0000E+00 0.9000E+01
       11  1    3    3    0    0 -.50431067E+01 -.18134355E+03 0.13775453E+03 0.22778768E+03 0.51099893E-03 0.0000E+00 0.9000E+01
      -24  1    1    2    0    0 0.70315658E+02 0.32431661E+03 0.91465012E+03 0.97630816E+03 0.80419002E+02 0.0000E+00 0.9000E+01
#aMCatNLO 1  0  0  2  1 0.23581174D+03 0.00000000D+00  -5  7  0 0.00000000D+00 0.00000000D+00 0.00000000D+00 0.00000000D+00 0.00000000D+00
  <mgrwgt>
 0.2777509985D-02    3    2    0
 0.494157510466100D+03 0.000000000000000D+00 0.000000000000000D+00 0.494157510466100D+03
 0.494157510466100D+03 0.000000000000000D+00 0.000000000000000D+00 -.494157510466100D+03
 0.179638258656948D+03 -.323013987328114D+02 0.616699282423892D+02 0.144762314189199D+03
 0.218914755642167D+03 -.329711523097087D+02 -.204642990868851D+03 -.704117862398822D+02
 0.238832181208360D+03 -.504310665332572D+01 -.181343546938938D+03 -.155338005135998D+03
 0.350929825424726D+03 0.703156576958458D+02 0.324316609565400D+03 0.809874771866805D+02
 0.000000000000000D+00 0.000000000000000D+00 -.000000000000000D+00 0.000000000000000D+00
 0.105814357717032D+04 0.000000000000000D+00 0.000000000000000D+00 0.105814357717032D+04
 0.533299698275408D+03 0.000000000000000D+00 0.000000000000000D+00 -.533299698275408D+03
 0.199714322380997D+03 -.342282191058891D+02 0.106258627965720D+03 0.144762314189199D+03
 0.176617290574939D+03 -.349801519658361D+02 -.158152573981546D+03 -.704117862398822D+02
 0.202360187511539D+03 -.728402575336185D+01 -.129486264209369D+03 -.155338005135998D+03
 0.437366149019418D+03 0.663117183014748D+02 0.416972081689588D+03 0.809874771866805D+02
 0.575385325958832D+03 0.101806785236123D+02 -.235591871464392D+03 0.524843878894911D+03
0.151681364413D-03 0.000000000000D+00 0.000000000000D+00 0.281106436986D-08 0.000000000000D+00  7 2 -2 24 -11 11 -24 21 0 0.33283837D+00 0.17364837D-01 0.17494092D+06 0.17494092D+06 0.17494092D+06 0.11023187D+01  1  2  2  2  7  2       -2 0.274411214475D-02 0.100000000000D+01
-.814184668839D-05 0.000000000000D+00 -.582496377967D-06 0.281106436986D-08 0.000000000000D+00  7 2 -2 24 -11 11 -24 21 2 0.33283837D+00 0.17364837D-01 0.17494092D+06 0.17494092D+06 0.17494092D+06 0.11023187D+01  1  2  3  2  7  2       -2 -.178980983925D-03 0.100000000000D+01
0.966111474680D-05 0.000000000000D+00 0.000000000000D+00 0.281106436986D-08 0.000000000000D+00  7 2 -2 24 -11 11 -24 21 2 0.33283837D+00 0.17364837D-01 0.17494092D+06 0.17494092D+06 0.17494092D+06 0.11023187D+01  1  2 15  2  7  2       -2 0.212378823794D-03 0.100000000000D+01
  </mgrwgt>
  </event>
  <event>
  8     66 0.26993063E-05 0.29573143E+03 0.75467711E-02 0.95840380E-01
        2 -1    0    0  501    0 0.00000000E+00 0.00000000E+00 0.68433692E+03 0.68433699E+03 0.32000000E+00 0.0000E+00 0.9000E+01
       -2 -1    0    0    0  501 0.00000000E+00 0.00000000E+00 -.15625534E+03 0.15625567E+03 0.32000000E+00 0.0000E+00 0.9000E+01
       25  2    1    2    0    0 -.15483431E+03 -.19278742E+03 0.28150057E+03 0.47979748E+03 0.29970386E+03 0.0000E+00 0.0000E+00
       23  2    1    2    0    0 0.15483431E+03 0.19278742E+03 0.24658101E+03 0.36079517E+03 0.90721048E+02 0.0000E+00 0.0000E+00
       24  1    3    3    0    0 -.90233179E+02 -.19253374E+03 0.29854729E+03 0.37524521E+03 0.80419002E+02 0.0000E+00 0.9000E+01
      -13  1    4    4    0    0 0.13943403E+03 0.11230246E+03 0.19092493E+03 0.26173657E+03 0.10565837E+00 0.0000E+00 0.9000E+01
       13  1    4    4    0    0 0.15400287E+02 0.80484952E+02 0.55656082E+02 0.99058604E+02 0.10565837E+00 0.0000E+00 0.9000E+01
      -24  1    3    3    0    0 -.64601135E+02 -.25367224E+00 -.17046724E+02 0.10455227E+03 0.80419002E+02 0.0000E+00 0.9000E+01
#aMCatNLO 1  0  0  2  1 0.26522848D+03 0.00000000D+00  -5  7  0 0.00000000D+00 0.00000000D+00 0.00000000D+00 0.00000000D+00 0.00000000D+00
  <mgrwgt>
 0.4327206671D-03    3    2    0
 0.327003769546326D+03 0.000000000000000D+00 0.000000000000000D+00 0.327003769546326D+03
 0.327003769546326D+03 0.000000000000000D+00 0.000000000000000D+00 -.327003769546326D+03
 0.241237350199364D+03 -.902331795793595D+02 -.192533743051538D+03 0.807277787778350D+02
 0.182245586783932D+03 0.139434195577873D+03 0.112302506742249D+03 0.340544561721092D+02
 0.823796229380698D+02 0.154001188569180D+02 0.804849086286986D+02 -.845092288696235D+01
 0.148144979171287D+03 -.646011348554319D+02 -.253672319409247D+00 -.106331312062982D+03
 0.000000000000000D+00 -.000000000000000D+00 -.000000000000000D+00 0.000000000000000D+00
 0.535779620404131D+03 0.000000000000000D+00 0.000000000000000D+00 0.535779620404131D+03
 0.449020430689639D+03 0.000000000000000D+00 0.000000000000000D+00 -.449020430689639D+03
 0.201406268587636D+03 -.811119842541690D+01 -.165874962745210D+03 0.807277787778350D+02
 0.264507802512025D+03 0.222318646768566D+03 0.139208803254522D+03 0.340544561721092D+02
 0.104914498700553D+03 0.501480823983342D+02 0.917649375944688D+02 -.845092288696235D+01
 0.134913597495860D+03 -.120863574771389D+02 0.167938939142802D+02 -.106331312062982D+03
 0.279057883797696D+03 -.252269173264344D+03 -.818926720180602D+02 0.867591897144922D+02
0.560388049794D-05 0.000000000000D+00 0.000000000000D+00 0.474192581440D-06 0.000000000000D+00  7 2 -2 24 -13 13 -24 21 0 0.10528263D+00 0.24039314D-01 0.87457078D+05 0.87457078D+05 0.87457078D+05 0.11265300D+01  1  2  2  2  7  2       -2 0.427816518039D-03 0.100000000000D+01
-.307501946869D-06 0.000000000000D+00 -.215203766477D-07 0.474192581440D-06 0.000000000000D+00  7 2 -2 24 -13 13 -24 21 2 0.10528263D+00 0.24039314D-01 0.87457078D+05 0.87457078D+05 0.87457078D+05 0.11265300D+01  1  2  3  2  7  2       -2 -.297921639178D-04 0.100000000000D+01
0.358120471198D-06 0.000000000000D+00 0.000000000000D+00 0.474192581440D-06 0.000000000000D+00  7 2 -2 24 -13 13 -24 21 2 0.10528263D+00 0.24039314D-01 0.87457078D+05 0.87457078D+05 0.87457078D+05 0.11265300D+01  1  2 15  2  7  2       -2 0.346963129466D-04 0.100000000000D+01
  </mgrwgt>
  </event>
  <event>
  8     66 0.26993063E-05 0.16524423E+03 0.75467711E-02 0.10240582E+00
        2 -1    0    0  501    0 0.00000000E+00 0.00000000E+00 0.18020406E+04 0.18020406E+04 0.32000000E+00 0.0000E+00 0.9000E+01
       -2 -1    0    0    0  501 0.00000000E+00 0.00000000E+00 -.42961312E+02 0.42962504E+02 0.32000000E+00 0.0000E+00 0.9000E+01
       25  2    1    2    0    0 0.15716252E+03 0.15472310E+02 0.80065142E+03 0.86941442E+03 0.29983209E+03 0.0000E+00 0.0000E+00
       23  2    1    2    0    0 -.15716252E+03 -.15472310E+02 0.95842783E+03 0.97558867E+03 0.90828992E+02 0.0000E+00 0.0000E+00
       24  1    3    3    0    0 -.11508768E+02 -.88264285E+02 0.36411283E+03 0.38336458E+03 0.80419002E+02 0.0000E+00 0.9000E+01
      -11  1    4    4    0    0 -.55325041E+02 0.36935268E+02 0.40596356E+03 0.41137755E+03 0.51099893E-03 0.0000E+00 0.9000E+01
       11  1    4    4    0    0 -.10183748E+03 -.52407577E+02 0.55246427E+03 0.56421112E+03 0.51099893E-03 0.0000E+00 0.9000E+01
      -24  1    3    3    0    0 0.16867129E+03 0.10373659E+03 0.43653859E+03 0.48604983E+03 0.80419002E+02 0.0000E+00 0.9000E+01
#aMCatNLO 1  0  0  1  2 0.16292351D+02 0.00000000D+00  -5  7  0 0.00000000D+00 0.00000000D+00 0.00000000D+00 0.00000000D+00 0.00000000D+00
  <mgrwgt>
 0.8766685984D-03    9    2    0
 0.278242972595396D+03 0.000000000000000D+00 0.000000000000000D+00 0.278242972595396D+03
 0.278242972595396D+03 0.000000000000000D+00 0.000000000000000D+00 -.278242972595396D+03
 0.120048890603716D+03 -.115087682661009D+02 -.882642846468890D+02 -.463513641465599D+01
 0.806323551797703D+02 -.553250411429608D+02 0.369352677285891D+02 0.455686572348119D+02
 0.124249035020513D+03 -.101837480938783D+03 -.524075774434854D+02 0.481704889540976D+02
 0.231555664386793D+03 0.168671290347844D+03 0.103736594361785D+03 -.891040097742535D+02
 0.000000000000000D+00 0.000000000000000D+00 0.000000000000000D+00 0.000000000000000D+00
 0.298777532020126D+03 0.000000000000000D+00 0.000000000000000D+00 0.298777532020126D+03
 0.281612701879083D+03 0.000000000000000D+00 0.000000000000000D+00 -.281612701879083D+03
 0.122667775482818D+03 -.125649757006490D+02 -.916559004297707D+02 -.463513641465599D+01
 0.801160582811316D+02 -.560245549922845D+02 0.346890402034763D+02 0.455686572348119D+02
 0.126653731707014D+03 -.102929311062520D+03 -.559135821910060D+02 0.481704889540976D+02
 0.227286825862371D+03 0.166674588360701D+03 0.973249315086421D+02 -.891040097742535D+02
 0.236658425658753D+02 0.484425339475199D+01 0.155555109086582D+02 0.171648301410426D+02
0.305436278063D-05 0.000000000000D+00 0.000000000000D+00 0.508982436660D-06 0.000000000000D+00  7 2 -2 24 -11 11 -24 21 0 0.27723710D+00 0.66095264D-02 0.66238605D+05 0.66238605D+05 0.66238605D+05 0.11367044D+01  1  2  2  1  7  1        2 0.398337591822D-03 0.100000000000D+01
-.168432075008D-06 0.000000000000D+00 -.117295573098D-07 0.508982436660D-06 0.000000000000D+00  7 2 -2 24 -11 11 -24 21 2 0.27723710D+00 0.66095264D-02 0.66238605D+05 0.66238605D+05 0.66238605D+05 0.11367044D+01  1  2  3  1  7  1        2 -.283824941221D-04 0.100000000000D+01
0.196080761221D-06 0.000000000000D+00 0.000000000000D+00 0.508982436660D-06 0.000000000000D+00  7 2 -2 24 -11 11 -24 21 2 0.27723710D+00 0.66095264D-02 0.66238605D+05 0.66238605D+05 0.66238605D+05 0.11367044D+01  1  2 15  1  7  1        2 0.330415750833D-04 0.100000000000D+01
0.150973855011D-04 0.000000000000D+00 0.000000000000D+00 0.508982436660D-06 0.000000000000D+00  7 2 -2 24 -11 11 -24 21 2 0.29929877D+00 0.66095264D-02 0.70489037D+05 0.70489037D+05 0.70489037D+05 0.11344027D+01  1  2 12  1  7  1        2 0.212474585443D-02 0.100000000000D+01
-.153610310168D-04 0.000000000000D+00 0.000000000000D+00 0.508982436660D-06 0.000000000000D+00  7 2 -2 24 -11 11 -24 21 2 0.27723710D+00 0.66095264D-02 0.66238605D+05 0.66238605D+05 0.66238605D+05 0.11367044D+01  1  2  4  1  7  1        2 -.258848780746D-02 0.100000000000D+01
-.336376102889D-04 0.000000000000D+00 -.433220319562D-05 0.508982436660D-06 0.000000000000D+00  7 2 -2 24 -11 11 -24 21 2 0.29909373D+00 0.66095264D-02 0.66238605D+05 0.66238605D+05 0.66238605D+05 0.11367044D+01  1  2  5  1  7  1        2 -.476489176564D-02 0.100000000000D+01
0.338812011184D-04 0.000000000000D+00 0.431975984507D-05 0.508982436660D-06 0.000000000000D+00  7 2 -2 24 -11 11 -24 21 2 0.27723710D+00 0.66095264D-02 0.66238605D+05 0.66238605D+05 0.66238605D+05 0.11367044D+01  1  2  6  1  7  1        2 0.570932223893D-02 0.100000000000D+01
0.206249137741D-06 0.000000000000D+00 0.000000000000D+00 0.508982436660D-06 0.000000000000D+00  7 21 -2 24 -11 11 -24 -2 2 0.29929877D+00 0.66095264D-02 0.70489037D+05 0.70489037D+05 0.70489037D+05 0.11344027D+01  1  2 12  3  7  1        2 0.661317784264D-05 0.100000000000D+01
-.420143439177D-06 0.000000000000D+00 -.552041496478D-07 0.508982436660D-06 0.000000000000D+00  7 21 -2 24 -11 11 -24 -2 2 0.29909373D+00 0.66095264D-02 0.66238605D+05 0.66238605D+05 0.66238605D+05 0.11367044D+01  1  2  5  3  7  1        2 -.136297725183D-04 0.100000000000D+01
  </mgrwgt>
  </event>
  <event>
  8     66 0.26993063E-05 0.13667434E+03 0.75467711E-02 0.96456921E-01
        2 -1    0    0  501    0 0.00000000E+00 0.00000000E+00 0.49945884E+03 0.49945894E+03 0.32000000E+00 0.0000E+00 0.9000E+01
       -2 -1    0    0    0  501 0.00000000E+00 0.00000000E+00 -.23357660E+03 0.23357682E+03 0.32000000E+00 0.0000E+00 0.9000E+01
       25  2    1    2    0    0 0.30076216E+02 -.21640278E+03 0.32326563E+03 0.49135290E+03 0.29865074E+03 0.0000E+00 0.0000E+00
       23  2    1    2    0    0 -.30076216E+02 0.21640278E+03 -.57383388E+02 0.24168286E+03 0.85924425E+02 0.0000E+00 0.0000E+00
       24  1    3    3    0    0 0.54873026E+02 -.38578431E+02 0.26689388E+03 0.28670352E+03 0.80419002E+02 0.0000E+00 0.9000E+01
      -11  1    4    4    0    0 -.53928668E+02 0.14767294E+03 -.61505386E+02 0.16881502E+03 0.51099893E-03 0.0000E+00 0.9000E+01
       11  1    4    4    0    0 0.23852452E+02 0.68729840E+02 0.41219987E+01 0.72867835E+02 0.51099893E-03 0.0000E+00 0.9000E+01
      -24  1    3    3    0    0 -.24796810E+02 -.17782435E+03 0.56371747E+02 0.20464939E+03 0.80419002E+02 0.0000E+00 0.9000E+01
#aMCatNLO 1  0  0  1  2 0.25750986D+03 0.00000000D+00  -5  7  0 0.00000000D+00 0.00000000D+00 0.00000000D+00 0.00000000D+00 0.00000000D+00
  <mgrwgt>
 0.4615257786D-03    7    2    0
 0.341558215482454D+03 0.000000000000000D+00 0.000000000000000D+00 0.341558215482454D+03
 0.341558215482454D+03 0.000000000000000D+00 0.000000000000000D+00 -.341558215482454D+03
 0.203774317383862D+03 0.548730257696931D+02 -.385784309609450D+02 0.174806785275511D+03
 0.205090424237293D+03 -.539286680393785D+02 0.147672943136284D+03 -.131706046720714D+03
 0.765883528001006D+02 0.238524523984027D+02 0.687298402984339D+02 -.239383656870386D+02
 0.197663336543654D+03 -.247968101287173D+02 -.177824352473773D+03 -.191623728677579D+02
 0.000000000000000D+00 -.000000000000000D+00 -.000000000000000D+00 0.000000000000000D+00
 0.575998773974273D+03 0.000000000000000D+00 0.000000000000000D+00 0.575998773974273D+03
 0.443596288492658D+03 0.000000000000000D+00 0.000000000000000D+00 -.443596288492658D+03
 0.207441423274180D+03 0.691649105083474D+02 0.349790095866157D+02 0.174806785275511D+03
 0.269946415760793D+03 -.374186683175708D+02 0.232646572939812D+03 -.131706046720714D+03
 0.108997274168598D+03 0.303025177230984D+02 0.101927022148493D+03 -.239383656870386D+02
 0.143655559952276D+03 -.129342040912188D+02 -.116769918135773D+03 -.191623728677579D+02
 0.289554389311085D+03 -.491145558226561D+02 -.252782686539148D+03 0.132402485481615D+03
0.968209461132D-05 0.000000000000D+00 0.000000000000D+00 0.136114269838D-07 0.000000000000D+00  7 2 -2 24 -11 11 -24 21 0 0.76839846D-01 0.35934886D-01 0.70600942D+05 0.70600942D+05 0.70600942D+05 0.11343442D+01  1  2  2  1  7  1        2 0.525724931132D-03 0.100000000000D+01
-.496652441870D-06 0.000000000000D+00 -.371817926615D-07 0.136114269838D-07 0.000000000000D+00  7 2 -2 24 -11 11 -24 21 2 0.76839846D-01 0.35934886D-01 0.70600942D+05 0.70600942D+05 0.70600942D+05 0.11343442D+01  1  2  3  1  7  1        2 -.347001621659D-04 0.100000000000D+01
0.615415748610D-06 0.000000000000D+00 0.000000000000D+00 0.136114269838D-07 0.000000000000D+00  7 2 -2 24 -11 11 -24 21 2 0.76839846D-01 0.35934886D-01 0.70600942D+05 0.70600942D+05 0.70600942D+05 0.11343442D+01  1  2 15  1  7  1        2 0.429979286838D-04 0.100000000000D+01
0.584931884945D-08 0.000000000000D+00 0.000000000000D+00 0.136114269838D-07 0.000000000000D+00  7 2 -2 24 -11 11 -24 21 2 0.13467251D+00 0.35934886D-01 0.18213421D+06 0.18213421D+06 0.18213421D+06 0.11009602D+01  1  2 12  1  7  1        2 0.194391179106D-06 0.100000000000D+01
-.247059432249D-05 0.000000000000D+00 -.317637179747D-05 0.136114269838D-07 0.000000000000D+00  7 2 -2 24 -11 11 -24 21 2 0.15609764D+00 0.35934886D-01 0.70600942D+05 0.70600942D+05 0.70600942D+05 0.11343442D+01  1  2  5  1  7  1        2 -.727759190088D-04 0.100000000000D+01
0.362385838892D-09 0.000000000000D+00 0.000000000000D+00 0.136114269838D-07 0.000000000000D+00  7 21 -2 24 -11 11 -24 -2 2 0.13467251D+00 0.35934886D-01 0.18213421D+06 0.18213421D+06 0.18213421D+06 0.11009602D+01  1  2 12  3  7  1        2 0.105444136029D-07 0.100000000000D+01
0.345647415982D-08 0.000000000000D+00 -.243472945933D-06 0.136114269838D-07 0.000000000000D+00  7 21 -2 24 -11 11 -24 -2 2 0.15609764D+00 0.35934886D-01 0.70600942D+05 0.70600942D+05 0.70600942D+05 0.11343442D+01  1  2  5  3  7  1        2 0.740643237769D-07 0.100000000000D+01
  </mgrwgt>
  </event>
  <event>
  8     66 0.26993063E-05 0.20815867E+03 0.75467711E-02 0.10469726E+00
        2 -1    0    0  501    0 0.00000000E+00 0.00000000E+00 0.98739093E+03 0.98739098E+03 0.32000000E+00 0.0000E+00 0.9000E+01
       -2 -1    0    0    0  501 0.00000000E+00 0.00000000E+00 -.89459556E+02 0.89460128E+02 0.32000000E+00 0.0000E+00 0.9000E+01
       25  2    1    2    0    0 0.69089277E+02 -.72604746E+02 0.22240070E+03 0.38777775E+03 0.30143778E+03 0.0000E+00 0.0000E+00
       23  2    1    2    0    0 -.69089277E+02 0.72604746E+02 0.67553067E+03 0.68907336E+03 0.91845681E+02 0.0000E+00 0.0000E+00
       24  1    3    3    0    0 -.49316507E+02 0.65256129E+02 0.11258414E+03 0.16072612E+03 0.80419002E+02 0.0000E+00 0.9000E+01
      -11  1    4    4    0    0 -.58554393E+02 0.93601852E+02 0.50471889E+03 0.51665373E+03 0.51099893E-03 0.0000E+00 0.9000E+01
       11  1    4    4    0    0 -.10534884E+02 -.20997106E+02 0.17081178E+03 0.17241963E+03 0.51099893E-03 0.0000E+00 0.9000E+01
      -24  1    3    3    0    0 0.11840578E+03 -.13786088E+03 0.10981656E+03 0.22705163E+03 0.80419002E+02 0.0000E+00 0.9000E+01
#aMCatNLO 1  0  0  1  2 0.14463464D+01 0.00000000D+00  -5  7  0 0.00000000D+00 0.00000000D+00 0.00000000D+00 0.00000000D+00 0.00000000D+00
  <mgrwgt>
 0.1095280933D-02   10    2    0
 0.297206814288458D+03 0.000000000000000D+00 0.000000000000000D+00 0.297206814288458D+03
 0.297206814288458D+03 0.000000000000000D+00 0.000000000000000D+00 -.297206814288458D+03
 0.121102987498519D+03 -.493165074011821D+02 0.652561286207066D+02 -.388360322623585D+02
 0.173542826819897D+03 -.585543927575792D+02 0.936018524061257D+02 0.133892453318228D+03
 0.543275012086147D+02 -.105348841549061D+02 -.209971059700855D+02 0.489858667811006D+02
 0.245440313049885D+03 0.118405784313667D+03 -.137860875056747D+03 -.144042287836970D+03
 0.000000000000000D+00 0.000000000000000D+00 -.000000000000000D+00 0.000000000000000D+00
 0.298139464674562D+03 0.000000000000000D+00 0.000000000000000D+00 0.298139464674562D+03
 0.297768969087358D+03 0.000000000000000D+00 0.000000000000000D+00 -.297768969087358D+03
 0.121301142172238D+03 -.494670909397471D+02 0.655096989002005D+02 -.388360322623585D+02
 0.173811917037794D+03 -.587701725239490D+02 0.939652077648119D+02 0.133892453318228D+03
 0.542968220696857D+02 -.106023625225218D+02 -.208834779553693D+02 0.489858667811006D+02
 0.245005506943012D+03 0.118101115135179D+03 -.137347837247444D+03 -.144042287836970D+03
 0.149304553918946D+01 0.738510851038478D+00 -.124359146219902D+01 0.370495587204014D+00
0.312393872416D-05 0.000000000000D+00 0.000000000000D+00 0.149875510341D-06 0.000000000000D+00  7 2 -2 24 -11 11 -24 21 0 0.15190634D+00 0.13763057D-01 0.50027063D+05 0.50027063D+05 0.50027063D+05 0.11472747D+01  1  2  2  1  7  1        2 0.371876936982D-03 0.100000000000D+01
-.156500395324D-06 0.000000000000D+00 -.119967472527D-07 0.149875510341D-06 0.000000000000D+00  7 2 -2 24 -11 11 -24 21 2 0.15190634D+00 0.13763057D-01 0.50027063D+05 0.50027063D+05 0.50027063D+05 0.11472747D+01  1  2  3  1  7  1        2 -.245214995124D-04 0.100000000000D+01
0.190977151026D-06 0.000000000000D+00 0.000000000000D+00 0.149875510341D-06 0.000000000000D+00  7 2 -2 24 -11 11 -24 21 2 0.15190634D+00 0.13763057D-01 0.50027063D+05 0.50027063D+05 0.50027063D+05 0.11472747D+01  1  2 15  1  7  1        2 0.299235417653D-04 0.100000000000D+01
-.124579179236D-03 0.000000000000D+00 0.000000000000D+00 0.149875510341D-06 0.000000000000D+00  7 2 -2 24 -11 11 -24 21 2 0.15190634D+00 0.13763057D-01 0.50027063D+05 0.50027063D+05 0.50027063D+05 0.11472747D+01  1  2  4  1  7  1        2 -.195198758224D-01 0.100000000000D+01
-.936869372248D-03 0.000000000000D+00 -.858735435579D-04 0.149875510341D-06 0.000000000000D+00  7 2 -2 24 -11 11 -24 21 2 0.15257949D+00 0.13763057D-01 0.50027063D+05 0.50027063D+05 0.50027063D+05 0.11472747D+01  1  2  5  1  7  1        2 -.145905656425D+00 0.100000000000D+01
0.937240740407D-03 0.000000000000D+00 0.858727041641D-04 0.149875510341D-06 0.000000000000D+00  7 2 -2 24 -11 11 -24 21 2 0.15190634D+00 0.13763057D-01 0.50027063D+05 0.50027063D+05 0.50027063D+05 0.11472747D+01  1  2  6  1  7  1        2 0.146852973191D+00 0.100000000000D+01
0.124580006787D-03 0.000000000000D+00 0.000000000000D+00 0.149875510341D-06 0.502727685052D-06  7 2 -2 24 -11 11 -24 21 2 0.15238303D+00 0.13789089D-01 0.50356331D+05 0.50356331D+05 0.50356331D+05 0.11470242D+01  1  2 11  1  7  1        2 0.193698182644D-01 0.100000000000D+01
0.159658527805D-10 0.000000000000D+00 0.000000000000D+00 0.149875510341D-06 0.000000000000D+00  7 21 -2 24 -11 11 -24 -2 2 0.15252634D+00 0.13763057D-01 0.50356331D+05 0.50356331D+05 0.50356331D+05 0.11470242D+01  1  2 12  3  7  1        2 0.190689346751D-08 0.100000000000D+01
-.770942550949D-06 0.000000000000D+00 -.707220602109D-07 0.149875510341D-06 0.000000000000D+00  7 21 -2 24 -11 11 -24 -2 2 0.15257949D+00 0.13763057D-01 0.50027063D+05 0.50027063D+05 0.50027063D+05 0.11472747D+01  1  2  5  3  7  1        2 -.920549064317D-04 0.100000000000D+01
0.107157757908D-06 0.000000000000D+00 0.000000000000D+00 0.149875510341D-06 0.294486820920D-09  7 21 -2 24 -11 11 -24 -2 2 0.15238303D+00 0.13789089D-01 0.50356331D+05 0.50356331D+05 0.50356331D+05 0.11470242D+01  1  2 11  3  7  1        2 0.127957450194D-04 0.100000000000D+01
  </mgrwgt>
  </event>
  <event>
  8     66 0.26993063E-05 0.33396110E+03 0.75467711E-02 0.93975145E-01
        2 -1    0    0  501    0 0.00000000E+00 0.00000000E+00 0.30607920E+04 0.30607920E+04 0.32000000E+00 0.0000E+00 0.9000E+01
       -2 -1    0    0    0  501 0.00000000E+00 0.00000000E+00 -.46217430E+02 0.46218538E+02 0.32000000E+00 0.0000E+00 0.9000E+01
       25  2    1    2    0    0 -.26839965E+03 0.12618741E+03 0.14509423E+04 0.15110406E+04 0.30008094E+03 0.0000E+00 0.0000E+00
       23  2    1    2    0    0 0.26839965E+03 -.12618741E+03 0.15636323E+04 0.15959700E+04 0.11921625E+03 0.0000E+00 0.0000E+00
       24  1    3    3    0    0 -.37653787E+02 0.32273564E+02 0.11100021E+03 0.14576575E+03 0.80419002E+02 0.0000E+00 0.9000E+01
      -13  1    4    4    0    0 0.23361439E+03 -.14206581E+03 0.12225931E+04 0.12527938E+04 0.10565837E+00 0.0000E+00 0.9000E+01
       13  1    4    4    0    0 0.34785256E+02 0.15878402E+02 0.34103923E+03 0.34317620E+03 0.10565837E+00 0.0000E+00 0.9000E+01
      -24  1    3    3    0    0 -.23074586E+03 0.93913846E+02 0.13399421E+04 0.13652749E+04 0.80419002E+02 0.0000E+00 0.9000E+01
#aMCatNLO 1  0  0  1  2 0.31270987D+03 0.00000000D+00  -5  7  0 0.00000000D+00 0.00000000D+00 0.00000000D+00 0.00000000D+00 0.00000000D+00
  <mgrwgt>
 0.8530783883D-03    3    2    0
 0.376116588265869D+03 0.000000000000000D+00 0.000000000000000D+00 0.376116588265869D+03
 0.376116588265869D+03 0.000000000000000D+00 0.000000000000000D+00 -.376116588265869D+03
 0.157234912786112D+03 -.376538100353444D+02 0.322735749381958D+02 -.125682969391308D+03
 0.274975363395578D+03 0.233614581676579D+03 -.142065868631288D+03 0.292055931739867D+02
 0.507338957554078D+02 0.347851274859690D+02 0.158784296495157D+02 0.333436434147626D+02
 0.269289004594641D+03 -.230745899127204D+03 0.939138640435769D+02 0.631337328025586D+02
 0.000000000000000D+00 -.000000000000000D+00 -.000000000000000D+00 -.000000000000000D+00
 0.425209386532067D+03 0.000000000000000D+00 0.000000000000000D+00 0.425209386532067D+03
 0.177396930908684D+04 0.000000000000000D+00 0.000000000000000D+00 -.177396930908684D+04
 0.182073369810679D+03 -.309201787685361D+02 0.996555557395123D+02 -.125682969391308D+03
 0.248680324156816D+03 0.244006618922940D+03 -.380750163741224D+02 0.292055931739867D+02
 0.629490386220051D+02 0.370411848847680D+02 0.384543044352160D+02 0.333436434147626D+02
 0.320939653130950D+03 -.219032709829817D+03 0.211125196990946D+03 0.631337328025586D+02
 0.138453630989845D+04 -.310949152093550D+02 -.311160040791552D+03 -.134875992255477D+04
0.379385853375D-04 0.000000000000D+00 0.000000000000D+00 0.617300690836D-08 0.000000000000D+00  7 2 -2 24 -13 13 -24 21 0 0.47089117D+00 0.71104603D-02 0.11153002D+06 0.11153002D+06 0.11153002D+06 0.11178536D+01  1  2  2  1  7  1        2 0.843514105980D-03 0.100000000000D+01
-.207148584321D-05 0.000000000000D+00 -.145694157155D-06 0.617300690836D-08 0.000000000000D+00  7 2 -2 24 -13 13 -24 21 2 0.47089117D+00 0.71104603D-02 0.11153002D+06 0.11153002D+06 0.11153002D+06 0.11178536D+01  1  2  3  1  7  1        2 -.575523505705D-04 0.100000000000D+01
0.241573373752D-05 0.000000000000D+00 0.000000000000D+00 0.617300690836D-08 0.000000000000D+00  7 2 -2 24 -13 13 -24 21 2 0.47089117D+00 0.71104603D-02 0.11153002D+06 0.11153002D+06 0.11153002D+06 0.11178536D+01  1  2 15  1  7  1        2 0.671166329242D-04 0.100000000000D+01
  </mgrwgt>
  </event>
  <event>
  8     66 0.26993063E-05 0.13458160E+03 0.75467711E-02 0.10172278E+00
        2 -1    0    0  501    0 0.00000000E+00 0.00000000E+00 0.41705734E+03 0.41705746E+03 0.32000000E+00 0.0000E+00 0.9000E+01
       -2 -1    0    0    0  501 0.00000000E+00 0.00000000E+00 -.12404193E+03 0.12404234E+03 0.32000000E+00 0.0000E+00 0.9000E+01
       25  2    1    2    0    0 0.86830703E+02 -.30340572E+02 0.15562021E+03 0.35052659E+03 0.30031837E+03 0.0000E+00 0.0000E+00
       23  2    1    2    0    0 -.86830703E+02 0.30340572E+02 0.13739520E+03 0.19057322E+03 0.94765966E+02 0.0000E+00 0.0000E+00
       24  1    3    3    0    0 -.84875647E+02 -.24947225E+02 0.90613239E+02 0.15001405E+03 0.80419002E+02 0.0000E+00 0.9000E+01
      -11  1    4    4    0    0 0.11427659E+02 0.12846314E+02 -.38557983E+01 0.17620623E+02 0.51099893E-03 0.0000E+00 0.9000E+01
       11  1    4    4    0    0 -.98258362E+02 0.17494257E+02 0.14125100E+03 0.17295259E+03 0.51099893E-03 0.0000E+00 0.9000E+01
      -24  1    3    3    0    0 0.17170635E+03 -.53933468E+01 0.65006971E+02 0.20051255E+03 0.80419002E+02 0.0000E+00 0.9000E+01
#aMCatNLO 1  0  0  2  1 0.11853171D+03 0.00000000D+00  -5  7  0 0.00000000D+00 0.00000000D+00 0.00000000D+00 0.00000000D+00 0.00000000D+00
  <mgrwgt>
 0.7991240966D-03    9    2    0
 0.227448330915628D+03 0.000000000000000D+00 0.000000000000000D+00 0.227448330915628D+03
 0.227448330915628D+03 0.000000000000000D+00 0.000000000000000D+00 -.227448330915628D+03
 0.120074517114503D+03 -.848756462824329D+02 -.249472251420423D+02 0.111550137499754D+02
 0.234433983882716D+02 0.114276578699780D+02 0.128463142753953D+02 -.159365546193562D+02
 0.114742314494384D+03 -.982583624903748D+02 0.174942580537100D+02 0.566131068869077D+02
 0.196636431834097D+03 0.171706350902830D+03 -.539334718706297D+01 -.518315660175270D+02
 0.000000000000000D+00 0.000000000000000D+00 0.000000000000000D+00 -.000000000000000D+00
 0.279340379169442D+03 0.000000000000000D+00 0.000000000000000D+00 0.279340379169442D+03
 0.314335156327178D+03 0.000000000000000D+00 0.000000000000000D+00 -.314335156327178D+03
 0.133420108096717D+03 -.891228284991451D+02 -.571523962640144D+02 0.111550137499754D+02
 0.205182521750791D+02 0.106911012651411D+02 0.726121566426155D+01 -.159365546193562D+02
 0.117401810525918D+03 -.102147827202610D+03 -.119984432807260D+02 0.566131068869077D+02
 0.198745715002844D+03 0.165081910556404D+03 -.556245885273736D+02 -.518315660175270D+02
 0.123589649696062D+03 0.154976438802110D+02 0.117514212407852D+03 -.349947771577359D+02
0.346542920059D-05 0.000000000000D+00 0.000000000000D+00 0.646466557146D-07 0.000000000000D+00  7 2 -2 24 -11 11 -24 21 0 0.64162709D-01 0.19083415D-01 0.45419005D+05 0.45419005D+05 0.45419005D+05 0.11509843D+01  1  2  2  2  7  2       -2 0.675613087611D-03 0.100000000000D+01
-.191532412303D-06 0.000000000000D+00 -.133081605987D-07 0.646466557146D-07 0.000000000000D+00  7 2 -2 24 -11 11 -24 21 2 0.64162709D-01 0.19083415D-01 0.45419005D+05 0.45419005D+05 0.45419005D+05 0.11509843D+01  1  2  3  2  7  2       -2 -.494677469468D-04 0.100000000000D+01
0.225699972143D-06 0.000000000000D+00 0.000000000000D+00 0.646466557146D-07 0.000000000000D+00  7 2 -2 24 -11 11 -24 21 2 0.64162709D-01 0.19083415D-01 0.45419005D+05 0.45419005D+05 0.45419005D+05 0.11509843D+01  1  2 15  2  7  2       -2 0.582923222949D-04 0.100000000000D+01
0.800559823923D-06 0.000000000000D+00 0.000000000000D+00 0.646466557146D-07 0.000000000000D+00  7 2 -2 24 -11 11 -24 21 2 0.64162709D-01 0.27872791D-01 0.78155647D+05 0.78155647D+05 0.78155647D+05 0.11306132D+01  1  2 12  2  7  2       -2 0.106119128294D-03 0.100000000000D+01
-.151645220900D-05 0.000000000000D+00 0.000000000000D+00 0.646466557146D-07 0.000000000000D+00  7 2 -2 24 -11 11 -24 21 2 0.64162709D-01 0.19083415D-01 0.45419005D+05 0.45419005D+05 0.45419005D+05 0.11509843D+01  1  2  4  2  7  2       -2 -.391659423226D-03 0.100000000000D+01
-.201629566137D-05 0.000000000000D+00 -.122460718731D-05 0.646466557146D-07 0.000000000000D+00  7 2 -2 24 -11 11 -24 21 2 0.64162709D-01 0.32021336D-01 0.45419005D+05 0.45419005D+05 0.45419005D+05 0.11509843D+01  1  2  5  2  7  2       -2 -.217324495123D-03 0.100000000000D+01
0.246063604356D-05 0.000000000000D+00 0.107708617735D-05 0.646466557146D-07 0.000000000000D+00  7 2 -2 24 -11 11 -24 21 2 0.64162709D-01 0.19083415D-01 0.45419005D+05 0.45419005D+05 0.45419005D+05 0.11509843D+01  1  2  6  2  7  2       -2 0.635517089080D-03 0.100000000000D+01
0.366228666601D-07 0.000000000000D+00 0.000000000000D+00 0.646466557146D-07 0.000000000000D+00  7 2 21 24 -11 11 -24 2 2 0.64162709D-01 0.27872791D-01 0.78155647D+05 0.78155647D+05 0.78155647D+05 0.11306132D+01  1  2 12  4  7  2       -2 0.588148853884D-04 0.100000000000D+01
-.594813628374D-07 0.000000000000D+00 -.709804652065D-07 0.646466557146D-07 0.000000000000D+00  7 2 21 24 -11 11 -24 2 2 0.64162709D-01 0.32021336D-01 0.45419005D+05 0.45419005D+05 0.45419005D+05 0.11509843D+01  1  2  5  4  7  2       -2 -.767807508201D-04 0.100000000000D+01
  </mgrwgt>
  </event>
  <event>
  8     66 0.26993063E-05 0.11307817E+03 0.75467711E-02 0.10148061E+00
        2 -1    0    0  501    0 0.00000000E+00 0.00000000E+00 0.26165659E+04 0.26165659E+04 0.32000000E+00 0.0000E+00 0.9000E+01
       -2 -1    0    0    0  501 0.00000000E+00 0.00000000E+00 -.36057176E+02 0.36058596E+02 0.32000000E+00 0.0000E+00 0.9000E+01
       25  2    1    2    0    0 -.17556682E+03 -.85247839E+02 0.10965026E+04 0.11530260E+04 0.29842937E+03 0.0000E+00 0.0000E+00
       23  2    1    2    0    0 0.17556682E+03 0.85247839E+02 0.14840061E+04 0.14995985E+04 0.91818587E+02 0.0000E+00 0.0000E+00
       24  1    3    3    0    0 -.79424700E+02 -.16679462E+03 0.72724439E+03 0.75463922E+03 0.80419002E+02 0.0000E+00 0.9000E+01
      -11  1    4    4    0    0 0.17838879E+03 0.97201751E+02 0.14147948E+04 0.14293058E+04 0.51099893E-03 0.0000E+00 0.9000E+01
       11  1    4    4    0    0 -.28219774E+01 -.11953912E+02 0.69211263E+02 0.70292663E+02 0.51099893E-03 0.0000E+00 0.9000E+01
      -24  1    3    3    0    0 -.96142116E+02 0.81546782E+02 0.36925826E+03 0.39838682E+03 0.80419002E+02 0.0000E+00 0.9000E+01
#aMCatNLO 1  0  0  1  2 0.30670527D+01 0.00000000D+00  -5  7  0 0.00000000D+00 0.00000000D+00 0.00000000D+00 0.00000000D+00 0.00000000D+00
  <mgrwgt>
 0.5690853177D-03   11    2    0
 0.307161010898793D+03 0.000000000000000D+00 0.000000000000000D+00 0.307161010898793D+03
 0.307161010898793D+03 0.000000000000000D+00 0.000000000000000D+00 -.307161010898793D+03
 0.203661905187988D+03 -.794247002929902D+02 -.166794620280731D+03 -.297023113445069D+02
 0.228742053042876D+03 0.178388793376847D+03 0.972017507258855D+02 0.105129372126183D+03
 0.127942241984057D+02 -.282197736876054D+01 -.119539121918262D+02 0.358226183847326D+01
 0.169123839368315D+03 -.961421157150965D+02 0.815467817466714D+02 -.790093226201493D+02
 0.000000000000000D+00 0.000000000000000D+00 -.000000000000000D+00 0.000000000000000D+00
 0.367407683054838D+03 0.000000000000000D+00 0.000000000000000D+00 0.367407683054838D+03
 0.307203876056203D+03 0.000000000000000D+00 0.000000000000000D+00 -.307203876056203D+03
 0.203504568335313D+03 -.802527334214184D+02 -.166205189022955D+03 -.297023113445069D+02
 0.228300767825076D+03 0.177459329333518D+03 0.978633850751738D+02 0.105129372126183D+03
 0.127712513530207D+02 -.287396853718220D+01 -.119169025375698D+02 0.358226183847326D+01
 0.169753090491813D+03 -.968312719758173D+02 0.820373541979595D+02 -.790093226201493D+02
 0.602818811058186D+02 0.249864460089967D+01 -.177864771260872D+01 0.602038069986349D+02
0.576777918321D-05 0.000000000000D+00 0.000000000000D+00 0.146862280459D-06 0.000000000000D+00  7 2 -2 24 -11 11 -24 21 0 0.40254871D+00 0.55473686D-02 0.80217194D+05 0.80217194D+05 0.80217194D+05 0.11296637D+01  1  2  2  1  7  1        2 0.348625226285D-03 0.100000000000D+01
-.317868092406D-06 0.000000000000D+00 -.221497907547D-07 0.146862280459D-06 0.000000000000D+00  7 2 -2 24 -11 11 -24 21 2 0.40254871D+00 0.55473686D-02 0.80217194D+05 0.80217194D+05 0.80217194D+05 0.11296637D+01  1  2  3  1  7  1        2 -.245185884756D-04 0.100000000000D+01
0.378074051354D-06 0.000000000000D+00 0.000000000000D+00 0.146862280459D-06 0.000000000000D+00  7 2 -2 24 -11 11 -24 21 2 0.40254871D+00 0.55473686D-02 0.80217194D+05 0.80217194D+05 0.80217194D+05 0.11296637D+01  1  2 15  1  7  1        2 0.291625435202D-04 0.100000000000D+01
0.363780124535D-04 0.000000000000D+00 0.000000000000D+00 0.146862280459D-06 0.000000000000D+00  7 2 -2 24 -11 11 -24 21 2 0.48152936D+00 0.55473686D-02 0.81097143D+05 0.81097143D+05 0.81097143D+05 0.11292666D+01  1  2 12  1  7  1        2 0.136973151974D-02 0.100000000000D+01
-.194138982804D-02 0.000000000000D+00 0.000000000000D+00 0.146862280459D-06 0.000000000000D+00  7 2 -2 24 -11 11 -24 21 2 0.40254871D+00 0.55473686D-02 0.80217194D+05 0.80217194D+05 0.80217194D+05 0.11296637D+01  1  2  4  1  7  1        2 -.149748085454D+00 0.100000000000D+01
-.197896801785D-02 0.000000000000D+00 -.305283509523D-05 0.146862280459D-06 0.000000000000D+00  7 2 -2 24 -11 11 -24 21 2 0.48152063D+00 0.55473686D-02 0.80217194D+05 0.80217194D+05 0.80217194D+05 0.11296637D+01  1  2  5  1  7  1        2 -.746018586517D-01 0.100000000000D+01
0.194822166750D-02 0.000000000000D+00 0.300450090878D-05 0.146862280459D-06 0.000000000000D+00  7 2 -2 24 -11 11 -24 21 2 0.40254871D+00 0.55473686D-02 0.80217194D+05 0.80217194D+05 0.80217194D+05 0.11296637D+01  1  2  6  1  7  1        2 0.150275055804D+00 0.100000000000D+01
0.193663558038D-02 0.000000000000D+00 0.000000000000D+00 0.146862280459D-06 0.107915014121D-06  7 2 -2 24 -11 11 -24 21 2 0.48150476D+00 0.55481427D-02 0.81097143D+05 0.81097143D+05 0.81097143D+05 0.11292666D+01  1  2 11  1  7  1        2 0.729215760800D-01 0.100000000000D+01
0.955885408138D-06 0.000000000000D+00 0.000000000000D+00 0.146862280459D-06 0.000000000000D+00  7 21 -2 24 -11 11 -24 -2 2 0.48152936D+00 0.55473686D-02 0.81097143D+05 0.81097143D+05 0.81097143D+05 0.11292666D+01  1  2 12  3  7  1        2 0.221794296493D-05 0.100000000000D+01
-.519671214253D-04 0.000000000000D+00 -.802113479958D-07 0.146862280459D-06 0.000000000000D+00  7 21 -2 24 -11 11 -24 -2 2 0.48152063D+00 0.55473686D-02 0.80217194D+05 0.80217194D+05 0.80217194D+05 0.11296637D+01  1  2  5  3  7  1        2 -.120813155603D-03 0.100000000000D+01
0.508404536535D-04 0.000000000000D+00 0.000000000000D+00 0.146862280459D-06 0.283291805901D-08  7 21 -2 24 -11 11 -24 -2 2 0.48150476D+00 0.55481427D-02 0.81097143D+05 0.81097143D+05 0.81097143D+05 0.11292666D+01  1  2 11  3  7  1        2 0.117992050268D-03 0.100000000000D+01
  </mgrwgt>
  </event>
  <event>
  8     66 0.26993063E-05 0.28773014E+03 0.75467711E-02 0.92154569E-01
        2 -1    0    0  501    0 0.00000000E+00 0.00000000E+00 0.82883226E+03 0.82883232E+03 0.32000000E+00 0.0000E+00 0.9000E+01
       -2 -1    0    0    0  501 0.00000000E+00 0.00000000E+00 -.37894315E+03 0.37894328E+03 0.32000000E+00 0.0000E+00 0.9000E+01
       25  2    1    2    0    0 0.19057637E+03 0.45599391E+03 0.40059416E+03 0.70284679E+03 0.29877772E+03 0.0000E+00 0.0000E+00
       23  2    1    2    0    0 -.19057637E+03 -.45599391E+03 0.49294950E+02 0.50492881E+03 0.90957770E+02 0.0000E+00 0.0000E+00
       24  1    3    3    0    0 0.17426695E+03 0.43316183E+03 0.26537140E+03 0.54303530E+03 0.80419002E+02 0.0000E+00 0.9000E+01
      -11  1    4    4    0    0 0.23159136E+00 -.76006806E+02 0.20646560E+02 0.78761467E+02 0.51099893E-03 0.0000E+00 0.9000E+01
       11  1    4    4    0    0 -.19080796E+03 -.37998710E+03 0.28648390E+02 0.42616735E+03 0.51099893E-03 0.0000E+00 0.9000E+01
      -24  1    3    3    0    0 0.16309422E+02 0.22832085E+02 0.13522276E+03 0.15981149E+03 0.80419002E+02 0.0000E+00 0.9000E+01
#aMCatNLO 1  0  0  2  1 0.17562394D+03 0.00000000D+00  -5  7  0 0.00000000D+00 0.00000000D+00 0.00000000D+00 0.00000000D+00 0.00000000D+00
  <mgrwgt>
 0.1081900103D-02    9    2    0
 0.560428784537699D+03 0.000000000000000D+00 0.000000000000000D+00 0.560428784537699D+03
 0.560428784537699D+03 0.000000000000000D+00 0.000000000000000D+00 -.560428784537699D+03
 0.478630909185134D+03 0.174266947941881D+03 0.433161826005414D+03 0.679867238488145D+02
 0.765820009540942D+02 0.231591368946802D+00 -.760068061367215D+02 -.936561030929389D+01
 0.447716051979900D+03 -.190807961623411D+03 -.379987104813865D+03 -.140184824987457D+03
 0.117928606956271D+03 0.163094223125838D+02 0.228320849451725D+02 0.815637114479366D+02
 0.000000000000000D+00 0.000000000000000D+00 0.000000000000000D+00 -.000000000000000D+00
 0.608793048745009D+03 0.000000000000000D+00 0.000000000000000D+00 0.608793048745009D+03
 0.752953951430763D+03 0.000000000000000D+00 0.000000000000000D+00 -.752953951430763D+03
 0.412195768416393D+03 0.158655615251836D+03 0.365573982492431D+03 0.679867238488145D+02
 0.891119837864506D+02 -.267212041423455D+01 -.885781619270964D+02 -.936561030929389D+01
 0.517918776832472D+03 -.207730273166968D+03 -.453250711912135D+03 -.140184824987457D+03
 0.115306617128882D+03 0.122220810039087D+02 0.513631289035998D+01 0.815637114479366D+02
 0.227213854011575D+03 0.395246973254577D+02 0.171118578456440D+03 -.144160902685754D+03
0.728277308677D-04 0.000000000000D+00 0.000000000000D+00 0.761879609912D-06 0.000000000000D+00  7 2 -2 24 -11 11 -24 21 0 0.12751267D+00 0.58298961D-01 0.28098571D+06 0.28098571D+06 0.28098571D+06 0.10866621D+01  1  2  2  2  7  2       -2 0.830750099879D-03 0.100000000000D+01
-.403073787322D-05 0.000000000000D+00 -.279677662514D-06 0.761879609912D-06 0.000000000000D+00  7 2 -2 24 -11 11 -24 21 2 0.12751267D+00 0.58298961D-01 0.28098571D+06 0.28098571D+06 0.28098571D+06 0.10866621D+01  1  2  3  2  7  2       -2 -.542934177964D-04 0.100000000000D+01
0.472244707176D-05 0.000000000000D+00 0.000000000000D+00 0.761879609912D-06 0.000000000000D+00  7 2 -2 24 -11 11 -24 21 2 0.12751267D+00 0.58298961D-01 0.28098571D+06 0.28098571D+06 0.28098571D+06 0.10866621D+01  1  2 15  2  7  2       -2 0.636106340707D-04 0.100000000000D+01
0.682044869804D-04 0.000000000000D+00 0.000000000000D+00 0.761879609912D-06 0.000000000000D+00  7 2 -2 24 -11 11 -24 21 2 0.12751267D+00 0.80182924D-01 0.39117723D+06 0.39117723D+06 0.39117723D+06 0.10761266D+01  1  2 12  2  7  2       -2 0.448467989730D-03 0.100000000000D+01
-.752666925914D-04 0.000000000000D+00 0.000000000000D+00 0.761879609912D-06 0.000000000000D+00  7 2 -2 24 -11 11 -24 21 2 0.12751267D+00 0.58298961D-01 0.28098571D+06 0.28098571D+06 0.28098571D+06 0.10866621D+01  1  2  4  2  7  2       -2 -.101383074652D-02 0.100000000000D+01
-.108825182713D-03 0.000000000000D+00 -.311467821218D-04 0.761879609912D-06 0.000000000000D+00  7 2 -2 24 -11 11 -24 21 2 0.12751267D+00 0.83286156D-01 0.28098571D+06 0.28098571D+06 0.28098571D+06 0.10866621D+01  1  2  5  2  7  2       -2 -.677497609495D-03 0.100000000000D+01
0.114457795287D-03 0.000000000000D+00 0.292652011251D-04 0.761879609912D-06 0.000000000000D+00  7 2 -2 24 -11 11 -24 21 2 0.12751267D+00 0.58298961D-01 0.28098571D+06 0.28098571D+06 0.28098571D+06 0.10866621D+01  1  2  6  2  7  2       -2 0.154172885835D-02 0.100000000000D+01
0.275417570221D-05 0.000000000000D+00 0.000000000000D+00 0.761879609912D-06 0.000000000000D+00  7 2 21 24 -11 11 -24 2 2 0.12751267D+00 0.80182924D-01 0.39117723D+06 0.39117723D+06 0.39117723D+06 0.10761266D+01  1  2 12  4  7  2       -2 0.172063464667D-03 0.100000000000D+01
-.386048465508D-05 0.000000000000D+00 -.136404212451D-05 0.761879609912D-06 0.000000000000D+00  7 2 21 24 -11 11 -24 2 2 0.12751267D+00 0.83286156D-01 0.28098571D+06 0.28098571D+06 0.28098571D+06 0.10866621D+01  1  2  5  4  7  2       -2 -.229099169811D-03 0.100000000000D+01
  </mgrwgt>
  </event>
  <event>
  8     66 0.26993063E-05 0.10445411E+03 0.75467711E-02 0.10526671E+00
        2 -1    0    0  501    0 0.00000000E+00 0.00000000E+00 0.28491405E+03 0.28491423E+03 0.32000000E+00 0.0000E+00 0.9000E+01
       -2 -1    0    0    0  501 0.00000000E+00 0.00000000E+00 -.25585404E+03 0.25585424E+03 0.32000000E+00 0.0000E+00 0.9000E+01
       25  2    1    2    0    0 -.43629915E+02 0.81072364E+02 0.16362986E+03 0.35401734E+03 0.30012872E+03 0.0000E+00 0.0000E+00
       23  2    1    2    0    0 0.43629915E+02 -.81072364E+02 -.13456985E+03 0.18675113E+03 0.91052977E+02 0.0000E+00 0.0000E+00
       24  1    3    3    0    0 -.29142703E+02 0.16614470E+03 0.14053714E+03 0.23381887E+03 0.80419002E+02 0.0000E+00 0.9000E+01
      -11  1    4    4    0    0 -.10711617E+02 -.17434126E+02 -.89287708E+02 0.91602305E+02 0.51099893E-03 0.0000E+00 0.9000E+01
       11  1    4    4    0    0 0.54341532E+02 -.63638237E+02 -.45282137E+02 0.95148827E+02 0.51099893E-03 0.0000E+00 0.9000E+01
      -24  1    3    3    0    0 -.14487212E+02 -.85072340E+02 0.23092716E+02 0.12019847E+03 0.80419002E+02 0.0000E+00 0.9000E+01
#aMCatNLO 1  0  0  2  1 0.23484751D+02 0.00000000D+00  -5  7  0 0.00000000D+00 0.00000000D+00 0.00000000D+00 0.00000000D+00 0.00000000D+00
  <mgrwgt>
 0.4549400394D-03    9    2    0
 0.269993542899376D+03 0.000000000000000D+00 0.000000000000000D+00 0.269993542899376D+03
 0.269993542899376D+03 0.000000000000000D+00 0.000000000000000D+00 -.269993542899376D+03
 0.226594049981995D+03 -.291427026231820D+02 0.166144703595222D+03 0.128157277920316D+03
 0.965399755048868D+02 -.107116170279848D+02 -.174341263803736D+02 -.943465917163047D+02
 0.977234202090564D+02 0.543415319894306D+02 -.636382373391927D+02 -.504682029277652D+02
 0.119129640102813D+03 -.144872123382638D+02 -.850723398756556D+02 0.166575167237539D+02
 0.000000000000000D+00 -.000000000000000D+00 -.000000000000000D+00 -.000000000000000D+00
 0.277951399210547D+03 0.000000000000000D+00 0.000000000000000D+00 0.277951399210547D+03
 0.288149583722135D+03 0.000000000000000D+00 0.000000000000000D+00 -.288149583722135D+03
 0.233728133852903D+03 -.275007428758968D+02 0.176014334238206D+03 0.128157277920316D+03
 0.958068292932920D+02 -.100255199375374D+02 -.133100759101119D+02 -.943465917163047D+02
 0.954734649598898D+02 0.550306612990492D+02 -.594959605492554D+02 -.504682029277652D+02
 0.115489107836380D+03 -.136503320974176D+02 -.800419492809895D+02 0.166575167237539D+02
 0.256034469902164D+02 -.385406638819740D+01 -.231663484978492D+02 -.101981845115878D+02
0.374935152354D-05 0.000000000000D+00 0.000000000000D+00 0.116030329721D-05 0.000000000000D+00  7 2 -2 24 -11 11 -24 21 0 0.43832960D-01 0.39362189D-01 0.41815043D+05 0.41815043D+05 0.41815043D+05 0.11541876D+01  1  2  2  2  7  2       -2 0.317553322067D-03 0.100000000000D+01
-.188739585456D-06 0.000000000000D+00 -.143984970773D-07 0.116030329721D-05 0.000000000000D+00  7 2 -2 24 -11 11 -24 21 2 0.43832960D-01 0.39362189D-01 0.41815043D+05 0.41815043D+05 0.41815043D+05 0.11541876D+01  1  2  3  2  7  2       -2 -.212949344673D-04 0.100000000000D+01
0.231368499757D-06 0.000000000000D+00 0.000000000000D+00 0.116030329721D-05 0.000000000000D+00  7 2 -2 24 -11 11 -24 21 2 0.43832960D-01 0.39362189D-01 0.41815043D+05 0.41815043D+05 0.41815043D+05 0.11541876D+01  1  2 15  2  7  2       -2 0.261046299759D-04 0.100000000000D+01
0.993584501415D-05 0.000000000000D+00 0.000000000000D+00 0.116030329721D-05 0.000000000000D+00  7 2 -2 24 -11 11 -24 21 2 0.43832960D-01 0.42560392D-01 0.46425939D+05 0.46425939D+05 0.46425939D+05 0.11501393D+01  1  2 12  2  7  2       -2 0.963380347270D-03 0.100000000000D+01
-.949414473646D-05 0.000000000000D+00 0.000000000000D+00 0.116030329721D-05 0.000000000000D+00  7 2 -2 24 -11 11 -24 21 2 0.43832960D-01 0.39362189D-01 0.41815043D+05 0.41815043D+05 0.41815043D+05 0.11541876D+01  1  2  4  2  7  2       -2 -.107119653515D-02 0.100000000000D+01
-.276427291028D-04 0.000000000000D+00 -.534652999328D-05 0.116030329721D-05 0.000000000000D+00  7 2 -2 24 -11 11 -24 21 2 0.43832960D-01 0.43094062D-01 0.41815043D+05 0.41815043D+05 0.41815043D+05 0.11541876D+01  1  2  5  2  7  2       -2 -.263683372393D-02 0.100000000000D+01
0.280337913388D-04 0.000000000000D+00 0.532467152093D-05 0.116030329721D-05 0.000000000000D+00  7 2 -2 24 -11 11 -24 21 2 0.43832960D-01 0.39362189D-01 0.41815043D+05 0.41815043D+05 0.41815043D+05 0.11541876D+01  1  2  6  2  7  2       -2 0.316297054478D-02 0.100000000000D+01
0.131594708759D-06 0.000000000000D+00 0.000000000000D+00 0.116030329721D-05 0.000000000000D+00  7 2 21 24 -11 11 -24 2 2 0.43832960D-01 0.42560392D-01 0.46425939D+05 0.46425939D+05 0.46425939D+05 0.11501393D+01  1  2 12  4  7  2       -2 0.144811614040D-03 0.100000000000D+01
-.397316757518D-06 0.000000000000D+00 -.796804155024D-07 0.116030329721D-05 0.000000000000D+00  7 2 21 24 -11 11 -24 2 2 0.43832960D-01 0.43094062D-01 0.41815043D+05 0.41815043D+05 0.41815043D+05 0.11541876D+01  1  2  5  4  7  2       -2 -.430555225202D-03 0.100000000000D+01
  </mgrwgt>
  </event>
  <event>
  8     66 0.26993063E-05 0.16720510E+03 0.75467711E-02 0.10422440E+00
        2 -1    0    0  501    0 0.00000000E+00 0.00000000E+00 0.11345215E+04 0.11345215E+04 0.32000000E+00 0.0000E+00 0.9000E+01
       -2 -1    0    0    0  501 0.00000000E+00 0.00000000E+00 -.37167038E+03 0.37167052E+03 0.32000000E+00 0.0000E+00 0.9000E+01
       25  2    1    2    0    0 0.38605985E+02 0.26402274E+02 -.30662263E+03 0.43178311E+03 0.30038594E+03 0.0000E+00 0.0000E+00
       23  2    1    2    0    0 -.38605985E+02 -.26402274E+02 0.10694737E+04 0.10744089E+04 0.91613338E+02 0.0000E+00 0.0000E+00
       24  1    3    3    0    0 0.10034768E+03 0.18039131E+02 -.24853757E+02 0.13221192E+03 0.80419002E+02 0.0000E+00 0.9000E+01
      -13  1    4    4    0    0 -.17882458E+00 -.54951868E+02 0.58594934E+03 0.58852050E+03 0.10565837E+00 0.0000E+00 0.9000E+01
       13  1    4    4    0    0 -.38427160E+02 0.28549594E+02 0.48352437E+03 0.48588842E+03 0.10565837E+00 0.0000E+00 0.9000E+01
      -24  1    3    3    0    0 -.61741696E+02 0.83631425E+01 -.28176888E+03 0.29957119E+03 0.80419002E+02 0.0000E+00 0.9000E+01
#aMCatNLO 1  0  0  2  1 0.10998835D+03 0.00000000D+00  -5  7  0 0.00000000D+00 0.00000000D+00 0.00000000D+00 0.00000000D+00 0.00000000D+00
  <mgrwgt>
 0.4510674283D-03    4    2    0
 0.649359810592920D+03 0.000000000000000D+00 0.000000000000000D+00 0.649359810592920D+03
 0.649359810592920D+03 0.000000000000000D+00 0.000000000000000D+00 -.649359810592920D+03
 0.167931750578342D+03 0.100347681398384D+03 0.180391313132095D+02 -.106483752175480D+03
 0.338358559820749D+03 -.178773719679697D+00 -.549519786488768D+02 0.333866385080172D+03
 0.279493792936427D+03 -.384272113538428D+02 0.285497048701444D+02 0.275363476280688D+03
 0.512935517850322D+03 -.617416963248610D+02 0.836314246552288D+01 -.502746109185380D+03
 0.000000000000000D+00 -.000000000000000D+00 0.000000000000000D+00 0.000000000000000D+00
 0.720725736927014D+03 0.000000000000000D+00 0.000000000000000D+00 0.720725736927014D+03
 0.695489406506809D+03 0.000000000000000D+00 0.000000000000000D+00 -.695489406506809D+03
 0.167924548439113D+03 0.101868774194058D+03 0.392445931823300D+01 -.106483752175480D+03
 0.344195268373253D+03 0.291251179071115D+01 -.836369353760788D+02 0.333866385080172D+03
 0.277741670965186D+03 -.359034925725815D+02 0.513136845677532D+01 0.275363476280688D+03
 0.513507259438433D+03 -.570929381557453D+02 -.347740658150060D+02 -.502746109185380D+03
 0.112846396217838D+03 -.117848552564426D+02 0.109355173416077D+03 0.252363304202052D+02
0.132020910340D-03 0.000000000000D+00 0.000000000000D+00 0.667294554827D-05 0.000000000000D+00  7 2 -2 24 -13 13 -24 21 0 0.17454178D+00 0.57180073D-01 0.27957546D+05 0.27957546D+05 0.27957546D+05 0.11701878D+01  1  2  2  2  7  2       -2 0.109615479126D-02 0.100000000000D+01
0.908128308172D-05 0.000000000000D+00 -.506995057609D-06 0.667294554827D-05 0.000000000000D+00  7 2 -2 24 -13 13 -24 21 2 0.17454178D+00 0.57180073D-01 0.27957546D+05 0.27957546D+05 0.27957546D+05 0.11701878D+01  1  2  3  2  7  2       -2 0.103249393365D-03 0.100000000000D+01
0.806159284949D-05 0.000000000000D+00 0.000000000000D+00 0.667294554827D-05 0.000000000000D+00  7 2 -2 24 -13 13 -24 21 2 0.17454178D+00 0.57180073D-01 0.27957546D+05 0.27957546D+05 0.27957546D+05 0.11701878D+01  1  2 15  2  7  2       -2 0.916560538612D-04 0.100000000000D+01
-.738814267752D-04 0.000000000000D+00 0.000000000000D+00 0.667294554827D-05 0.000000000000D+00  7 2 -2 24 -13 13 -24 21 2 0.17454178D+00 0.57180073D-01 0.27957546D+05 0.27957546D+05 0.27957546D+05 0.11701878D+01  1  2  4  2  7  2       -2 -.839992810140D-03 0.100000000000D+01
  </mgrwgt>
  </event>
  <event>
  8     66 0.26993063E-05 0.28083246E+03 0.75467711E-02 0.96199821E-01
        2 -1    0    0  501    0 0.00000000E+00 0.00000000E+00 0.10852076E+04 0.10852076E+04 0.32000000E+00 0.0000E+00 0.9000E+01
       -2 -1    0    0    0  501 0.00000000E+00 0.00000000E+00 -.10095897E+03 0.10095948E+03 0.32000000E+00 0.0000E+00 0.9000E+01
       25  2    1    2    0    0 -.93581429E+01 0.19288199E+03 0.29203590E+03 0.46177703E+03 0.30110136E+03 0.0000E+00 0.0000E+00
       23  2    1    2    0    0 0.93581429E+01 -.19288199E+03 0.69221273E+03 0.72439009E+03 0.91057740E+02 0.0000E+00 0.0000E+00
       24  1    3    3    0    0 0.12223272E+03 0.10287904E+03 0.15529374E+03 0.23687190E+03 0.80419002E+02 0.0000E+00 0.9000E+01
      -11  1    4    4    0    0 0.33264517E+02 -.16094896E+03 0.62484735E+03 0.64610008E+03 0.51099893E-03 0.0000E+00 0.9000E+01
       11  1    4    4    0    0 -.23906374E+02 -.31933027E+02 0.67365374E+02 0.78290016E+02 0.51099893E-03 0.0000E+00 0.9000E+01
      -24  1    3    3    0    0 -.13159086E+03 0.90002943E+02 0.13674216E+03 0.22490513E+03 0.80419002E+02 0.0000E+00 0.9000E+01
#aMCatNLO 1  0  0  2  1 0.27709774D+03 0.00000000D+00  -5  7  0 0.00000000D+00 0.00000000D+00 0.00000000D+00 0.00000000D+00 0.00000000D+00
  <mgrwgt>
 0.1010344170D-02    3    2    0
 0.331001168212864D+03 0.000000000000000D+00 0.000000000000000D+00 0.331001168212864D+03
 0.331001168212864D+03 0.000000000000000D+00 0.000000000000000D+00 -.331001168212864D+03
 0.193537097039712D+03 0.122232720454536D+03 0.102879042599685D+03 -.739219630437659D+02
 0.228666146435025D+03 0.332645169601227D+02 -.160948958672247D+03 0.158987770407581D+03
 0.401218613472446D+02 -.239063740875455D+02 -.319330267312048D+02 0.430474618740955D+01
 0.199677231603746D+03 -.131590863327113D+03 0.900029428037669D+02 -.893705535512242D+02
 0.000000000000000D+00 -.000000000000000D+00 -.000000000000000D+00 0.000000000000000D+00
 0.105711183830225D+04 0.000000000000000D+00 0.000000000000000D+00 0.105711183830225D+04
 0.386317995410067D+03 0.000000000000000D+00 0.000000000000000D+00 -.386317995410067D+03
 0.253789584658635D+03 0.123859662918850D+03 0.192707718081598D+03 -.739219630437659D+02
 0.180783784303972D+03 0.347537003837463D+02 -.787263986076356D+02 0.158987770407581D+03
 0.299494716358885D+02 -.236515222492234D+02 -.178618450005974D+02 0.430474618740955D+01
 0.253133241544927D+03 -.129943976125450D+03 0.180932830761385D+03 -.893705535512242D+02
 0.725773751568898D+03 -.501786492792346D+01 -.277052305234751D+03 0.670793842892187D+03
0.116096716961D-04 0.000000000000D+00 0.000000000000D+00 0.409349052537D-06 0.000000000000D+00  7 2 -2 24 -11 11 -24 21 0 0.16695506D+00 0.15532192D-01 0.78866871D+05 0.78866871D+05 0.78866871D+05 0.11302825D+01  1  2  2  2  7  2       -2 0.995699591046D-03 0.100000000000D+01
-.623796178125D-06 0.000000000000D+00 -.445841962097D-07 0.409349052537D-06 0.000000000000D+00  7 2 -2 24 -11 11 -24 21 2 0.16695506D+00 0.15532192D-01 0.78866871D+05 0.78866871D+05 0.78866871D+05 0.11302825D+01  1  2  3  2  7  2       -2 -.683478924785D-04 0.100000000000D+01
0.757454032773D-06 0.000000000000D+00 0.000000000000D+00 0.409349052537D-06 0.000000000000D+00  7 2 -2 24 -11 11 -24 21 2 0.16695506D+00 0.15532192D-01 0.78866871D+05 0.78866871D+05 0.78866871D+05 0.11302825D+01  1  2 15  2  7  2       -2 0.829924719080D-04 0.100000000000D+01
  </mgrwgt>
  </event>
  <event>
  8     66 0.26993063E-05 0.10346943E+03 0.75467711E-02 0.10582059E+00
        2 -1    0    0  501    0 0.00000000E+00 0.00000000E+00 0.14349180E+04 0.14349181E+04 0.32000000E+00 0.0000E+00 0.9000E+01
       -2 -1    0    0    0  501 0.00000000E+00 0.00000000E+00 -.32827740E+02 0.32829300E+02 0.32000000E+00 0.0000E+00 0.9000E+01
       25  2    1    2    0    0 -.33146157E+02 -.63687605E+02 0.87055103E+03 0.92383480E+03 0.30076049E+03 0.0000E+00 0.0000E+00
       23  2    1    2    0    0 0.33146157E+02 0.63687605E+02 0.53153925E+03 0.54391255E+03 0.90289038E+02 0.0000E+00 0.0000E+00
       24  1    3    3    0    0 0.91324900E+02 0.33640939E+02 0.27791614E+03 0.30524834E+03 0.80419002E+02 0.0000E+00 0.9000E+01
      -13  1    4    4    0    0 0.33647376E+02 0.15942451E+02 0.64783794E+02 0.74721207E+02 0.10565837E+00 0.0000E+00 0.9000E+01
       13  1    4    4    0    0 -.50121861E+00 0.47745154E+02 0.46675545E+03 0.46919134E+03 0.10565837E+00 0.0000E+00 0.9000E+01
      -24  1    3    3    0    0 -.12447106E+03 -.97328544E+02 0.59263489E+03 0.61858647E+03 0.80419002E+02 0.0000E+00 0.9000E+01
#aMCatNLO 1  0  0  1  2 0.23304568D+02 0.00000000D+00  -5  7  0 0.00000000D+00 0.00000000D+00 0.00000000D+00 0.00000000D+00 0.00000000D+00
  <mgrwgt>
 0.1419185830D-02    9    2    0
 0.217039827155389D+03 0.000000000000000D+00 0.000000000000000D+00 0.217039827155389D+03
 0.217039827155389D+03 0.000000000000000D+00 0.000000000000000D+00 -.217039827155389D+03
 0.134454393371211D+03 0.913248892629863D+02 0.336409186452631D+02 -.462473905886139D+02
 0.434000888224725D+02 0.336474123826428D+02 0.159424294789490D+02 -.222992890482996D+02
 0.788359692992225D+02 -.501230971980640D+00 0.477452223802078D+02 0.627315914250961D+02
 0.177389202817872D+03 -.124471070673648D+03 -.973285705044199D+02 0.581508821181745D+01
 0.000000000000000D+00 -.000000000000000D+00 -.000000000000000D+00 0.000000000000000D+00
 0.249066460940188D+03 0.000000000000000D+00 0.000000000000000D+00 0.249066460940188D+03
 0.221633637678065D+03 0.000000000000000D+00 0.000000000000000D+00 -.221633637678065D+03
 0.137068875527099D+03 0.922603422433812D+02 0.408640281515569D+02 -.462473905886139D+02
 0.445434191247757D+02 0.339503956847717D+02 0.182819180643950D+02 -.222992890482996D+02
 0.814881295590103D+02 0.511182123621259D-01 0.520101921091359D+02 0.627315914250961D+02
 0.171604359721570D+03 -.123268716748179D+03 -.880445826920970D+02 0.581508821181745D+01
 0.359953146857983D+02 -.299313939233593D+01 -.231115556329908D+02 0.274328232621229D+02
0.272709081624D-05 0.000000000000D+00 0.000000000000D+00 0.151530650718D-06 0.000000000000D+00  7 2 -2 24 -13 13 -24 21 0 0.22075674D+00 0.50505443D-02 0.37737975D+05 0.37737975D+05 0.37737975D+05 0.11582009D+01  1  2  2  1  7  1        2 0.829927726911D-03 0.100000000000D+01
-.149240739799D-06 0.000000000000D+00 -.104727467939D-07 0.151530650718D-06 0.000000000000D+00  7 2 -2 24 -13 13 -24 21 2 0.22075674D+00 0.50505443D-02 0.37737975D+05 0.37737975D+05 0.37737975D+05 0.11582009D+01  1  2  3  1  7  1        2 -.609250497676D-04 0.100000000000D+01
0.176974123924D-06 0.000000000000D+00 0.000000000000D+00 0.151530650718D-06 0.000000000000D+00  7 2 -2 24 -13 13 -24 21 2 0.22075674D+00 0.50505443D-02 0.37737975D+05 0.37737975D+05 0.37737975D+05 0.11582009D+01  1  2 15  1  7  1        2 0.722467425593D-04 0.100000000000D+01
0.907155259853D-05 0.000000000000D+00 0.000000000000D+00 0.151530650718D-06 0.000000000000D+00  7 2 -2 24 -13 13 -24 21 2 0.25544190D+00 0.50505443D-02 0.42934245D+05 0.42934245D+05 0.42934245D+05 0.11531612D+01  1  2 12  1  7  1        2 0.279229848691D-02 0.100000000000D+01
-.921921176601D-05 0.000000000000D+00 0.000000000000D+00 0.151530650718D-06 0.000000000000D+00  7 2 -2 24 -13 13 -24 21 2 0.22075674D+00 0.50505443D-02 0.37737975D+05 0.37737975D+05 0.37737975D+05 0.11582009D+01  1  2  4  1  7  1        2 -.376358986439D-02 0.100000000000D+01
-.151547804106D-04 0.000000000000D+00 -.225735314528D-05 0.151530650718D-06 0.000000000000D+00  7 2 -2 24 -13 13 -24 21 2 0.25552228D+00 0.50505443D-02 0.37737975D+05 0.37737975D+05 0.37737975D+05 0.11582009D+01  1  2  5  1  7  1        2 -.470243176984D-02 0.100000000000D+01
0.153444513396D-04 0.000000000000D+00 0.223342568303D-05 0.151530650718D-06 0.000000000000D+00  7 2 -2 24 -13 13 -24 21 2 0.22075674D+00 0.50505443D-02 0.37737975D+05 0.37737975D+05 0.37737975D+05 0.11582009D+01  1  2  6  1  7  1        2 0.626411704189D-02 0.100000000000D+01
0.202366745655D-06 0.000000000000D+00 0.000000000000D+00 0.151530650718D-06 0.000000000000D+00  7 21 -2 24 -13 13 -24 -2 2 0.25544190D+00 0.50505443D-02 0.42934245D+05 0.42934245D+05 0.42934245D+05 0.11531612D+01  1  2 12  3  7  1        2 0.199821984253D-04 0.100000000000D+01
-.323693805124D-06 0.000000000000D+00 -.504449513163D-07 0.151530650718D-06 0.000000000000D+00  7 21 -2 24 -13 13 -24 -2 2 0.25552228D+00 0.50505443D-02 0.37737975D+05 0.37737975D+05 0.37737975D+05 0.11582009D+01  1  2  5  3  7  1        2 -.324396828027D-04 0.100000000000D+01
  </mgrwgt>
  </event>
  <event>
  8     66 0.26993063E-05 0.77849889E+02 0.75467711E-02 0.10239002E+00
        2 -1    0    0  501    0 0.00000000E+00 0.00000000E+00 0.23396478E+04 0.23396478E+04 0.32000000E+00 0.0000E+00 0.9000E+01
       -2 -1    0    0    0  501 0.00000000E+00 0.00000000E+00 -.36983431E+02 0.36984815E+02 0.32000000E+00 0.0000E+00 0.9000E+01
       25  2    1    2    0    0 0.15572890E+03 0.75419321E+02 0.18551968E+04 0.18874847E+04 0.30150290E+03 0.0000E+00 0.0000E+00
       23  2    1    2    0    0 -.15572890E+03 -.75419321E+02 0.44746755E+03 0.48914786E+03 0.95387907E+02 0.0000E+00 0.0000E+00
       24  1    3    3    0    0 0.78886779E+02 0.16533876E+03 0.12275856E+04 0.12437820E+04 0.80419002E+02 0.0000E+00 0.9000E+01
      -11  1    4    4    0    0 -.54638620E+02 -.27929195E+02 0.28795318E+03 0.29441883E+03 0.51099893E-03 0.0000E+00 0.9000E+01
       11  1    4    4    0    0 -.10109028E+03 -.47490126E+02 0.15951438E+03 0.19472902E+03 0.51099893E-03 0.0000E+00 0.9000E+01
      -24  1    3    3    0    0 0.76842117E+02 -.89919444E+02 0.62761117E+03 0.64370274E+03 0.80419002E+02 0.0000E+00 0.9000E+01
#aMCatNLO 1  0  0  2  1 0.14462134D+02 0.00000000D+00  -5  7  0 0.00000000D+00 0.00000000D+00 0.00000000D+00 0.00000000D+00 0.00000000D+00
  <mgrwgt>
 0.1069574808D-02    6    2    0
 0.294159603196481D+03 0.000000000000000D+00 0.000000000000000D+00 0.294159603196481D+03
 0.294159603196481D+03 0.000000000000000D+00 0.000000000000000D+00 -.294159603196481D+03
 0.219770595358460D+03 0.788867790534431D+02 0.165338764491801D+03 0.909498085580142D+02
 0.623231283405390D+02 -.546386203911345D+02 -.279291953773031D+02 0.108974094848834D+02
 0.162312019383507D+03 -.101090275982415D+03 -.474901255957298D+02 -.117773663053557D+03
 0.143913463310456D+03 0.768421173201063D+02 -.899194435187686D+02 0.159264450106597D+02
 0.000000000000000D+00 0.000000000000000D+00 -.000000000000000D+00 0.000000000000000D+00
 0.301567221631123D+03 0.000000000000000D+00 0.000000000000000D+00 0.301567221631123D+03
 0.301392897062439D+03 0.000000000000000D+00 0.000000000000000D+00 -.301392897062439D+03
 0.219501010703667D+03 0.738547789432737D+02 0.167293400037364D+03 0.909498085580142D+02
 0.633453597620757D+02 -.560781940791451D+02 -.273700058225662D+02 0.108974094848834D+02
 0.164254747914330D+03 -.104831205253377D+03 -.460369949982801D+02 -.117773663053557D+03
 0.141395816122340D+03 0.735738060845853D+02 -.886498971803256D+02 0.159264450106597D+02
 0.144631841911489D+02 0.134808143046632D+02 -.523650203619190D+01 0.174324568684674D+00
0.739291094654D-05 0.000000000000D+00 0.000000000000D+00 0.161811760850D-07 0.000000000000D+00  7 2 -2 24 -11 11 -24 21 0 0.35994592D+00 0.56898667D-02 0.66602744D+05 0.66602744D+05 0.66602744D+05 0.11365009D+01  1  2  2  2  7  2       -2 0.619234032882D-03 0.100000000000D+01
-.402164290586D-06 0.000000000000D+00 -.283907246329D-07 0.161811760850D-07 0.000000000000D+00  7 2 -2 24 -11 11 -24 21 2 0.35994592D+00 0.56898667D-02 0.66602744D+05 0.66602744D+05 0.66602744D+05 0.11365009D+01  1  2  3  2  7  2       -2 -.435093341631D-04 0.100000000000D+01
0.467492703078D-06 0.000000000000D+00 0.000000000000D+00 0.161811760850D-07 0.000000000000D+00  7 2 -2 24 -11 11 -24 21 2 0.35994592D+00 0.56898667D-02 0.66602744D+05 0.66602744D+05 0.66602744D+05 0.11365009D+01  1  2 15  2  7  2       -2 0.505770818373D-04 0.100000000000D+01
0.102489203120D-04 0.000000000000D+00 0.000000000000D+00 0.161811760850D-07 0.000000000000D+00  7 2 -2 24 -11 11 -24 21 2 0.35994592D+00 0.58996606D-02 0.70656423D+05 0.70656423D+05 0.70656423D+05 0.11343152D+01  1  2 12  2  7  2       -2 0.104530097428D-02 0.100000000000D+01
-.773234806374D-05 0.000000000000D+00 0.000000000000D+00 0.161811760850D-07 0.000000000000D+00  7 2 -2 24 -11 11 -24 21 2 0.35994592D+00 0.56898667D-02 0.66602744D+05 0.66602744D+05 0.66602744D+05 0.11365009D+01  1  2  4  2  7  2       -2 -.836546962636D-03 0.100000000000D+01
0.143516066799D-06 0.000000000000D+00 0.000000000000D+00 0.161811760850D-07 0.000000000000D+00  7 2 21 24 -11 11 -24 2 2 0.35994592D+00 0.58996606D-02 0.70656423D+05 0.70656423D+05 0.70656423D+05 0.11343152D+01  1  2 12  4  7  2       -2 0.234519015861D-03 0.100000000000D+01
  </mgrwgt>
  </event>
  <event>
  8     66 0.26993063E-05 0.31172647E+03 0.75467711E-02 0.96270755E-01
        2 -1    0    0  501    0 0.00000000E+00 0.00000000E+00 0.66871615E+03 0.66871622E+03 0.32000000E+00 0.0000E+00 0.9000E+01
       -2 -1    0    0    0  501 0.00000000E+00 0.00000000E+00 -.30580201E+03 0.30580218E+03 0.32000000E+00 0.0000E+00 0.9000E+01
       25  2    1    2    0    0 -.12194259E+03 0.23977777E+03 0.51364040E+03 0.65274316E+03 0.29980628E+03 0.0000E+00 0.0000E+00
       23  2    1    2    0    0 0.12194259E+03 -.23977777E+03 -.15072627E+03 0.32177524E+03 0.91964810E+02 0.0000E+00 0.0000E+00
       24  1    3    3    0    0 -.77668274E+02 0.38764842E+02 0.37174944E+03 0.39012810E+03 0.80419002E+02 0.0000E+00 0.9000E+01
      -11  1    4    4    0    0 0.14073961E+02 -.12810523E+03 -.73606461E+02 0.14841475E+03 0.51099893E-03 0.0000E+00 0.9000E+01
       11  1    4    4    0    0 0.10786863E+03 -.11167254E+03 -.77119807E+02 0.17336050E+03 0.51099893E-03 0.0000E+00 0.9000E+01
      -24  1    3    3    0    0 -.44274316E+02 0.20101292E+03 0.14189096E+03 0.26261506E+03 0.80419002E+02 0.0000E+00 0.9000E+01
#aMCatNLO 1  0  0  2  1 0.19813516D+03 0.00000000D+00  -5  7  0 0.00000000D+00 0.00000000D+00 0.00000000D+00 0.00000000D+00 0.00000000D+00
  <mgrwgt>
 0.5965814846D-03    4    2    0
 0.452211083549508D+03 0.000000000000000D+00 0.000000000000000D+00 0.452211083549508D+03
 0.452211083549508D+03 0.000000000000000D+00 0.000000000000000D+00 -.452211083549508D+03
 0.271194027099114D+03 -.776682737790848D+02 0.387648417522130D+02 0.244016209854935D+03
 0.189453258449456D+03 0.140739606610068D+02 -.128105227301644D+03 -.138865083827516D+03
 0.217742188609364D+03 0.107868629346008D+03 -.111672538449122D+03 -.152660615941829D+03
 0.226032692941081D+03 -.442743162279304D+02 0.201012923998554D+03 0.475094899144102D+02
 0.000000000000000D+00 0.000000000000000D+00 0.000000000000000D+00 0.000000000000000D+00
 0.668533099426851D+03 0.000000000000000D+00 0.000000000000000D+00 0.668533099426851D+03
 0.510671360986123D+03 0.000000000000000D+00 0.000000000000000D+00 -.510671360986123D+03
 0.280874814611005D+03 -.113101266627671D+03 -.936153532520029D+01 0.244016209854935D+03
 0.214718094213422D+03 -.118666459563594D+02 -.163338700833475D+03 -.138865083827516D+03
 0.228596248171220D+03 0.792216464996193D+02 -.150581910414593D+03 -.152660615941829D+03
 0.201681784236072D+03 -.717259723730396D+02 0.163727088148204D+03 0.475094899144102D+02
 0.253333519181255D+03 0.117472238457451D+03 0.159555058425065D+03 0.157861738440729D+03
0.294530042252D-04 0.000000000000D+00 0.000000000000D+00 0.179171303402D-05 0.000000000000D+00  7 2 -2 24 -11 11 -24 21 0 0.10287943D+00 0.47046483D-01 0.97173394D+05 0.97173394D+05 0.97173394D+05 0.11227454D+01  1  2  2  2  7  2       -2 0.689849154646D-03 0.100000000000D+01
-.136093245624D-05 0.000000000000D+00 -.113107291379D-06 0.179171303402D-05 0.000000000000D+00  7 2 -2 24 -11 11 -24 21 2 0.10287943D+00 0.47046483D-01 0.97173394D+05 0.97173394D+05 0.97173394D+05 0.11227454D+01  1  2  3  2  7  2       -2 -.401812688043D-04 0.100000000000D+01
0.185645209854D-05 0.000000000000D+00 0.000000000000D+00 0.179171303402D-05 0.000000000000D+00  7 2 -2 24 -11 11 -24 21 2 0.10287943D+00 0.47046483D-01 0.97173394D+05 0.97173394D+05 0.97173394D+05 0.11227454D+01  1  2 15  2  7  2       -2 0.548113908605D-04 0.100000000000D+01
-.365447910346D-05 0.000000000000D+00 0.000000000000D+00 0.179171303402D-05 0.000000000000D+00  7 2 -2 24 -11 11 -24 21 2 0.10287943D+00 0.47046483D-01 0.97173394D+05 0.97173394D+05 0.97173394D+05 0.11227454D+01  1  2  4  2  7  2       -2 -.107897792078D-03 0.100000000000D+01
  </mgrwgt>
  </event>
  <event>
  8     66 0.26993063E-05 0.35234940E+03 0.75467711E-02 0.93876488E-01
        2 -1    0    0  501    0 0.00000000E+00 0.00000000E+00 0.98187196E+03 0.98187201E+03 0.32000000E+00 0.0000E+00 0.9000E+01
       -2 -1    0    0    0  501 0.00000000E+00 0.00000000E+00 -.15276283E+03 0.15276316E+03 0.32000000E+00 0.0000E+00 0.9000E+01
       25  2    1    2    0    0 -.90292512E+02 -.27616989E+03 0.26658900E+03 0.49485865E+03 0.29898637E+03 0.0000E+00 0.0000E+00
       23  2    1    2    0    0 0.90292512E+02 0.27616989E+03 0.56252013E+03 0.63977652E+03 0.91992072E+02 0.0000E+00 0.0000E+00
       24  1    3    3    0    0 -.11027256E+03 -.12972103E+02 0.57558684E+02 0.14868938E+03 0.80419002E+02 0.0000E+00 0.9000E+01
      -11  1    4    4    0    0 0.48499282E+02 0.10812174E+03 0.14169839E+03 0.18471850E+03 0.51099893E-03 0.0000E+00 0.9000E+01
       11  1    4    4    0    0 0.41793231E+02 0.16804815E+03 0.42082174E+03 0.45505801E+03 0.51099893E-03 0.0000E+00 0.9000E+01
      -24  1    3    3    0    0 0.19980052E+02 -.26319779E+03 0.20903031E+03 0.34616927E+03 0.80419002E+02 0.0000E+00 0.9000E+01
#aMCatNLO 1  0  0  1  2 0.31349274D+03 0.00000000D+00  -5  7  0 0.00000000D+00 0.00000000D+00 0.00000000D+00 0.00000000D+00 0.00000000D+00
  <mgrwgt>
 0.1080605812D-02    3    2    0
 0.387290272108848D+03 0.000000000000000D+00 0.000000000000000D+00 0.387290272108848D+03
 0.387290272108848D+03 0.000000000000000D+00 0.000000000000000D+00 -.387290272108848D+03
 0.156195209406754D+03 -.110272564409021D+03 -.129721028958920D+02 -.748425919671801D+02
 0.118909106035984D+03 0.484992817193176D+02 0.108121741299050D+03 0.984297868779411D+01
 0.216139790238829D+03 0.417932307247236D+02 0.168048151055233D+03 0.129342776052599D+03
 0.283336438536129D+03 0.199800519649797D+02 -.263197789458391D+03 -.643431627732126D+02
 0.000000000000000D+00 0.000000000000000D+00 0.000000000000000D+00 -.000000000000000D+00
 0.515544678802007D+03 0.000000000000000D+00 0.000000000000000D+00 0.515544678802007D+03
 0.669190402508941D+03 0.000000000000000D+00 0.000000000000000D+00 -.669190402508941D+03
 0.200896484957385D+03 -.154415558124565D+03 -.666828579964573D+02 -.748425919671801D+02
 0.820085927828473D+02 0.236622192609085D+02 0.779013763705314D+02 0.984297868779411D+01
 0.169886555565375D+03 -.592660937744569D+01 0.109985286953127D+03 0.129342776052599D+03
 0.382823541424053D+03 -.623693733312095D+02 -.363396018949981D+03 -.643431627732126D+02
 0.349119906581288D+03 0.199049321572312D+03 0.242192213622780D+03 -.153645723706934D+03
0.214405098414D-04 0.000000000000D+00 0.000000000000D+00 0.596912887352D-06 0.000000000000D+00  7 2 -2 24 -11 11 -24 21 0 0.15105725D+00 0.23502003D-01 0.12415010D+06 0.12415010D+06 0.12415010D+06 0.11140932D+01  1  2  2  1  7  1        2 0.106794413681D-02 0.100000000000D+01
-.117819217301D-05 0.000000000000D+00 -.823372032070D-07 0.596912887352D-06 0.000000000000D+00  7 2 -2 24 -11 11 -24 21 2 0.15105725D+00 0.23502003D-01 0.12415010D+06 0.12415010D+06 0.12415010D+06 0.11140932D+01  1  2  3  1  7  1        2 -.728404441015D-04 0.100000000000D+01
0.138299442274D-05 0.000000000000D+00 0.000000000000D+00 0.596912887352D-06 0.000000000000D+00  7 2 -2 24 -11 11 -24 21 2 0.15105725D+00 0.23502003D-01 0.12415010D+06 0.12415010D+06 0.12415010D+06 0.11140932D+01  1  2 15  1  7  1        2 0.855021194760D-04 0.100000000000D+01
  </mgrwgt>
  </event>
  <event>
  8     66 0.26993063E-05 0.65348369E+03 0.75467711E-02 0.88652470E-01
        2 -1    0    0  501    0 0.00000000E+00 0.00000000E+00 0.14617091E+04 0.14617091E+04 0.32000000E+00 0.0000E+00 0.9000E+01
       -2 -1    0    0    0  501 0.00000000E+00 0.00000000E+00 -.40414348E+03 0.40414360E+03 0.32000000E+00 0.0000E+00 0.9000E+01
       25  2    1    2    0    0 0.51251577E+03 -.38025672E+03 0.99505012E+03 0.12204255E+04 0.30339079E+03 0.0000E+00 0.0000E+00
       23  2    1    2    0    0 -.51251577E+03 0.38025672E+03 0.62515474E+02 0.64542725E+03 0.73488461E+02 0.0000E+00 0.0000E+00
       24  1    3    3    0    0 0.41541485E+03 -.27637152E+03 0.55298115E+03 0.74913689E+03 0.80419002E+02 0.0000E+00 0.9000E+01
      -11  1    4    4    0    0 -.12620932E+03 0.97435068E+02 -.16065295E+02 0.16025130E+03 0.51099893E-03 0.0000E+00 0.9000E+01
       11  1    4    4    0    0 -.38630645E+03 0.28282166E+03 0.78580768E+02 0.48517595E+03 0.51099893E-03 0.0000E+00 0.9000E+01
      -24  1    3    3    0    0 0.97100924E+02 -.10388521E+03 0.44206897E+03 0.47128857E+03 0.80419002E+02 0.0000E+00 0.9000E+01
#aMCatNLO 1  0  0  1  2 0.39800649D+03 0.00000000D+00  -5  7  0 0.00000000D+00 0.00000000D+00 0.00000000D+00 0.00000000D+00 0.00000000D+00
  <mgrwgt>
 0.6135693908D-02    4    2    0
 0.768596340507270D+03 0.000000000000000D+00 0.000000000000000D+00 0.768596340507270D+03
 0.768596340507270D+03 0.000000000000000D+00 0.000000000000000D+00 -.768596340507270D+03
 0.528863600640906D+03 0.415414847742597D+03 -.276371518669516D+03 0.155816494864289D+03
 0.205566569192118D+03 -.126209322338344D+03 0.974350683239615D+02 -.129750640788470D+03
 0.534846767370519D+03 -.386306449384343D+03 0.282821655506675D+03 -.238412044383709D+03
 0.267915743810998D+03 0.971009239800903D+02 -.103885205161120D+03 0.212346190307889D+03
 0.000000000000000D+00 -.000000000000000D+00 0.000000000000000D+00 -.000000000000000D+00
 0.958880937482926D+03 0.000000000000000D+00 0.000000000000000D+00 0.958880937482926D+03
 0.103404278204665D+04 0.000000000000000D+00 0.000000000000000D+00 -.103404278204665D+04
 0.662292968423988D+03 0.491818556214227D+03 -.407431574330031D+03 0.155816494864289D+03
 0.174092929202787D+03 -.101857029459985D+03 0.556620585585522D+02 -.129750640788470D+03
 0.438846742365840D+03 -.323851355746219D+03 0.175688530528394D+03 -.238412044383709D+03
 0.312649757494230D+03 0.134339821420107D+03 -.167763413023727D+03 0.212346190307889D+03
 0.405041322042734D+03 -.200449992428130D+03 0.343844398266813D+03 -.751618445637287D+02
0.214085368009D-02 0.000000000000D+00 0.000000000000D+00 0.150840132249D-08 0.000000000000D+00  7 2 -2 24 -11 11 -24 21 0 0.22487833D+00 0.62175932D-01 0.42704093D+06 0.42704093D+06 0.42704093D+06 0.10733856D+01  1  2  2  1  7  1        2 0.877176070549D-02 0.100000000000D+01
-.115129546292D-03 0.000000000000D+00 -.822144183126D-05 0.150840132249D-08 0.000000000000D+00  7 2 -2 24 -11 11 -24 21 2 0.22487833D+00 0.62175932D-01 0.42704093D+06 0.42704093D+06 0.42704093D+06 0.10733856D+01  1  2  3  1  7  1        2 -.543498182137D-03 0.100000000000D+01
0.136752247242D-03 0.000000000000D+00 0.000000000000D+00 0.150840132249D-08 0.000000000000D+00  7 2 -2 24 -11 11 -24 21 2 0.22487833D+00 0.62175932D-01 0.42704093D+06 0.42704093D+06 0.42704093D+06 0.10733856D+01  1  2 15  1  7  1        2 0.645573618351D-03 0.100000000000D+01
-.580022313658D-03 0.000000000000D+00 0.000000000000D+00 0.150840132249D-08 0.000000000000D+00  7 2 -2 24 -11 11 -24 21 2 0.22487833D+00 0.62175932D-01 0.42704093D+06 0.42704093D+06 0.42704093D+06 0.10733856D+01  1  2  4  1  7  1        2 -.273814223390D-02 0.100000000000D+01
  </mgrwgt>
  </event>
  <event>
  8     66 0.26993063E-05 0.11945350E+03 0.75467711E-02 0.10036123E+00
        2 -1    0    0  501    0 0.00000000E+00 0.00000000E+00 0.28642122E+03 0.28642140E+03 0.32000000E+00 0.0000E+00 0.9000E+01
       -2 -1    0    0    0  501 0.00000000E+00 0.00000000E+00 -.22778739E+03 0.22778762E+03 0.32000000E+00 0.0000E+00 0.9000E+01
       25  2    1    2    0    0 0.10937716E+03 0.83232886E+02 -.25707062E+02 0.33080443E+03 0.29979934E+03 0.0000E+00 0.0000E+00
       23  2    1    2    0    0 -.10937716E+03 -.83232886E+02 0.84340893E+02 0.18340459E+03 0.87365786E+02 0.0000E+00 0.0000E+00
       24  1    3    3    0    0 0.18424271E+03 0.87389360E+02 -.26900558E+02 0.22084640E+03 0.80419002E+02 0.0000E+00 0.9000E+01
      -11  1    4    4    0    0 -.28668700E+02 0.15402738E+02 0.41016257E+01 0.32801860E+02 0.51099893E-03 0.0000E+00 0.9000E+01
       11  1    4    4    0    0 -.80708456E+02 -.98635624E+02 0.80239267E+02 0.15060273E+03 0.51099893E-03 0.0000E+00 0.9000E+01
      -24  1    3    3    0    0 -.74865555E+02 -.41564743E+01 0.11934963E+01 0.10995803E+03 0.80419002E+02 0.0000E+00 0.9000E+01
#aMCatNLO 1  0  0  1  2 0.11810047D+03 0.00000000D+00  -5  7  0 0.00000000D+00 0.00000000D+00 0.00000000D+00 0.00000000D+00 0.00000000D+00
  <mgrwgt>
 0.7651736112D-03    9    2    0
 0.255427575977493D+03 0.000000000000000D+00 0.000000000000000D+00 0.255427575977493D+03
 0.255427575977493D+03 0.000000000000000D+00 0.000000000000000D+00 -.255427575977493D+03
 0.225383835377156D+03 0.184242711349232D+03 0.873893598158099D+02 -.524249978599235D+02
 0.325464434634604D+02 -.286687001123855D+02 0.154027381912850D+02 0.363692448456987D+00
 0.142381933371071D+03 -.807084563319550D+02 -.986356237309965D+02 0.634804990386361D+02
 0.110542939743298D+03 -.748655549048911D+02 -.415647427609842D+01 -.114191936271696D+02
 0.000000000000000D+00 -.000000000000000D+00 0.000000000000000D+00 0.000000000000000D+00
 0.376409361202213D+03 0.000000000000000D+00 0.000000000000000D+00 0.376409361202213D+03
 0.292685931162203D+03 0.000000000000000D+00 0.000000000000000D+00 -.292685931162203D+03
 0.261858102310266D+03 0.234920578945748D+03 0.645475869289064D+02 -.524249978599235D+02
 0.258993616277277D+02 -.225897718780035D+02 0.126628143406792D+02 0.363692448456987D+00
 0.138496878770884D+03 -.514943469719179D+02 -.111803147992436D+03 0.634804990386361D+02
 0.980744724932494D+02 -.531673290792767D+02 -.139364032641030D+02 -.114191936271696D+02
 0.144766477162289D+03 -.107669131016549D+03 0.485291499869530D+02 0.837234300400098D+02
0.684772875930D-05 0.000000000000D+00 0.000000000000D+00 0.681069460064D-07 0.000000000000D+00  7 2 -2 24 -11 11 -24 21 0 0.44064834D-01 0.35044245D-01 0.59815784D+05 0.59815784D+05 0.59815784D+05 0.11405104D+01  1  2  2  1  7  1        2 0.712714507027D-03 0.100000000000D+01
-.379557077638D-06 0.000000000000D+00 -.262970814841D-07 0.681069460064D-07 0.000000000000D+00  7 2 -2 24 -11 11 -24 21 2 0.44064834D-01 0.35044245D-01 0.59815784D+05 0.59815784D+05 0.59815784D+05 0.11405104D+01  1  2  3  1  7  1        2 -.513859812886D-04 0.100000000000D+01
0.435600759600D-06 0.000000000000D+00 0.000000000000D+00 0.681069460064D-07 0.000000000000D+00  7 2 -2 24 -11 11 -24 21 2 0.44064834D-01 0.35044245D-01 0.59815784D+05 0.59815784D+05 0.59815784D+05 0.11405104D+01  1  2 15  1  7  1        2 0.589734029501D-04 0.100000000000D+01
0.351123905022D-05 0.000000000000D+00 0.000000000000D+00 0.681069460064D-07 0.000000000000D+00  7 2 -2 24 -11 11 -24 21 2 0.66934334D-01 0.35044245D-01 0.96426758D+05 0.96426758D+05 0.96426758D+05 0.11230211D+01  1  2 12  1  7  1        2 0.292458327737D-03 0.100000000000D+01
-.522135803411D-05 0.000000000000D+00 0.000000000000D+00 0.681069460064D-07 0.000000000000D+00  7 2 -2 24 -11 11 -24 21 2 0.44064834D-01 0.35044245D-01 0.59815784D+05 0.59815784D+05 0.59815784D+05 0.11405104D+01  1  2  4  1  7  1        2 -.706888692241D-03 0.100000000000D+01
-.655828899601D-05 0.000000000000D+00 -.268956485099D-05 0.681069460064D-07 0.000000000000D+00  7 2 -2 24 -11 11 -24 21 2 0.72476033D-01 0.35044245D-01 0.59815784D+05 0.59815784D+05 0.59815784D+05 0.11405104D+01  1  2  5  1  7  1        2 -.517435592394D-03 0.100000000000D+01
0.727853233372D-05 0.000000000000D+00 0.238780502075D-05 0.681069460064D-07 0.000000000000D+00  7 2 -2 24 -11 11 -24 21 2 0.44064834D-01 0.35044245D-01 0.59815784D+05 0.59815784D+05 0.59815784D+05 0.11405104D+01  1  2  6  1  7  1        2 0.985397317940D-03 0.100000000000D+01
0.172664509456D-06 0.000000000000D+00 0.000000000000D+00 0.681069460064D-07 0.000000000000D+00  7 21 -2 24 -11 11 -24 -2 2 0.66934334D-01 0.35044245D-01 0.96426758D+05 0.96426758D+05 0.96426758D+05 0.11230211D+01  1  2 12  3  7  1        2 0.334555356286D-04 0.100000000000D+01
-.247712468740D-06 0.000000000000D+00 -.151066645252D-06 0.681069460064D-07 0.000000000000D+00  7 21 -2 24 -11 11 -24 -2 2 0.72476033D-01 0.35044245D-01 0.59815784D+05 0.59815784D+05 0.59815784D+05 0.11405104D+01  1  2  5  3  7  1        2 -.421152141474D-04 0.100000000000D+01
  </mgrwgt>
  </event>
  <event>
  8     66 0.26993063E-05 0.24214795E+03 0.75467711E-02 0.10328379E+00
        2 -1    0    0  501    0 0.00000000E+00 0.00000000E+00 0.12283699E+03 0.12283741E+03 0.32000000E+00 0.0000E+00 0.9000E+01
       -2 -1    0    0    0  501 0.00000000E+00 0.00000000E+00 -.65955662E+03 0.65955670E+03 0.32000000E+00 0.0000E+00 0.9000E+01
       25  2    1    2    0    0 -.11575898E+03 0.65160257E+02 -.14774187E+03 0.36144260E+03 0.30193888E+03 0.0000E+00 0.0000E+00
       23  2    1    2    0    0 0.11575898E+03 -.65160257E+02 -.38897775E+03 0.42095151E+03 0.90832149E+02 0.0000E+00 0.0000E+00
       24  1    3    3    0    0 -.90481653E+02 0.15740742E+03 -.55686532E+02 0.20623344E+03 0.80419002E+02 0.0000E+00 0.9000E+01
      -11  1    4    4    0    0 0.50880835E+02 -.79431967E+02 -.21882756E+03 0.23829352E+03 0.51099893E-03 0.0000E+00 0.9000E+01
       11  1    4    4    0    0 0.64878144E+02 0.14271711E+02 -.17015019E+03 0.18265799E+03 0.51099893E-03 0.0000E+00 0.9000E+01
      -24  1    3    3    0    0 -.25277326E+02 -.92247160E+02 -.92055342E+02 0.15520916E+03 0.80419002E+02 0.0000E+00 0.9000E+01
#aMCatNLO 1  0  0  1  2 0.12564122D+02 0.00000000D+00  -5  7  0 0.00000000D+00 0.00000000D+00 0.00000000D+00 0.00000000D+00 0.00000000D+00
  <mgrwgt>
 0.5026099920D-03    4    2    0
 0.284636864080551D+03 0.000000000000000D+00 0.000000000000000D+00 0.284636864080551D+03
 0.284636864080551D+03 0.000000000000000D+00 0.000000000000000D+00 -.284636864080551D+03
 0.230939464625109D+03 -.904816529000668D+02 0.157407416708840D+03 0.117905877802945D+03
 0.121190193271545D+03 0.508808347200540D+02 -.794319674080608D+02 -.760839415190200D+02
 0.906200094529422D+02 0.648781440270435D+02 0.142717105783620D+02 -.616370896297433D+02
 0.126524060811506D+03 -.252773258470307D+02 -.922471598791410D+02 0.198151533458182D+02
 0.000000000000000D+00 -.000000000000000D+00 0.000000000000000D+00 -.000000000000000D+00
 0.285616771047155D+03 0.000000000000000D+00 0.000000000000000D+00 0.285616771047155D+03
 0.328045363864024D+03 0.000000000000000D+00 0.000000000000000D+00 -.328045363864024D+03
 0.227866331737979D+03 -.857701017389561D+02 0.155555593960996D+03 0.117905877802945D+03
 0.122906121648531D+03 0.533874993810086D+02 -.804171840557511D+02 -.760839415190200D+02
 0.918595076753079D+02 0.667520557945490D+02 0.135351904133766D+02 -.616370896297433D+02
 0.126780398078540D+03 -.226761012616869D+02 -.932695422527314D+02 0.198151533458182D+02
 0.442497757708208D+02 -.116933521749146D+02 0.459594193410955D+01 -.424285928168685D+02
0.180963353205D-04 0.000000000000D+00 0.000000000000D+00 0.575406637458D-07 0.000000000000D+00  7 2 -2 24 -11 11 -24 21 0 0.18898037D-01 0.10147029D+00 0.58635631D+05 0.58635631D+05 0.58635631D+05 0.11412586D+01  1  2  2  1  7  1        2 0.551868076472D-03 0.100000000000D+01
-.973404731028D-06 0.000000000000D+00 -.694946925053D-07 0.575406637458D-07 0.000000000000D+00  7 2 -2 24 -11 11 -24 21 2 0.18898037D-01 0.10147029D+00 0.58635631D+05 0.58635631D+05 0.58635631D+05 0.11412586D+01  1  2  3  1  7  1        2 -.386639501531D-04 0.100000000000D+01
0.114546949563D-05 0.000000000000D+00 0.000000000000D+00 0.575406637458D-07 0.000000000000D+00  7 2 -2 24 -11 11 -24 21 2 0.18898037D-01 0.10147029D+00 0.58635631D+05 0.58635631D+05 0.58635631D+05 0.11412586D+01  1  2 15  1  7  1        2 0.454984181492D-04 0.100000000000D+01
-.141218772886D-05 0.000000000000D+00 0.000000000000D+00 0.575406637458D-07 0.000000000000D+00  7 2 -2 24 -11 11 -24 21 2 0.18898037D-01 0.10147029D+00 0.58635631D+05 0.58635631D+05 0.58635631D+05 0.11412586D+01  1  2  4  1  7  1        2 -.560925524757D-04 0.100000000000D+01
  </mgrwgt>
  </event>
  <event>
  8     66 0.26993063E-05 0.35472614E+03 0.75467711E-02 0.93673159E-01
        2 -1    0    0  501    0 0.00000000E+00 0.00000000E+00 0.99869060E+03 0.99869065E+03 0.32000000E+00 0.0000E+00 0.9000E+01
       -2 -1    0    0    0  501 0.00000000E+00 0.00000000E+00 -.27067564E+03 0.27067583E+03 0.32000000E+00 0.0000E+00 0.9000E+01
       25  2    1    2    0    0 0.44463458E+03 -.13451117E+03 0.28516554E+03 0.62122685E+03 0.29801048E+03 0.0000E+00 0.0000E+00
       23  2    1    2    0    0 -.44463458E+03 0.13451117E+03 0.44284942E+03 0.64813963E+03 0.90422411E+02 0.0000E+00 0.0000E+00
       24  1    3    3    0    0 0.27051391E+03 -.20337731E+03 0.18906285E+03 0.39591929E+03 0.80419002E+02 0.0000E+00 0.9000E+01
      -11  1    4    4    0    0 -.11540150E+03 0.49451845E+02 0.70929447E+02 0.14420117E+03 0.51099893E-03 0.0000E+00 0.9000E+01
       11  1    4    4    0    0 -.32923308E+03 0.85059327E+02 0.37191997E+03 0.50393847E+03 0.51099893E-03 0.0000E+00 0.9000E+01
      -24  1    3    3    0    0 0.17412067E+03 0.68866143E+02 0.96102691E+02 0.22530756E+03 0.80419002E+02 0.0000E+00 0.9000E+01
#aMCatNLO 1  0  0  2  1 0.69397111D+02 0.00000000D+00  -5  7  0 0.00000000D+00 0.00000000D+00 0.00000000D+00 0.00000000D+00 0.00000000D+00
  <mgrwgt>
 0.9804209703D-03    9    2    0
 0.519924390660386D+03 0.000000000000000D+00 0.000000000000000D+00 0.519924390660386D+03
 0.519924390660386D+03 0.000000000000000D+00 0.000000000000000D+00 -.519924390660386D+03
 0.350941506569746D+03 0.270513913487215D+03 -.203377314211480D+03 -.463962902938301D+02
 0.126370710669668D+03 -.115401495260132D+03 0.494518445920169D+02 -.143724205800520D+02
 0.354781679009064D+03 -.329233084125744D+03 0.850593267786874D+02 0.101195489057063D+03
 0.207754885072293D+03 0.174120665898661D+03 0.688661428407758D+02 -.404267781831806D+02
 0.000000000000000D+00 -.000000000000000D+00 0.000000000000000D+00 -.000000000000000D+00
 0.527177320091741D+03 0.000000000000000D+00 0.000000000000000D+00 0.527177320091741D+03
 0.718574013546419D+03 0.000000000000000D+00 0.000000000000000D+00 -.718574013546419D+03
 0.370034600557317D+03 0.277633978927182D+03 -.226329732132732D+03 -.463962902938301D+02
 0.121217848678835D+03 -.112956411813784D+03 0.415698135087234D+02 -.143724205800520D+02
 0.343639125523643D+03 -.322335765638002D+03 0.628249614064293D+02 0.101195489057063D+03
 0.207270335445455D+03 0.178219285395357D+03 0.556537323114708D+02 -.404267781831806D+02
 0.203589423432910D+03 -.205610868707540D+02 0.662812249061080D+02 -.191396693454678D+03
0.455743660073D-04 0.000000000000D+00 0.000000000000D+00 0.332241978521D-06 0.000000000000D+00  7 2 -2 24 -11 11 -24 21 0 0.15364473D+00 0.41642425D-01 0.25869372D+06 0.25869372D+06 0.25869372D+06 0.10893440D+01  1  2  2  2  7  2       -2 0.785798277295D-03 0.100000000000D+01
-.253042151491D-05 0.000000000000D+00 -.175017565474D-06 0.332241978521D-06 0.000000000000D+00  7 2 -2 24 -11 11 -24 21 2 0.15364473D+00 0.41642425D-01 0.25869372D+06 0.25869372D+06 0.25869372D+06 0.10893440D+01  1  2  3  2  7  2       -2 -.517742015151D-04 0.100000000000D+01
0.298817490620D-05 0.000000000000D+00 0.000000000000D+00 0.332241978521D-06 0.000000000000D+00  7 2 -2 24 -11 11 -24 21 2 0.15364473D+00 0.41642425D-01 0.25869372D+06 0.25869372D+06 0.25869372D+06 0.10893440D+01  1  2 15  2  7  2       -2 0.611401574181D-04 0.100000000000D+01
0.262363783567D-03 0.000000000000D+00 0.000000000000D+00 0.332241978521D-06 0.000000000000D+00  7 2 -2 24 -11 11 -24 21 2 0.15364473D+00 0.57760632D-01 0.29624348D+06 0.29624348D+06 0.29624348D+06 0.10849570D+01  1  2 12  2  7  2       -2 0.278059817699D-02 0.100000000000D+01
-.253951443837D-03 0.000000000000D+00 0.000000000000D+00 0.332241978521D-06 0.000000000000D+00  7 2 -2 24 -11 11 -24 21 2 0.15364473D+00 0.41642425D-01 0.25869372D+06 0.25869372D+06 0.25869372D+06 0.10893440D+01  1  2  4  2  7  2       -2 -.519602491158D-02 0.100000000000D+01
-.288985428195D-03 0.000000000000D+00 -.209458722899D-04 0.332241978521D-06 0.000000000000D+00  7 2 -2 24 -11 11 -24 21 2 0.15364473D+00 0.57973566D-01 0.25869372D+06 0.25869372D+06 0.25869372D+06 0.10893440D+01  1  2  5  2  7  2       -2 -.307834498709D-02 0.100000000000D+01
0.281464667567D-03 0.000000000000D+00 0.198494316375D-04 0.332241978521D-06 0.000000000000D+00  7 2 -2 24 -11 11 -24 21 2 0.15364473D+00 0.41642425D-01 0.25869372D+06 0.25869372D+06 0.25869372D+06 0.10893440D+01  1  2  6  2  7  2       -2 0.575896479385D-02 0.100000000000D+01
0.107964268676D-04 0.000000000000D+00 0.000000000000D+00 0.332241978521D-06 0.000000000000D+00  7 2 21 24 -11 11 -24 2 2 0.15364473D+00 0.57760632D-01 0.29624348D+06 0.29624348D+06 0.29624348D+06 0.10849570D+01  1  2 12  4  7  2       -2 0.116287875127D-02 0.100000000000D+01
-.114429084594D-04 0.000000000000D+00 -.868906462500D-06 0.332241978521D-06 0.000000000000D+00  7 2 21 24 -11 11 -24 2 2 0.15364473D+00 0.57973566D-01 0.25869372D+06 0.25869372D+06 0.25869372D+06 0.10893440D+01  1  2  5  4  7  2       -2 -.124281508631D-02 0.100000000000D+01
  </mgrwgt>
  </event>
  <event>
  9     66 0.26993063E-05 0.19261874E+03 0.75467711E-02 0.10666136E+00
        2 -1    0    0  501    0 0.00000000E+00 0.00000000E+00 0.35543015E+03 0.35543030E+03 0.32000000E+00 0.0000E+00 0.9000E+01
       21 -1    0    0  502  501 0.00000000E+00 0.00000000E+00 -.19091683E+03 0.19091830E+03 0.75000000E+00 0.0000E+00 0.9000E+01
       25  2    1    2    0    0 -.45193789E+02 -.60206218E+02 -.33249783E+02 0.31014805E+03 0.29903010E+03 0.0000E+00 0.0000E+00
       23  2    1    2    0    0 0.41445492E+02 0.64373776E+02 0.17282788E+03 0.21064107E+03 0.92943395E+02 0.0000E+00 0.0000E+00
       24  1    3    3    0    0 0.96870734E+01 -.15304384E+03 -.28874439E+02 0.17554830E+03 0.80419002E+02 0.0000E+00 0.9000E+01
      -13  1    4    4    0    0 0.21246008E+02 0.21857175E+02 0.15854801E+03 0.16145158E+03 0.10565837E+00 0.0000E+00 0.9000E+01
       13  1    4    4    0    0 0.20199484E+02 0.42516601E+02 0.14279863E+02 0.49189493E+02 0.10565837E+00 0.0000E+00 0.9000E+01
      -24  1    3    3    0    0 -.54880862E+02 0.92837625E+02 -.43753439E+01 0.13459975E+03 0.80419002E+02 0.0000E+00 0.9000E+01
        2  1    1    2  502    0 0.37482969E+01 -.41675582E+01 0.24935231E+02 0.25559468E+02 0.32000000E+00 0.0000E+00 0.9000E+01
#aMCatNLO 2  0  0  2  1 0.56052003D+01 0.00000000D+00  -5  7  0 0.00000000D+00 0.00000000D+00 0.00000000D+00 0.00000000D+00 0.00000000D+00
  <mgrwgt>
 0.6060035323D-04    1    2    0
 0.250852472731682D+03 0.000000000000000D+00 0.000000000000000D+00 0.250852472731682D+03
 0.250852472731682D+03 0.000000000000000D+00 0.000000000000000D+00 -.250852472731682D+03
 0.191602695570386D+03 0.111134475375071D+02 -.154629772576827D+03 -.788067364641967D+02
 0.123460998681268D+03 0.221684391993388D+02 0.208315742329317D+02 0.119654602977984D+03
 0.468854553950530D+02 0.205504995592195D+02 0.421263330652136D+02 0.113796219037514D+01
 0.139755795816658D+03 -.538323862960654D+02 0.916718652786819D+02 -.419858287041627D+02
 0.000000000000000D+00 0.000000000000000D+00 -.000000000000000D+00 0.000000000000000D+00
 0.270049250518604D+03 0.000000000000000D+00 0.000000000000000D+00 0.270049250518604D+03
 0.251277622677992D+03 0.000000000000000D+00 0.000000000000000D+00 -.251277622677992D+03
 0.190247146058301D+03 0.968706941694976D+01 -.153043848628201D+03 -.788067364641967D+02
 0.123476124174150D+03 0.212460197799880D+02 0.218571697792619D+02 0.119654602977984D+03
 0.470847808742852D+02 0.201994791465188D+02 0.425166164486555D+02 0.113796219037514D+01
 0.140928204881618D+03 -.548808652365800D+02 0.928376205839741D+02 -.419858287041627D+02
 0.195906172082420D+02 0.374829689312340D+01 -.416755818369058D+01 0.187716278406115D+02
0.329119822066D-07 0.000000000000D+00 0.000000000000D+00 0.849069027923D-07 0.639882916238D-11  7 2 21 24 -13 13 -24 2 2 0.54681402D-01 0.29371791D-01 0.38189726D+05 0.38189726D+05 0.38189726D+05 0.11577332D+01  1  2  1  4  7  2       -2 0.606003532280D-04 0.100000000000D+01
  </mgrwgt>
  </event>
  <event>
  8     66 0.26993063E-05 0.17234702E+03 0.75467711E-02 0.98046890E-01
        2 -1    0    0  501    0 0.00000000E+00 0.00000000E+00 0.64398883E+03 0.64398891E+03 0.32000000E+00 0.0000E+00 0.9000E+01
       -2 -1    0    0    0  501 0.00000000E+00 0.00000000E+00 -.22560257E+03 0.22560280E+03 0.32000000E+00 0.0000E+00 0.9000E+01
       25  2    1    2    0    0 -.52739697E+02 -.22049264E+03 -.96243609E+01 0.37670502E+03 0.30069181E+03 0.0000E+00 0.0000E+00
       23  2    1    2    0    0 0.52739697E+02 0.22049264E+03 0.42801061E+03 0.49288669E+03 0.91354935E+02 0.0000E+00 0.0000E+00
       24  1    3    3    0    0 -.40107466E+02 -.24044894E+03 0.64656213E+02 0.26471106E+03 0.80419002E+02 0.0000E+00 0.9000E+01
      -13  1    4    4    0    0 0.42802712E+02 0.46776799E+02 0.17225582E+03 0.18355440E+03 0.10565837E+00 0.0000E+00 0.9000E+01
       13  1    4    4    0    0 0.99369846E+01 0.17371584E+03 0.25575480E+03 0.30933229E+03 0.10565837E+00 0.0000E+00 0.9000E+01
      -24  1    3    3    0    0 -.12632231E+02 0.19956303E+02 -.74280574E+02 0.11199396E+03 0.80419002E+02 0.0000E+00 0.9000E+01
#aMCatNLO 1  0  0  2  1 0.14161392D+03 0.00000000D+00  -5  7  0 0.00000000D+00 0.00000000D+00 0.00000000D+00 0.00000000D+00 0.00000000D+00
  <mgrwgt>
 0.7128794165D-03    9    2    0
 0.381163574072506D+03 0.000000000000000D+00 0.000000000000000D+00 0.381163574072506D+03
 0.381163574072506D+03 0.000000000000000D+00 0.000000000000000D+00 -.381163574072506D+03
 0.266472564677991D+03 -.401074657045465D+02 -.240448941870604D+03 -.715269831585353D+02
 0.114842847319630D+03 0.428027561201310D+02 0.467766290425314D+02 0.957535932715728D+02
 0.212492236918610D+03 0.993694086137912D+01 0.173716009926908D+03 0.121971127124687D+03
 0.168519499228781D+03 -.126322312769636D+02 0.199563029011643D+02 -.146197737237725D+03
 0.000000000000000D+00 -.000000000000000D+00 -.000000000000000D+00 -.000000000000000D+00
 0.421599037826068D+03 0.000000000000000D+00 0.000000000000000D+00 0.421599037826068D+03
 0.535515830293832D+03 0.000000000000000D+00 0.000000000000000D+00 -.535515830293832D+03
 0.238966420381446D+03 -.226336261696570D+01 -.213345967820942D+03 -.715269831585353D+02
 0.128331498768252D+03 0.610101269277521D+02 0.598162800911903D+02 0.957535932715728D+02
 0.236417906652122D+03 0.435485186235370D+02 0.197787758113085D+03 0.121971127124687D+03
 0.171653236683062D+03 0.128377709705248D+02 0.381972639396901D+02 -.146197737237725D+03
 0.181745805635018D+03 -.115133053904848D+03 -.824553343230235D+02 -.113916792467764D+03
0.161221083147D-04 0.000000000000D+00 0.000000000000D+00 0.983888849476D-06 0.000000000000D+00  7 2 -2 24 -13 13 -24 21 0 0.99075228D-01 0.34708112D-01 0.83495985D+05 0.83495985D+05 0.83495985D+05 0.11282075D+01  1  2  2  2  7  2       -2 0.697247715576D-03 0.100000000000D+01
-.812143373399D-06 0.000000000000D+00 -.619131409771D-07 0.983888849476D-06 0.000000000000D+00  7 2 -2 24 -13 13 -24 21 2 0.99075228D-01 0.34708112D-01 0.83495985D+05 0.83495985D+05 0.83495985D+05 0.11282075D+01  1  2  3  2  7  2       -2 -.447070446794D-04 0.100000000000D+01
0.103019346255D-05 0.000000000000D+00 0.000000000000D+00 0.983888849476D-06 0.000000000000D+00  7 2 -2 24 -13 13 -24 21 2 0.99075228D-01 0.34708112D-01 0.83495985D+05 0.83495985D+05 0.83495985D+05 0.11282075D+01  1  2 15  2  7  2       -2 0.567103133108D-04 0.100000000000D+01
0.921954321717D-05 0.000000000000D+00 0.000000000000D+00 0.983888849476D-06 0.000000000000D+00  7 2 -2 24 -13 13 -24 21 2 0.99075228D-01 0.50022168D-01 0.13970454D+06 0.13970454D+06 0.13970454D+06 0.11099971D+01  1  2 12  2  7  2       -2 0.245084326059D-03 0.100000000000D+01
-.142570653769D-04 0.000000000000D+00 0.000000000000D+00 0.983888849476D-06 0.000000000000D+00  7 2 -2 24 -13 13 -24 21 2 0.99075228D-01 0.34708112D-01 0.83495985D+05 0.83495985D+05 0.83495985D+05 0.11282075D+01  1  2  4  2  7  2       -2 -.784826029098D-03 0.100000000000D+01
-.162748127943D-04 0.000000000000D+00 -.629196968947D-05 0.983888849476D-06 0.000000000000D+00  7 2 -2 24 -13 13 -24 21 2 0.99075228D-01 0.53032690D-01 0.83495985D+05 0.83495985D+05 0.83495985D+05 0.11282075D+01  1  2  5  2  7  2       -2 -.402436957526D-03 0.100000000000D+01
0.178408058316D-04 0.000000000000D+00 0.576602523214D-05 0.983888849476D-06 0.000000000000D+00  7 2 -2 24 -13 13 -24 21 2 0.99075228D-01 0.34708112D-01 0.83495985D+05 0.83495985D+05 0.83495985D+05 0.11282075D+01  1  2  6  2  7  2       -2 0.982104551430D-03 0.100000000000D+01
0.410935930166D-06 0.000000000000D+00 0.000000000000D+00 0.983888849476D-06 0.000000000000D+00  7 2 21 24 -13 13 -24 2 2 0.99075228D-01 0.50022168D-01 0.13970454D+06 0.13970454D+06 0.13970454D+06 0.11099971D+01  1  2 12  4  7  2       -2 0.116488079365D-03 0.100000000000D+01
-.576638328514D-06 0.000000000000D+00 -.312636145824D-06 0.983888849476D-06 0.000000000000D+00  7 2 21 24 -13 13 -24 2 2 0.99075228D-01 0.53032690D-01 0.83495985D+05 0.83495985D+05 0.83495985D+05 0.11282075D+01  1  2  5  4  7  2       -2 -.152785537940D-03 0.100000000000D+01
  </mgrwgt>
  </event>
  <event>
  8     66 0.26993063E-05 0.38064411E+03 0.75467711E-02 0.91997116E-01
        2 -1    0    0  501    0 0.00000000E+00 0.00000000E+00 0.18719601E+04 0.18719601E+04 0.32000000E+00 0.0000E+00 0.9000E+01
       -2 -1    0    0    0  501 0.00000000E+00 0.00000000E+00 -.11582668E+03 0.11582712E+03 0.32000000E+00 0.0000E+00 0.9000E+01
       25  2    1    2    0    0 0.29679844E+03 -.14311543E+03 0.43433262E+03 0.62218585E+03 0.29983173E+03 0.0000E+00 0.0000E+00
       23  2    1    2    0    0 -.29679844E+03 0.14311543E+03 0.13218008E+04 0.13656014E+04 0.95595475E+02 0.0000E+00 0.0000E+00
       24  1    3    3    0    0 -.91023338E+01 0.48809749E+01 0.15529793E+03 0.17518944E+03 0.80419002E+02 0.0000E+00 0.9000E+01
      -11  1    4    4    0    0 -.21599256E+03 0.88226835E+02 0.74796034E+03 0.78350586E+03 0.51099893E-03 0.0000E+00 0.9000E+01
       11  1    4    4    0    0 -.80805878E+02 0.54888595E+02 0.57384045E+03 0.58209553E+03 0.51099893E-03 0.0000E+00 0.9000E+01
      -24  1    3    3    0    0 0.30590077E+03 -.14799640E+03 0.27903469E+03 0.44699642E+03 0.80419002E+02 0.0000E+00 0.9000E+01
#aMCatNLO 1  0  0  2  1 0.43377551D+03 0.00000000D+00  -5  7  0 0.00000000D+00 0.00000000D+00 0.00000000D+00 0.00000000D+00 0.00000000D+00
  <mgrwgt>
 0.1131103751D-02    3    2    0
 0.465642988830215D+03 0.000000000000000D+00 0.000000000000000D+00 0.465642988830215D+03
 0.465642988830215D+03 0.000000000000000D+00 0.000000000000000D+00 -.465642988830215D+03
 0.810872812204979D+02 -.910233378889728D+01 0.488097490413192D+01 0.112018969032624D+01
 0.261922563171009D+03 -.215992563425915D+03 0.882268348196441D+02 0.119023809636897D+03
 0.160360719038660D+03 -.808058775220126D+02 0.548885946433007D+02 0.127173946021097D+03
 0.427915414230264D+03 0.305900774736825D+03 -.147996404367077D+03 -.247317945348320D+03
 0.000000000000000D+00 -.000000000000000D+00 0.000000000000000D+00 0.000000000000000D+00
 0.117751192230516D+04 0.000000000000000D+00 0.000000000000000D+00 0.117751192230516D+04
 0.584538039584809D+03 0.000000000000000D+00 0.000000000000000D+00 -.584538039584809D+03
 0.846536870180194D+02 0.244160627043274D+02 -.100812612529527D+02 0.112018969032624D+01
 0.180322552782515D+03 -.126555731354378D+03 0.483032363603216D+02 0.119023809636897D+03
 0.132112492923187D+03 -.216579602244841D+02 0.284856279326402D+02 0.127173946021097D+03
 0.630264547007237D+03 0.519900342127436D+03 -.243523410423571D+03 -.247317945348320D+03
 0.734696682159012D+03 -.396102713252902D+03 0.176815807383562D+03 0.592973882720351D+03
0.444060613805D-04 0.000000000000D+00 0.000000000000D+00 0.348733126942D-06 0.000000000000D+00  7 2 -2 24 -11 11 -24 21 0 0.28799390D+00 0.17819526D-01 0.14488994D+06 0.14488994D+06 0.14488994D+06 0.11087418D+01  1  2  2  2  7  2       -2 0.111640606417D-02 0.100000000000D+01
-.234515055247D-05 0.000000000000D+00 -.170530968085D-06 0.348733126942D-06 0.000000000000D+00  7 2 -2 24 -11 11 -24 21 2 0.28799390D+00 0.17819526D-01 0.14488994D+06 0.14488994D+06 0.14488994D+06 0.11087418D+01  1  2  3  2  7  2       -2 -.724788791158D-04 0.100000000000D+01
0.282071376449D-05 0.000000000000D+00 0.000000000000D+00 0.348733126942D-06 0.000000000000D+00  7 2 -2 24 -11 11 -24 21 2 0.28799390D+00 0.17819526D-01 0.14488994D+06 0.14488994D+06 0.14488994D+06 0.11087418D+01  1  2 15  2  7  2       -2 0.871765660170D-04 0.100000000000D+01
  </mgrwgt>
  </event>
  <event>
  8     66 0.26993063E-05 0.33143103E+03 0.75467711E-02 0.95905526E-01
        2 -1    0    0  501    0 0.00000000E+00 0.00000000E+00 0.29839013E+04 0.29839013E+04 0.32000000E+00 0.0000E+00 0.9000E+01
       -2 -1    0    0    0  501 0.00000000E+00 0.00000000E+00 -.61376908E+02 0.61377742E+02 0.32000000E+00 0.0000E+00 0.9000E+01
       25  2    1    2    0    0 0.15757277E+03 -.23163675E+03 0.76663624E+03 0.86928781E+03 0.29907427E+03 0.0000E+00 0.0000E+00
       23  2    1    2    0    0 -.15757277E+03 0.23163675E+03 0.21558881E+04 0.21759912E+04 0.92732997E+02 0.0000E+00 0.0000E+00
       24  1    3    3    0    0 0.39868834E+00 -.17839733E+03 0.23070890E+03 0.30252203E+03 0.80419002E+02 0.0000E+00 0.9000E+01
      -13  1    4    4    0    0 -.24826538E+02 0.65930743E+02 0.85425122E+03 0.85715132E+03 0.10565837E+00 0.0000E+00 0.9000E+01
       13  1    4    4    0    0 -.13274623E+03 0.16570600E+03 0.13016369E+04 0.13188399E+04 0.10565837E+00 0.0000E+00 0.9000E+01
      -24  1    3    3    0    0 0.15717408E+03 -.53239423E+02 0.53592734E+03 0.56676579E+03 0.80419002E+02 0.0000E+00 0.9000E+01
#aMCatNLO 1  0  0  2  2 0.19814712D+03 0.00000000D+00  -5  7  0 0.00000000D+00 0.00000000D+00 0.00000000D+00 0.00000000D+00 0.00000000D+00
  <mgrwgt>
 0.8972255397D-03    4    2    0
 0.427953184450774D+03 0.000000000000000D+00 0.000000000000000D+00 0.427953184450774D+03
 0.427953184450774D+03 0.000000000000000D+00 0.000000000000000D+00 -.427953184450774D+03
 0.288596526653495D+03 0.398688445814741D+00 -.178397325222384D+03 -.212120189145478D+03
 0.132835553922185D+03 -.248263979271465D+02 0.659306141001358D+02 0.112614779119597D+03
 0.247889327257135D+03 -.132746369589768D+03 0.165706133770353D+03 0.127941381732470D+03
 0.186584961068732D+03 0.157174079071100D+03 -.532394226481050D+02 -.284359717065887D+02
 0.000000000000000D+00 0.000000000000000D+00 -.000000000000000D+00 0.000000000000000D+00
 0.606231326630166D+03 0.000000000000000D+00 0.000000000000000D+00 0.606231326630166D+03
 0.498061589300725D+03 0.000000000000000D+00 0.000000000000000D+00 -.498061589300725D+03
 0.276619727797590D+03 -.564984515741019D+02 -.147865507063202D+03 -.212120189145478D+03
 0.148630174216600D+03 -.531599690490049D+02 0.811348131335145D+02 0.112614779119597D+03
 0.299663446004280D+03 -.187865426345848D+03 0.195283807048714D+03 0.127941381732470D+03
 0.153629761529508D+03 0.122926577241365D+03 -.348617239113025D+02 -.284359717065887D+02
 0.225749806382912D+03 0.174597269727590D+03 -.936913892077243D+02 0.108169737329441D+03
0.638323428924D-04 0.000000000000D+00 0.000000000000D+00 0.404008102945D-06 0.000000000000D+00  7 2 -2 24 -13 13 -24 21 0 0.45906180D+00 0.94426667D-02 0.10984653D+06 0.10984653D+06 0.10984653D+06 0.11183903D+01  1  2  2  2  7  2       -2 0.102991538943D-02 0.100000000000D+01
-.326456427567D-05 0.000000000000D+00 -.245133004149D-06 0.404008102945D-06 0.000000000000D+00  7 2 -2 24 -13 13 -24 21 2 0.45906180D+00 0.94426667D-02 0.10984653D+06 0.10984653D+06 0.10984653D+06 0.11183903D+01  1  2  3  2  7  2       -2 -.658829145638D-04 0.100000000000D+01
0.405675296164D-05 0.000000000000D+00 0.000000000000D+00 0.404008102945D-06 0.000000000000D+00  7 2 -2 24 -13 13 -24 21 2 0.45906180D+00 0.94426667D-02 0.10984653D+06 0.10984653D+06 0.10984653D+06 0.11183903D+01  1  2 15  2  7  2       -2 0.818702547137D-04 0.100000000000D+01
-.736710338330D-05 0.000000000000D+00 0.000000000000D+00 0.404008102945D-06 0.000000000000D+00  7 2 -2 24 -13 13 -24 21 2 0.45906180D+00 0.94426667D-02 0.10984653D+06 0.10984653D+06 0.10984653D+06 0.11183903D+01  1  2  4  2  7  2       -2 -.148677189909D-03 0.100000000000D+01
  </mgrwgt>
  </event>
  <event>
  8     66 0.26993063E-05 0.60051356E+03 0.75467711E-02 0.85129215E-01
        2 -1    0    0  501    0 0.00000000E+00 0.00000000E+00 0.77629238E+03 0.77629245E+03 0.32000000E+00 0.0000E+00 0.9000E+01
       -2 -1    0    0    0  501 0.00000000E+00 0.00000000E+00 -.47373773E+03 0.47373784E+03 0.32000000E+00 0.0000E+00 0.9000E+01
       25  2    1    2    0    0 -.20591256E+03 -.52408120E+03 0.10632927E+03 0.64676335E+03 0.29989303E+03 0.0000E+00 0.0000E+00
       23  2    1    2    0    0 0.20591256E+03 0.52408120E+03 0.19622538E+03 0.60326693E+03 0.91463086E+02 0.0000E+00 0.0000E+00
       24  1    3    3    0    0 -.84675979E+02 -.46746253E+03 0.82620957E+02 0.48886059E+03 0.80419002E+02 0.0000E+00 0.9000E+01
      -11  1    4    4    0    0 0.81669131E+02 0.20491704E+03 0.30187464E+02 0.22264798E+03 0.51099893E-03 0.0000E+00 0.9000E+01
       11  1    4    4    0    0 0.12424343E+03 0.31916416E+03 0.16603792E+03 0.38061894E+03 0.51099893E-03 0.0000E+00 0.9000E+01
      -24  1    3    3    0    0 -.12123659E+03 -.56618677E+02 0.23708309E+02 0.15790277E+03 0.80419002E+02 0.0000E+00 0.9000E+01
#aMCatNLO 1  0  0  2  2 0.98599706D+03 0.00000000D+00  -5  7  0 0.00000000D+00 0.00000000D+00 0.00000000D+00 0.00000000D+00 0.00000000D+00
  <mgrwgt>
 0.9656345613D-03    5    2    0
 0.606431445648612D+03 0.000000000000000D+00 0.000000000000000D+00 0.606431445648612D+03
 0.606431445648612D+03 0.000000000000000D+00 0.000000000000000D+00 -.606431445648612D+03
 0.483231193075907D+03 -.846759791971524D+02 -.467462525308009D+03 -.367958691547952D+02
 0.221940474518970D+03 0.816691309974820D+02 0.204917044382868D+03 -.244281025298986D+02
 0.350863783443352D+03 0.124243433774509D+03 0.319164157783241D+03 0.761787639871946D+02
 0.156827440258995D+03 -.121236585574839D+03 -.566186768581000D+02 -.149547923025007D+02
 0.000000000000000D+00 0.000000000000000D+00 -.000000000000000D+00 -.000000000000000D+00
 0.110400548032072D+04 0.000000000000000D+00 0.000000000000000D+00 0.110400548032072D+04
 0.153526050559143D+04 0.000000000000000D+00 0.000000000000000D+00 -.153526050559143D+04
 0.297115306530579D+03 -.189641250242834D+03 -.210932571310993D+03 -.367958691547952D+02
 0.415063812151486D+03 -.401502039083499D+01 0.414324891330190D+03 -.244281025298986D+02
 0.654066974555903D+03 -.109309143499804D+02 0.649523608680677D+03 0.761787639871946D+02
 0.196836310107960D+03 -.168808287934008D+03 0.596442213003439D+02 -.149547923025007D+02
 0.107618358256622D+04 0.373395472917658D+03 -.912560150000219D+03 -.431255025270706D+03
0.123211924947D-03 0.000000000000D+00 0.000000000000D+00 0.981795776947D-05 0.000000000000D+00  7 2 -2 24 -11 11 -24 21 0 0.11942961D+00 0.72882741D-01 0.36061653D+06 0.36061653D+06 0.36061653D+06 0.10786878D+01  1  2  2  2  7  2       -2 0.944285648567D-03 0.100000000000D+01
-.684430657837D-05 0.000000000000D+00 -.473166234241D-06 0.981795776947D-05 0.000000000000D+00  7 2 -2 24 -11 11 -24 21 2 0.11942961D+00 0.72882741D-01 0.36061653D+06 0.36061653D+06 0.36061653D+06 0.10786878D+01  1  2  3  2  7  2       -2 -.610339695167D-04 0.100000000000D+01
0.789745723671D-05 0.000000000000D+00 0.000000000000D+00 0.981795776947D-05 0.000000000000D+00  7 2 -2 24 -11 11 -24 21 2 0.11942961D+00 0.72882741D-01 0.36061653D+06 0.36061653D+06 0.36061653D+06 0.10786878D+01  1  2 15  2  7  2       -2 0.704254198326D-04 0.100000000000D+01
0.227340676036D-04 0.000000000000D+00 -.399827870626D-04 0.981795776947D-05 0.000000000000D+00  7 2 -2 24 -11 11 -24 21 2 0.11942961D+00 0.27239089D+00 0.36061653D+06 0.36061653D+06 0.36061653D+06 0.10786878D+01  1  2  5  2  7  2       -2 0.494176995142D-05 0.100000000000D+01
0.444033029078D-05 0.000000000000D+00 -.623135600990D-05 0.981795776947D-05 0.000000000000D+00  7 2 21 24 -11 11 -24 2 2 0.11942961D+00 0.27239089D+00 0.36061653D+06 0.36061653D+06 0.36061653D+06 0.10786878D+01  1  2  5  4  7  2       -2 0.701569245677D-05 0.100000000000D+01
  </mgrwgt>
  </event>
  <event>
  8     66 0.26993063E-05 0.29366953E+03 0.75467711E-02 0.94288678E-01
        2 -1    0    0  501    0 0.00000000E+00 0.00000000E+00 0.81957126E+03 0.81957132E+03 0.32000000E+00 0.0000E+00 0.9000E+01
       -2 -1    0    0    0  501 0.00000000E+00 0.00000000E+00 -.24247295E+03 0.24247316E+03 0.32000000E+00 0.0000E+00 0.9000E+01
       25  2    1    2    0    0 -.23332830E+03 -.97381839E+02 0.67238053E+03 0.77650358E+03 0.29485065E+03 0.0000E+00 0.0000E+00
       23  2    1    2    0    0 0.23332830E+03 0.97381839E+02 -.95282218E+02 0.28554090E+03 0.92355752E+02 0.0000E+00 0.0000E+00
       24  1    3    3    0    0 -.21409643E+03 -.86873134E+02 0.26490900E+03 0.36059426E+03 0.80419002E+02 0.0000E+00 0.9000E+01
      -11  1    4    4    0    0 0.80319909E+01 -.73543867E+01 0.10847742E+02 0.15371187E+02 0.51099893E-03 0.0000E+00 0.9000E+01
       11  1    4    4    0    0 0.22529631E+03 0.10473623E+03 -.10612996E+03 0.27016971E+03 0.51099893E-03 0.0000E+00 0.9000E+01
      -24  1    3    3    0    0 -.19231872E+02 -.10508705E+02 0.40747153E+03 0.41590932E+03 0.80419002E+02 0.0000E+00 0.9000E+01
#aMCatNLO 1  0  0  2  2 0.33306746D+03 0.00000000D+00  -5  7  0 0.00000000D+00 0.00000000D+00 0.00000000D+00 0.00000000D+00 0.00000000D+00
  <mgrwgt>
 0.2405332781D-02    3    2    0
 0.445784704737821D+03 0.000000000000000D+00 0.000000000000000D+00 0.445784704737821D+03
 0.445784704737821D+03 0.000000000000000D+00 0.000000000000000D+00 -.445784704737821D+03
 0.258071440718642D+03 -.214096431798989D+03 -.868731344065823D+02 0.821549083715740D+02
 0.112887124582686D+02 0.803199090046830D+01 -.735438674808297D+01 0.297239746667299D+01
 0.390524474156312D+03 0.225296313267104D+03 0.104736226154507D+03 -.301299284888343D+03
 0.231684782142420D+03 -.192318723685834D+02 -.105087049998414D+02 0.216171979050096D+03
 0.000000000000000D+00 -.000000000000000D+00 -.000000000000000D+00 0.000000000000000D+00
 0.643659014770407D+03 0.000000000000000D+00 0.000000000000000D+00 0.643659014770407D+03
 0.641168739688869D+03 0.000000000000000D+00 0.000000000000000D+00 -.641168739688869D+03
 0.189479563623189D+03 -.141969086644209D+03 -.503054524314329D+02 0.821549083715740D+02
 0.134845975113345D+02 0.120244589353276D+02 -.533025427680752D+01 0.297239746667299D+01
 0.509646396418560D+03 0.370367901645537D+03 0.178285747436183D+03 -.301299284888343D+03
 0.239140430306335D+03 0.566463454801391D+02 0.279606235631178D+02 0.216171979050096D+03
 0.333076766599857D+03 -.297069619416795D+03 -.150610664291061D+03 0.249027508153789D+01
0.830803413297D-04 0.000000000000D+00 0.000000000000D+00 0.342260302283D-07 0.000000000000D+00  7 2 -2 24 -11 11 -24 21 0 0.12608791D+00 0.37303551D-01 0.86241792D+05 0.86241792D+05 0.86241792D+05 0.11270356D+01  1  2  2  2  7  2       -2 0.235127510010D-02 0.100000000000D+01
-.363794867886D-05 0.000000000000D+00 -.319050386262D-06 0.342260302283D-07 0.000000000000D+00  7 2 -2 24 -11 11 -24 21 2 0.12608791D+00 0.37303551D-01 0.86241792D+05 0.86241792D+05 0.86241792D+05 0.11270356D+01  1  2  3  2  7  2       -2 -.130778703735D-03 0.100000000000D+01
0.514170322061D-05 0.000000000000D+00 0.000000000000D+00 0.342260302283D-07 0.000000000000D+00  7 2 -2 24 -11 11 -24 21 2 0.12608791D+00 0.37303551D-01 0.86241792D+05 0.86241792D+05 0.86241792D+05 0.11270356D+01  1  2 15  2  7  2       -2 0.184836384880D-03 0.100000000000D+01
  </mgrwgt>
  </event>
  <event>
  8     66 0.26993063E-05 0.18808333E+03 0.75467711E-02 0.94824685E-01
        2 -1    0    0  501    0 0.00000000E+00 0.00000000E+00 0.10407476E+04 0.10407477E+04 0.32000000E+00 0.0000E+00 0.9000E+01
       -2 -1    0    0    0  501 0.00000000E+00 0.00000000E+00 -.35195605E+03 0.35195619E+03 0.32000000E+00 0.0000E+00 0.9000E+01
       25  2    1    2    0    0 -.20418244E+02 0.32515538E+03 0.89389803E+03 0.99718948E+03 0.29864736E+03 0.0000E+00 0.0000E+00
       23  2    1    2    0    0 0.20418244E+02 -.32515538E+03 -.20510644E+03 0.39551440E+03 0.90664571E+02 0.0000E+00 0.0000E+00
       24  1    3    3    0    0 -.13354186E+03 0.15683499E+03 0.39518993E+03 0.45284980E+03 0.80419002E+02 0.0000E+00 0.9000E+01
      -13  1    4    4    0    0 -.52671844E+01 -.12289274E+03 -.29656946E+02 0.12653029E+03 0.10565837E+00 0.0000E+00 0.9000E+01
       13  1    4    4    0    0 0.25685429E+02 -.20226265E+03 -.17544949E+03 0.26898411E+03 0.10565837E+00 0.0000E+00 0.9000E+01
      -24  1    3    3    0    0 0.11312361E+03 0.16832039E+03 0.49870810E+03 0.54433968E+03 0.80419002E+02 0.0000E+00 0.9000E+01
#aMCatNLO 1  0  0  2  1 0.20002558D+03 0.00000000D+00  -5  7  0 0.00000000D+00 0.00000000D+00 0.00000000D+00 0.00000000D+00 0.00000000D+00
  <mgrwgt>
 0.6896428605D-03    9    2    0
 0.605225214006736D+03 0.000000000000000D+00 0.000000000000000D+00 0.605225214006736D+03
 0.605225214006736D+03 0.000000000000000D+00 0.000000000000000D+00 -.605225214006736D+03
 0.296156008706011D+03 -.133541855827816D+03 0.156834991362681D+03 0.197003867384970D+03
 0.162457104835227D+03 -.526722638518711D+01 -.122892629719944D+03 -.106122423635006D+03
 0.409321808156683D+03 0.256854706549387D+02 -.202262752840297D+03 -.354928694308245D+03
 0.342515506315550D+03 0.113123611558064D+03 0.168320391197560D+03 0.264047250558282D+03
 0.000000000000000D+00 0.000000000000000D+00 -.000000000000000D+00 -.000000000000000D+00
 0.654252066907268D+03 0.000000000000000D+00 0.000000000000000D+00 0.654252066907268D+03
 0.858479623694257D+03 0.000000000000000D+00 0.000000000000000D+00 -.858479623694257D+03
 0.324519254736074D+03 -.184265640233007D+03 0.161496689764748D+03 0.197003867384970D+03
 0.163668505698900D+03 -.319193682250370D+02 -.120443201932104D+03 -.106122423635006D+03
 0.407587332136758D+03 -.410752423160910D+02 -.196127202967051D+03 -.354928694308245D+03
 0.331091024710765D+03 0.580740961895555D+02 0.173379639848606D+03 0.264047250558282D+03
 0.285865573319028D+03 0.199186154584580D+03 -.183059247141982D+02 -.204227556786988D+03
0.820093276456D-04 0.000000000000D+00 0.000000000000D+00 0.111413266024D-05 0.000000000000D+00  7 2 -2 24 -13 13 -24 21 0 0.16011504D+00 0.54147099D-01 0.14676028D+06 0.14676028D+06 0.14676028D+06 0.11083010D+01  1  2  2  2  7  2       -2 0.812348466213D-03 0.100000000000D+01
-.339751555094D-05 0.000000000000D+00 -.314937411711D-06 0.111413266024D-05 0.000000000000D+00  7 2 -2 24 -13 13 -24 21 2 0.16011504D+00 0.54147099D-01 0.14676028D+06 0.14676028D+06 0.14676028D+06 0.11083010D+01  1  2  3  2  7  2       -2 -.413386237922D-04 0.100000000000D+01
0.496505865144D-05 0.000000000000D+00 0.000000000000D+00 0.111413266024D-05 0.000000000000D+00  7 2 -2 24 -13 13 -24 21 2 0.16011504D+00 0.54147099D-01 0.14676028D+06 0.14676028D+06 0.14676028D+06 0.11083010D+01  1  2 15  2  7  2       -2 0.604114061056D-04 0.100000000000D+01
0.527643528378D-04 0.000000000000D+00 0.000000000000D+00 0.111413266024D-05 0.000000000000D+00  7 2 -2 24 -13 13 -24 21 2 0.16011504D+00 0.78284181D-01 0.24139521D+06 0.24139521D+06 0.24139521D+06 0.10916053D+01  1  2 12  2  7  2       -2 0.280354568411D-03 0.100000000000D+01
-.918422861440D-04 0.000000000000D+00 0.000000000000D+00 0.111413266024D-05 0.000000000000D+00  7 2 -2 24 -13 13 -24 21 2 0.16011504D+00 0.54147099D-01 0.14676028D+06 0.14676028D+06 0.14676028D+06 0.11083010D+01  1  2  4  2  7  2       -2 -.111747353565D-02 0.100000000000D+01
-.934689662139D-04 0.000000000000D+00 -.322819985985D-04 0.111413266024D-05 0.000000000000D+00  7 2 -2 24 -13 13 -24 21 2 0.16011504D+00 0.81208634D-01 0.14676028D+06 0.14676028D+06 0.14676028D+06 0.11083010D+01  1  2  5  2  7  2       -2 -.481426548755D-03 0.100000000000D+01
0.100653372052D-03 0.000000000000D+00 0.298004632552D-04 0.111413266024D-05 0.000000000000D+00  7 2 -2 24 -13 13 -24 21 2 0.16011504D+00 0.54147099D-01 0.14676028D+06 0.14676028D+06 0.14676028D+06 0.11083010D+01  1  2  6  2  7  2       -2 0.122468074636D-02 0.100000000000D+01
0.236648339310D-05 0.000000000000D+00 0.000000000000D+00 0.111413266024D-05 0.000000000000D+00  7 2 21 24 -13 13 -24 2 2 0.16011504D+00 0.78284181D-01 0.24139521D+06 0.24139521D+06 0.24139521D+06 0.10916053D+01  1  2 12  4  7  2       -2 0.121740840139D-03 0.100000000000D+01
-.337081472451D-05 0.000000000000D+00 -.155160233789D-05 0.111413266024D-05 0.000000000000D+00  7 2 21 24 -13 13 -24 2 2 0.16011504D+00 0.81208634D-01 0.14676028D+06 0.14676028D+06 0.14676028D+06 0.11083010D+01  1  2  5  4  7  2       -2 -.169654458556D-03 0.100000000000D+01
  </mgrwgt>
  </event>
  <event>
  8     66 0.26993063E-05 0.22510466E+03 0.75467711E-02 0.10156347E+00
        2 -1    0    0  501    0 0.00000000E+00 0.00000000E+00 0.52114423E+03 0.52114432E+03 0.32000000E+00 0.0000E+00 0.9000E+01
       -2 -1    0    0    0  501 0.00000000E+00 0.00000000E+00 -.33676921E+03 0.33676936E+03 0.32000000E+00 0.0000E+00 0.9000E+01
       25  2    1    2    0    0 0.10003063E+02 -.14230086E+03 0.44142350E+03 0.55268716E+03 0.30043102E+03 0.0000E+00 0.0000E+00
       23  2    1    2    0    0 -.10003063E+02 0.14230086E+03 -.25704848E+03 0.30522653E+03 0.82095774E+02 0.0000E+00 0.0000E+00
       24  1    3    3    0    0 0.24179753E+02 -.18082000E+03 0.15547916E+03 0.25282706E+03 0.80419002E+02 0.0000E+00 0.9000E+01
      -11  1    4    4    0    0 -.15067264E+01 -.89438110E+01 -.32053601E+01 0.96195796E+01 0.51099893E-03 0.0000E+00 0.9000E+01
       11  1    4    4    0    0 -.84963365E+01 0.15124467E+03 -.25384312E+03 0.29560695E+03 0.51099893E-03 0.0000E+00 0.9000E+01
      -24  1    3    3    0    0 -.14176690E+02 0.38519145E+02 0.28594433E+03 0.29986010E+03 0.80419002E+02 0.0000E+00 0.9000E+01
#aMCatNLO 1  0  0  1  1 0.10867251D+03 0.00000000D+00  -5  7  0 0.00000000D+00 0.00000000D+00 0.00000000D+00 0.00000000D+00 0.00000000D+00
  <mgrwgt>
 0.1138730937D-02    4    2    0
 0.418933688719291D+03 0.000000000000000D+00 0.000000000000000D+00 0.418933688719291D+03
 0.418933688719291D+03 0.000000000000000D+00 0.000000000000000D+00 -.418933688719291D+03
 0.224662425757657D+03 0.241797526729982D+02 -.180820003560519D+03 0.103563774873220D+03
 0.105550801613069D+02 -.150672637315895D+01 -.894381097140460D+01 -.539886452467773D+01
 0.358538334342900D+03 -.849633649520187D+01 0.151244669879634D+03 -.324965535545759D+03
 0.244111537176718D+03 -.141766898046374D+02 0.385191446522893D+02 0.226800625197217D+03
 0.000000000000000D+00 0.000000000000000D+00 0.000000000000000D+00 -.000000000000000D+00
 0.433897009066352D+03 0.000000000000000D+00 0.000000000000000D+00 0.433897009066352D+03
 0.680200527817854D+03 0.000000000000000D+00 0.000000000000000D+00 -.680200527817854D+03
 0.231974765846829D+03 -.337245734346925D+01 -.191332817626240D+03 0.103563774873220D+03
 0.112396136967026D+02 -.282175719732494D+01 -.944557378959187D+01 -.539886452467773D+01
 0.355577934975833D+03 -.515841133784475D+02 0.134804108973335D+03 -.324965535545759D+03
 0.246093154747029D+03 -.437542688351233D+02 0.272335313139819D+02 0.226800625197217D+03
 0.269212067617813D+03 0.101532596754365D+03 0.387407511285154D+02 -.246303518751502D+03
0.446353276689D-04 0.000000000000D+00 0.000000000000D+00 0.594488137899D-07 0.000000000000D+00  7 2 -2 24 -11 11 -24 21 0 0.80176054D-01 0.51810667D-01 0.50672108D+05 0.50672108D+05 0.50672108D+05 0.11467857D+01  1  2  2  1  7  1        2 0.116544069776D-02 0.100000000000D+01
-.131648047885D-05 0.000000000000D+00 -.171411411000D-06 0.594488137899D-07 0.000000000000D+00  7 2 -2 24 -11 11 -24 21 2 0.80176054D-01 0.51810667D-01 0.50672108D+05 0.50672108D+05 0.50672108D+05 0.11467857D+01  1  2  3  1  7  1        2 -.452054071876D-04 0.100000000000D+01
0.280879811172D-05 0.000000000000D+00 0.000000000000D+00 0.594488137899D-07 0.000000000000D+00  7 2 -2 24 -11 11 -24 21 2 0.80176054D-01 0.51810667D-01 0.50672108D+05 0.50672108D+05 0.50672108D+05 0.11467857D+01  1  2 15  1  7  1        2 0.964487239942D-04 0.100000000000D+01
-.227016436362D-05 0.000000000000D+00 0.000000000000D+00 0.594488137899D-07 0.000000000000D+00  7 2 -2 24 -11 11 -24 21 2 0.80176054D-01 0.51810667D-01 0.50672108D+05 0.50672108D+05 0.50672108D+05 0.11467857D+01  1  2  4  1  7  1        2 -.779530772304D-04 0.100000000000D+01
  </mgrwgt>
  </event>
  <event>
  7     66 0.26993063E-05 0.27473246E+03 0.75467711E-02 0.10187842E+00
        2 -1    0    0  501    0 0.00000000E+00 0.00000000E+00 0.14867918E+04 0.14867919E+04 0.32000000E+00 0.0000E+00 0.9000E+01
       -2 -1    0    0    0  501 0.00000000E+00 0.00000000E+00 -.67100676E+02 0.67101439E+02 0.32000000E+00 0.0000E+00 0.9000E+01
       25  2    1    2    0    0 0.15782577E+03 -.85118148E+02 0.64050064E+03 0.73010745E+03 0.30110089E+03 0.0000E+00 0.0000E+00
       24  1    3    3    0    0 -.54824174E+02 -.73872920E+02 0.24503652E+03 0.27381200E+03 0.80419002E+02 0.0000E+00 0.9000E+01
      -11  1    1    2    0    0 -.30025429E+02 0.63218933E+02 0.59171415E+03 0.59583874E+03 0.51099893E-03 0.0000E+00 0.9000E+01
       11  1    1    2    0    0 -.12780034E+03 0.21899216E+02 0.18747636E+03 0.22794711E+03 0.51099893E-03 0.0000E+00 0.9000E+01
      -24  1    3    3    0    0 0.21264994E+03 -.11245228E+02 0.39546412E+03 0.45629545E+03 0.80419002E+02 0.0000E+00 0.9000E+01
#aMCatNLO 1  0  0  2  1 0.28405281D+01 0.00000000D+00  -5  7  0 0.00000000D+00 0.00000000D+00 0.00000000D+00 0.00000000D+00 0.00000000D+00
  <mgrwgt>
 0.1847418422D-02    8    2    0
 0.315856542801551D+03 0.000000000000000D+00 0.000000000000000D+00 0.315856542801551D+03
 0.315856542801551D+03 0.000000000000000D+00 0.000000000000000D+00 -.315856542801551D+03
 0.122838123789060D+03 -.548241650828178D+02 -.738729250073797D+02 -.126131112526537D+02
 0.135850386419933D+03 -.300254532333327D+02 0.632189337312171D+02 0.116435244090722D+03
 0.139378088994544D+03 -.127800338794365D+03 0.218992280708299D+02 -.511248364859812D+02
 0.233646486399566D+03 0.212649957110516D+03 -.112452367946672D+02 -.526972963520872D+02
 0.000000000000000D+00 0.000000000000000D+00 -.000000000000000D+00 0.000000000000000D+00
 0.327396450191667D+03 0.000000000000000D+00 0.000000000000000D+00 0.327396450191667D+03
 0.316034582074686D+03 0.000000000000000D+00 0.000000000000000D+00 -.316034582074686D+03
 0.122933869813957D+03 -.553313784963522D+02 -.736537057539264D+02 -.126131112526537D+02
 0.136088469160480D+03 -.305866686639011D+02 0.634614928284980D+02 0.116435244090722D+03
 0.139946064862611D+03 -.128376795678177D+03 0.221483745727659D+02 -.511248364859812D+02
 0.232751068019191D+03 0.211687426383671D+03 -.108292279476329D+02 -.526972963520872D+02
 0.117115604101138D+02 0.260741645475892D+01 -.112693369970449D+01 0.113618681169809D+02
0.162569926393D-04 0.000000000000D+00 0.000000000000D+00 0.119396101974D-09 0.000000000000D+00  7 2 -2 24 -11 11 -24 21 0 0.22873727D+00 0.10323242D-01 0.75477925D+05 0.75477925D+05 0.75477925D+05 0.11318884D+01  1  2  2  2  7  2       -2 0.158359684778D-02 0.100000000000D+01
-.881799545877D-06 0.000000000000D+00 -.624311322995D-07 0.119396101974D-09 0.000000000000D+00  7 2 -2 24 -11 11 -24 21 2 0.22873727D+00 0.10323242D-01 0.75477925D+05 0.75477925D+05 0.75477925D+05 0.11318884D+01  1  2  3  2  7  2       -2 -.110047833838D-03 0.100000000000D+01
0.104842628211D-05 0.000000000000D+00 0.000000000000D+00 0.119396101974D-09 0.000000000000D+00  7 2 -2 24 -11 11 -24 21 2 0.22873727D+00 0.10323242D-01 0.75477925D+05 0.75477925D+05 0.75477925D+05 0.11318884D+01  1  2 15  2  7  2       -2 0.130842708896D-03 0.100000000000D+01
-.289536402450D-05 0.000000000000D+00 0.000000000000D+00 0.119396101974D-09 0.000000000000D+00  7 2 -2 24 -11 11 -24 21 2 0.22873727D+00 0.10323242D-01 0.75477925D+05 0.75477925D+05 0.75477925D+05 0.11318884D+01  1  2  4  2  7  2       -2 -.361338969337D-03 0.100000000000D+01
0.165226612868D-06 0.000000000000D+00 0.000000000000D+00 0.119396101974D-09 0.000000000000D+00  7 2 -2 24 -11 11 -24 21 2 0.22873727D+00 0.10815283D-01 0.75477925D+05 0.75477925D+05 0.75477925D+05 0.11318884D+01  1  2  5  2  7  2       -2 0.191885757815D-04 0.100000000000D+01
-.165047664546D-06 0.000000000000D+00 0.000000000000D+00 0.119396101974D-09 0.000000000000D+00  7 2 -2 24 -11 11 -24 21 2 0.22873727D+00 0.10323242D-01 0.75477925D+05 0.75477925D+05 0.75477925D+05 0.11318884D+01  1  2  6  2  7  2       -2 -.205978082528D-04 0.100000000000D+01
0.288948706147D-05 0.000000000000D+00 0.000000000000D+00 0.119396101974D-09 0.101105462396D-09  7 2 -2 24 -11 11 -24 21 2 0.23709425D+00 0.10329061D-01 0.76328946D+05 0.76328946D+05 0.76328946D+05 0.11314778D+01  1  2 11  2  7  2       -2 0.336652749192D-03 0.100000000000D+01
0.158465925565D-06 0.000000000000D+00 0.000000000000D+00 0.119396101974D-09 0.108869478183D-13  7 2 21 24 -11 11 -24 2 2 0.23709425D+00 0.10329061D-01 0.76328946D+05 0.76328946D+05 0.76328946D+05 0.11314778D+01  1  2 11  4  7  2       -2 0.269122151768D-03 0.100000000000D+01
  </mgrwgt>
  </event>
  <event>
  9     66 0.26993063E-05 0.15290176E+03 0.75467711E-02 0.99519226E-01
        2 -1    0    0  501    0 0.00000000E+00 0.00000000E+00 0.12510111E+04 0.12510111E+04 0.32000000E+00 0.0000E+00 0.9000E+01
       21 -1    0    0  502  501 0.00000000E+00 0.00000000E+00 -.14361119E+03 0.14361314E+03 0.75000000E+00 0.0000E+00 0.9000E+01
       25  2    1    2    0    0 0.25037696E+03 0.18085393E+02 0.28430536E+03 0.48372690E+03 0.30024402E+03 0.0000E+00 0.0000E+00
       23  2    1    2    0    0 0.29618479E+02 0.34691721E+02 0.25186132E+03 0.27254766E+03 0.93634015E+02 0.0000E+00 0.0000E+00
       24  1    3    3    0    0 0.10712678E+03 -.57170424E+02 -.14302719E+01 0.14564980E+03 0.80419002E+02 0.0000E+00 0.9000E+01
      -11  1    4    4    0    0 0.21372428E+02 0.37967629E+02 0.36039448E+02 0.56543464E+02 0.51099893E-03 0.0000E+00 0.9000E+01
       11  1    4    4    0    0 0.82460507E+01 -.32759076E+01 0.21582188E+03 0.21600419E+03 0.51099893E-03 0.0000E+00 0.9000E+01
      -24  1    3    3    0    0 0.14325018E+03 0.75255817E+02 0.28573563E+03 0.33807709E+03 0.80419002E+02 0.0000E+00 0.9000E+01
        2  1    1    2  502    0 -.27999544E+03 -.52777114E+02 0.57123319E+03 0.63834970E+03 0.32000000E+00 0.0000E+00 0.9000E+01
#aMCatNLO 2  0  0  2  1 0.28492608D+03 0.00000000D+00  -5  7  0 0.00000000D+00 0.00000000D+00 0.00000000D+00 0.00000000D+00 0.00000000D+00
  <mgrwgt>
 0.1802373606D-03    1    2    0
 0.225440467226566D+03 0.000000000000000D+00 0.000000000000000D+00 0.225440467226566D+03
 0.225440467226566D+03 0.000000000000000D+00 0.000000000000000D+00 -.225440467226566D+03
 0.186169739406709D+03 -.499422078046685D+01 -.783044215365814D+02 -.148443360387081D+03
 0.342689745684768D+02 -.878003304719137D+00 0.337735833407064D+02 -.573905885142911D+01
 0.100926891374057D+03 -.458759694251868D+02 -.134775159609678D+02 0.888818845167665D+02
 0.129515329103890D+03 0.517481935103728D+02 0.580083541568428D+02 0.653005347217435D+02
 0.000000000000000D+00 -.000000000000000D+00 -.000000000000000D+00 0.000000000000000D+00
 0.516266319957591D+03 0.000000000000000D+00 0.000000000000000D+00 0.516266319957591D+03
 0.347999663543185D+03 0.000000000000000D+00 0.000000000000000D+00 -.347999663543185D+03
 0.207959734983824D+03 0.107126778854858D+03 -.571704244285923D+02 -.148443360387081D+03
 0.439460835155851D+02 0.213724272485424D+02 0.379676284927618D+02 -.573905885142911D+01
 0.893236716172223D+02 0.824605059564801D+01 -.327590682156370D+01 0.888818845167665D+02
 0.192133882519324D+03 0.143250183294000D+03 0.752558171098323D+02 0.653005347217435D+02
 0.330902610864820D+03 -.279995439993048D+03 -.527771143524382D+02 0.168266656414406D+03
0.297810565089D-06 0.000000000000D+00 0.000000000000D+00 0.155750174938D-06 0.196661094000D-11  7 2 21 24 -11 11 -24 2 2 0.19246336D+00 0.22094178D-01 0.11012713D+06 0.11012713D+06 0.11012713D+06 0.11183003D+01  1  2  1  4  7  2       -2 0.180237360594D-03 0.100000000000D+01
  </mgrwgt>
  </event>
  <event>
  8     66 0.26993063E-05 0.82282673E+02 0.75467711E-02 0.10422622E+00
        2 -1    0    0  501    0 0.00000000E+00 0.00000000E+00 0.13461077E+03 0.13461115E+03 0.32000000E+00 0.0000E+00 0.9000E+01
       -2 -1    0    0    0  501 0.00000000E+00 0.00000000E+00 -.48102623E+03 0.48102634E+03 0.32000000E+00 0.0000E+00 0.9000E+01
       25  2    1    2    0    0 0.14637064E+03 -.10695008E+02 -.25453810E+03 0.41989078E+03 0.29996646E+03 0.0000E+00 0.0000E+00
       23  2    1    2    0    0 -.14637064E+03 0.10695008E+02 -.91877357E+02 0.19574670E+03 0.91304853E+02 0.0000E+00 0.0000E+00
       24  1    3    3    0    0 -.34879541E+02 0.43228077E+02 -.17322775E+03 0.19889776E+03 0.80419002E+02 0.0000E+00 0.9000E+01
      -11  1    4    4    0    0 -.10969926E+03 0.24247197E+01 -.15759553E+02 0.11085202E+03 0.51099893E-03 0.0000E+00 0.9000E+01
       11  1    4    4    0    0 -.36671385E+02 0.82702879E+01 -.76117804E+02 0.84894689E+02 0.51099893E-03 0.0000E+00 0.9000E+01
      -24  1    3    3    0    0 0.18125018E+03 -.53923084E+02 -.81310345E+02 0.22099302E+03 0.80419002E+02 0.0000E+00 0.9000E+01
#aMCatNLO 1  0  0  1  2 0.12789595D+02 0.00000000D+00  -5  7  0 0.00000000D+00 0.00000000D+00 0.00000000D+00 0.00000000D+00 0.00000000D+00
  <mgrwgt>
 0.4415786657D-03    9    2    0
 0.254463085385640D+03 0.000000000000000D+00 0.000000000000000D+00 0.254463085385640D+03
 0.254463085385640D+03 0.000000000000000D+00 0.000000000000000D+00 -.254463085385640D+03
 0.122689990105037D+03 -.348795407055146D+02 0.432280766070045D+02 -.741644709455600D+02
 0.123368195754719D+03 -.109699255067781D+03 0.242471967230362D+01 0.563906543308298D+02
 0.508835480537299D+02 -.366713850659802D+02 0.827028792879290D+01 -.342920882632381D+02
 0.211984436857795D+03 0.181250180839276D+03 -.539230842081010D+02 0.520659048779682D+02
 0.000000000000000D+00 0.000000000000000D+00 -.000000000000000D+00 0.000000000000000D+00
 0.265538088528755D+03 0.000000000000000D+00 0.000000000000000D+00 0.265538088528755D+03
 0.258262814291728D+03 0.000000000000000D+00 0.000000000000000D+00 -.258262814291728D+03
 0.123923165985866D+03 -.377921264269800D+02 0.442845519688571D+02 -.741644709455600D+02
 0.126019504326480D+03 -.112644609102738D+03 0.349308100736459D+01 0.563906543308298D+02
 0.518368230515445D+02 -.378845477817380D+02 0.871033558461658D+01 -.342920882632381D+02
 0.207307356815735D+03 0.176298201347432D+03 -.521268643451194D+02 0.520659048779682D+02
 0.147140526408580D+02 0.120230819640235D+02 -.436110421571894D+01 0.727527423702720D+01
0.535179718070D-05 0.000000000000D+00 0.000000000000D+00 0.997752027489D-06 0.000000000000D+00  7 2 -2 24 -11 11 -24 21 0 0.20709387D-01 0.74004073D-01 0.50747955D+05 0.50747955D+05 0.50747955D+05 0.11467286D+01  1  2  2  1  7  1        2 0.300255875331D-03 0.100000000000D+01
-.291955381062D-06 0.000000000000D+00 -.205523103344D-07 0.997752027489D-06 0.000000000000D+00  7 2 -2 24 -11 11 -24 21 2 0.20709387D-01 0.74004073D-01 0.50747955D+05 0.50747955D+05 0.50747955D+05 0.11467286D+01  1  2  3  1  7  1        2 -.215392038923D-04 0.100000000000D+01
0.337087609187D-06 0.000000000000D+00 0.000000000000D+00 0.997752027489D-06 0.000000000000D+00  7 2 -2 24 -11 11 -24 21 2 0.20709387D-01 0.74004073D-01 0.50747955D+05 0.50747955D+05 0.50747955D+05 0.11467286D+01  1  2 15  1  7  1        2 0.248688642677D-04 0.100000000000D+01
0.185794705625D-04 0.000000000000D+00 0.000000000000D+00 0.997752027489D-06 0.000000000000D+00  7 2 -2 24 -11 11 -24 21 2 0.21760701D-01 0.74004073D-01 0.53894612D+05 0.53894612D+05 0.53894612D+05 0.11444411D+01  1  2 12  1  7  1        2 0.128843291517D-02 0.100000000000D+01
-.182276237305D-04 0.000000000000D+00 0.000000000000D+00 0.997752027489D-06 0.000000000000D+00  7 2 -2 24 -11 11 -24 21 2 0.20709387D-01 0.74004073D-01 0.50747955D+05 0.50747955D+05 0.50747955D+05 0.11467286D+01  1  2  4  1  7  1        2 -.134475515599D-02 0.100000000000D+01
-.925667163641D-04 0.000000000000D+00 -.137084319613D-04 0.997752027489D-06 0.000000000000D+00  7 2 -2 24 -11 11 -24 21 2 0.21909035D-01 0.74004073D-01 0.50747955D+05 0.50747955D+05 0.50747955D+05 0.11467286D+01  1  2  5  1  7  1        2 -.639512727037D-02 0.100000000000D+01
0.932125428749D-04 0.000000000000D+00 0.136867256030D-04 0.997752027489D-06 0.000000000000D+00  7 2 -2 24 -11 11 -24 21 2 0.20709387D-01 0.74004073D-01 0.50747955D+05 0.50747955D+05 0.50747955D+05 0.11467286D+01  1  2  6  1  7  1        2 0.687681781715D-02 0.100000000000D+01
0.260968714528D-06 0.000000000000D+00 0.000000000000D+00 0.997752027489D-06 0.000000000000D+00  7 21 -2 24 -11 11 -24 -2 2 0.21760701D-01 0.74004073D-01 0.53894612D+05 0.53894612D+05 0.53894612D+05 0.11444411D+01  1  2 12  3  7  1        2 0.121406606553D-03 0.100000000000D+01
-.884729362690D-06 0.000000000000D+00 -.133269388741D-06 0.997752027489D-06 0.000000000000D+00  7 21 -2 24 -11 11 -24 -2 2 0.21909035D-01 0.74004073D-01 0.50747955D+05 0.50747955D+05 0.50747955D+05 0.11467286D+01  1  2  5  3  7  1        2 -.408781782503D-03 0.100000000000D+01
  </mgrwgt>
  </event>
  <event>
  8     66 -.26993063E-05 0.38116013E+03 0.75467711E-02 0.96986367E-01
        2 -1    0    0  501    0 0.00000000E+00 0.00000000E+00 0.36605867E+04 0.36605867E+04 0.32000000E+00 0.0000E+00 0.9000E+01
       -2 -1    0    0    0  502 0.00000000E+00 0.00000000E+00 -.85551510E+02 0.85552109E+02 0.32000000E+00 0.0000E+00 0.9000E+01
       23  2    1    2    0    0 -.11626429E+03 0.28329764E+03 0.26349873E+04 0.26542764E+04 0.90830699E+02 0.0000E+00 0.0000E+00
       24  1    1    2    0    0 0.17632661E+03 -.16872918E+03 0.25482064E+03 0.36188587E+03 0.80419002E+02 0.0000E+00 0.9000E+01
      -13  1    3    3    0    0 -.10997404E+03 0.24082883E+03 0.24552492E+04 0.24694820E+04 0.10565837E+00 0.0000E+00 0.9000E+01
       13  1    3    3    0    0 -.62902567E+01 0.42468812E+02 0.17973807E+03 0.18479435E+03 0.10565837E+00 0.0000E+00 0.9000E+01
      -24  1    1    2    0    0 -.59158093E+02 -.16948705E+03 0.53207200E+03 0.56726834E+03 0.80419002E+02 0.0000E+00 0.9000E+01
       21  1    1    2  501  502 -.90422508E+00 0.54918581E+02 0.15315524E+03 0.16270820E+03 0.75000000E+00 0.0000E+00 0.9000E+01
#aMCatNLO 2  0  0  2  1 0.54926024D+02 0.00000000D+00  -5  7  0 0.00000000D+00 0.00000000D+00 0.00000000D+00 0.00000000D+00 0.00000000D+00
  <mgrwgt>
 -.3860651564D-03    3    2    0
 0.531200471210525D+03 0.000000000000000D+00 0.000000000000000D+00 0.531200471210525D+03
 0.531200471210525D+03 0.000000000000000D+00 0.000000000000000D+00 -.531200471210525D+03
 0.391002534720077D+03 0.175990498044918D+03 -.148315224937848D+03 -.305688902076427D+03
 0.433899719554147D+03 -.110337655171248D+03 0.262905179592996D+03 0.327070993858601D+03
 0.465860819127762D+02 -.632877895331624D+01 0.448167351414715D+02 0.110304050788331D+02
 0.190912606234049D+03 -.593240639203541D+02 -.159406689796619D+03 -.324124968610067D+02
 0.000000000000000D+00 -.000000000000000D+00 0.000000000000000D+00 -.000000000000000D+00
 0.555890754611293D+03 0.000000000000000D+00 0.000000000000000D+00 0.555890754611293D+03
 0.563360733471080D+03 0.000000000000000D+00 0.000000000000000D+00 -.563360733471080D+03
 0.399341368914039D+03 0.176326610263610D+03 -.168729175402541D+03 -.305688902076427D+03
 0.420794973535940D+03 -.109974176275189D+03 0.240829099740985D+03 0.327070993858601D+03
 0.443262065457951D+02 -.629011637764542D+01 0.424685434938969D+02 0.110304050788331D+02
 0.199357280954862D+03 -.591580925285729D+02 -.169487048623078D+03 -.324124968610067D+02
 0.554316581317359D+02 -.904225082202749D+00 0.549185807907368D+02 -.746997885978781D+01
-.231690648622D-03 0.000000000000D+00 0.000000000000D+00 0.200507489489D-08 0.000000000000D+00  7 2 -2 24 -13 13 -24 21 2 0.53815131D+00 0.13434867D-01 0.16657507D+06 0.16657507D+06 0.16657507D+06 0.11039776D+01  1  2 13  2  7  2       -2 -.117504132360D-02 0.100000000000D+01
-.214451176706D-07 0.000000000000D+00 0.000000000000D+00 0.200507489489D-08 0.000000000000D+00  7 2 -2 24 -13 13 -24 21 2 0.53815131D+00 0.12410400D-01 0.14528304D+06 0.14528304D+06 0.14528304D+06 0.11086486D+01  1  2  8  2  7  2       -2 -.125393412201D-06 0.100000000000D+01
0.197169477365D-03 0.000000000000D+00 0.000000000000D+00 0.200507489489D-08 0.433009862750D-11  7 2 -2 24 -13 13 -24 21 2 0.56316467D+00 0.13161758D-01 0.16657507D+06 0.16657507D+06 0.16657507D+06 0.11039776D+01  1  2  1  2  7  2       -2 0.789101560623D-03 0.100000000000D+01
  </mgrwgt>
  </event>
  <event>
  8     66 0.26993063E-05 0.13418267E+03 0.75467711E-02 0.99835938E-01
        2 -1    0    0  501    0 0.00000000E+00 0.00000000E+00 0.51289170E+03 0.51289180E+03 0.32000000E+00 0.0000E+00 0.9000E+01
       -2 -1    0    0    0  501 0.00000000E+00 0.00000000E+00 -.79991979E+02 0.79992619E+02 0.32000000E+00 0.0000E+00 0.9000E+01
       25  2    1    2    0    0 -.37447488E+02 -.24940251E+02 0.29007244E+03 0.41976335E+03 0.30005819E+03 0.0000E+00 0.0000E+00
       23  2    1    2    0    0 0.37447488E+02 0.24940251E+02 0.14282728E+03 0.17312107E+03 0.86873145E+02 0.0000E+00 0.0000E+00
       24  1    3    3    0    0 -.65198743E+02 0.27201281E+02 -.61188107E+01 0.10721680E+03 0.80419002E+02 0.0000E+00 0.9000E+01
      -13  1    4    4    0    0 0.41253443E+02 0.32869451E+02 0.15171126E+03 0.16061932E+03 0.10565837E+00 0.0000E+00 0.9000E+01
       13  1    4    4    0    0 -.38059548E+01 -.79291994E+01 -.88839832E+01 0.12501753E+02 0.10565837E+00 0.0000E+00 0.9000E+01
      -24  1    3    3    0    0 0.27751256E+02 -.52141533E+02 0.29619125E+03 0.31254655E+03 0.80419002E+02 0.0000E+00 0.9000E+01
#aMCatNLO 1  0  0  1  2 0.27018822D+03 0.00000000D+00  -5  7  0 0.00000000D+00 0.00000000D+00 0.00000000D+00 0.00000000D+00 0.00000000D+00
  <mgrwgt>
 0.1467728342D-02    5    2    0
 0.202552317645090D+03 0.000000000000000D+00 0.000000000000000D+00 0.202552317645090D+03
 0.202552317645090D+03 0.000000000000000D+00 0.000000000000000D+00 -.202552317645090D+03
 0.163454740447543D+03 -.651996145584762D+02 0.272007011454304D+02 -.123528815824593D+03
 0.729522062323683D+02 0.412544029223519D+02 0.328699991766629D+02 0.503950571764376D+02
 0.277890421523428D+02 -.380529292490180D+01 -.792866731986027D+01 -.263607064402940D+02
 0.140908646457926D+03 0.277505045610261D+02 -.521420330022330D+02 0.994944650884497D+02
 0.000000000000000D+00 0.000000000000000D+00 -.000000000000000D+00 0.000000000000000D+00
 0.538061713963024D+03 0.000000000000000D+00 0.000000000000000D+00 0.538061713963024D+03
 0.305422116242527D+03 0.000000000000000D+00 0.000000000000000D+00 -.305422116242527D+03
 0.242805424093448D+03 -.168241422398797D+03 0.944601157369175D+02 -.123528815824593D+03
 0.766316576497879D+02 0.331469555386685D+01 0.576347287642014D+02 0.503950571764376D+02
 0.326375928625947D+02 -.191316041340780D+02 0.207541491997763D+01 -.263607064402940D+02
 0.134866227820289D+03 -.421956631482061D+02 -.648543601849845D+01 0.994944650884497D+02
 0.356542927779431D+03 0.226253994127214D+03 -.147684823402598D+03 0.232639597720497D+03
0.439749499464D-05 0.000000000000D+00 0.000000000000D+00 0.284695475046D-07 0.000000000000D+00  7 2 -2 24 -13 13 -24 21 0 0.78906473D-01 0.12306515D-01 0.18004989D+05 0.18004989D+05 0.18004989D+05 0.11884849D+01  1  2  2  1  7  1        2 0.134977208540D-02 0.100000000000D+01
-.193934473072D-06 0.000000000000D+00 -.168875386664D-07 0.284695475046D-07 0.000000000000D+00  7 2 -2 24 -13 13 -24 21 2 0.78906473D-01 0.12306515D-01 0.18004989D+05 0.18004989D+05 0.18004989D+05 0.11884849D+01  1  2  3  1  7  1        2 -.840809131896D-04 0.100000000000D+01
0.279768005104D-06 0.000000000000D+00 0.000000000000D+00 0.284695475046D-07 0.000000000000D+00  7 2 -2 24 -13 13 -24 21 2 0.78906473D-01 0.12306515D-01 0.18004989D+05 0.18004989D+05 0.18004989D+05 0.11884849D+01  1  2 15  1  7  1        2 0.121294316465D-03 0.100000000000D+01
0.945395755090D-06 0.000000000000D+00 -.150836299437D-05 0.284695475046D-07 0.000000000000D+00  7 2 -2 24 -13 13 -24 21 2 0.26524679D+00 0.12306515D-01 0.18004989D+05 0.18004989D+05 0.18004989D+05 0.11884849D+01  1  2  5  1  7  1        2 0.759673904769D-04 0.100000000000D+01
0.189422178629D-06 0.000000000000D+00 -.212475733715D-06 0.284695475046D-07 0.000000000000D+00  7 21 -2 24 -13 13 -24 -2 2 0.26524679D+00 0.12306515D-01 0.18004989D+05 0.18004989D+05 0.18004989D+05 0.11884849D+01  1  2  5  3  7  1        2 0.477546237750D-05 0.100000000000D+01
  </mgrwgt>
  </event>
  <event>
  9     66 0.26993063E-05 0.41062515E+03 0.75467711E-02 0.96661754E-01
        2 -1    0    0  501    0 0.00000000E+00 0.00000000E+00 0.40374407E+03 0.40374419E+03 0.32000000E+00 0.0000E+00 0.9000E+01
       -2 -1    0    0    0  502 0.00000000E+00 0.00000000E+00 -.49524579E+03 0.49524590E+03 0.32000000E+00 0.0000E+00 0.9000E+01
       25  2    1    2    0    0 -.36447500E+03 0.69627075E+02 -.10311720E+03 0.48864436E+03 0.30074939E+03 0.0000E+00 0.0000E+00
       23  2    1    2    0    0 0.36342710E+03 -.87271230E+02 -.63596968E+01 0.38512504E+03 0.92657038E+02 0.0000E+00 0.0000E+00
       24  1    3    3    0    0 -.53639853E+02 0.65735754E+02 0.56758665E+02 0.12995070E+03 0.80419002E+02 0.0000E+00 0.9000E+01
      -13  1    4    4    0    0 0.14148331E+03 0.79358317E+01 0.15919251E+02 0.14259712E+03 0.10565837E+00 0.0000E+00 0.9000E+01
       13  1    4    4    0    0 0.22194379E+03 -.95207061E+02 -.22278948E+02 0.24252792E+03 0.10565837E+00 0.0000E+00 0.9000E+01
      -24  1    3    3    0    0 -.31083514E+03 0.38913213E+01 -.15987586E+03 0.35869365E+03 0.80419002E+02 0.0000E+00 0.9000E+01
       21  1    1    2  501  502 0.10478995E+01 0.17644155E+02 0.17975170E+02 0.25220697E+02 0.75000000E+00 0.0000E+00 0.9000E+01
#aMCatNLO 2  0  0  2  2 0.17675245D+02 0.00000000D+00  -5  7  0 0.00000000D+00 0.00000000D+00 0.00000000D+00 0.00000000D+00 0.00000000D+00
  <mgrwgt>
 0.7366323276D-04    2    2    0
 0.433351863041528D+03 0.000000000000000D+00 0.000000000000000D+00 0.433351863041528D+03
 0.433351863041528D+03 0.000000000000000D+00 0.000000000000000D+00 -.433351863041528D+03
 0.139452904639053D+03 -.534720507308340D+02 0.685611560131570D+02 0.736206787164924D+02
 0.146102941352635D+03 0.141659615837645D+03 0.109062925498480D+02 0.340540085076531D+02
 0.240021208447817D+03 0.222235041178255D+03 -.903049226412773D+02 0.817238790089386D+01
 0.341126671643552D+03 -.310422606285066D+03 0.108374740782723D+02 -.115847075125039D+03
 0.000000000000000D+00 0.000000000000000D+00 0.000000000000000D+00 0.000000000000000D+00
 0.457933709026363D+03 0.000000000000000D+00 0.000000000000000D+00 0.457933709026363D+03
 0.436630945397290D+03 0.000000000000000D+00 0.000000000000000D+00 -.436630945397290D+03
 0.138150799772138D+03 -.536398534830237D+02 0.657357536425471D+02 0.736206787164924D+02
 0.145740017141725D+03 0.141483205901955D+03 0.793596552008193D+01 0.340540085076531D+02
 0.241640826353978D+03 0.221943891550996D+03 -.952071953175308D+02 0.817238790089386D+01
 0.341352295384631D+03 -.310835143463638D+03 0.389132148487387D+01 -.115847075125039D+03
 0.276807157711811D+02 0.104789949371087D+01 0.176441546700279D+02 0.213027636290723D+02
-.171128194344D-05 0.000000000000D+00 0.000000000000D+00 0.162256652673D-06 0.000000000000D+00  7 2 -2 24 -13 13 -24 21 2 0.58779509D-01 0.75618607D-01 0.16861301D+06 0.16861301D+06 0.16861301D+06 0.11035652D+01  1  2  8  2  7  2       -2 -.341959085046D-04 0.100000000000D+01
0.585191548409D-05 0.000000000000D+00 0.000000000000D+00 0.162256652673D-06 0.338104156649D-08  7 2 -2 24 -13 13 -24 21 2 0.62113771D-01 0.76190797D-01 0.17592856D+06 0.17592856D+06 0.17592856D+06 0.11021286D+01  1  2  1  2  7  2       -2 0.107859141265D-03 0.100000000000D+01
  </mgrwgt>
  </event>
  <event>
  8     66 0.26993063E-05 0.72801784E+02 0.75467711E-02 0.99847580E-01
        2 -1    0    0  501    0 0.00000000E+00 0.00000000E+00 0.11400491E+04 0.11400492E+04 0.32000000E+00 0.0000E+00 0.9000E+01
       -2 -1    0    0    0  501 0.00000000E+00 0.00000000E+00 -.13598863E+03 0.13598901E+03 0.32000000E+00 0.0000E+00 0.9000E+01
       25  2    1    2    0    0 0.22139749E+03 0.11170997E+03 0.21519493E+03 0.44434603E+03 0.29939702E+03 0.0000E+00 0.0000E+00
       23  2    1    2    0    0 -.22139749E+03 -.11170997E+03 0.78886559E+03 0.83169217E+03 0.88921230E+02 0.0000E+00 0.0000E+00
       24  1    3    3    0    0 0.19268389E+03 0.12268452E+03 0.25308580E+03 0.35028304E+03 0.80419002E+02 0.0000E+00 0.9000E+01
      -13  1    4    4    0    0 -.88833526E+02 -.34174374E+02 0.44539642E+03 0.45545282E+03 0.10565837E+00 0.0000E+00 0.9000E+01
       13  1    4    4    0    0 -.13256396E+03 -.77535599E+02 0.34346916E+03 0.37623935E+03 0.10565837E+00 0.0000E+00 0.9000E+01
      -24  1    3    3    0    0 0.28713601E+02 -.10974545E+02 -.37890874E+02 0.94062989E+02 0.80419002E+02 0.0000E+00 0.9000E+01
#aMCatNLO 1  0  0  2  1 0.63053588D+02 0.00000000D+00  -5  7  0 0.00000000D+00 0.00000000D+00 0.00000000D+00 0.00000000D+00 0.00000000D+00
  <mgrwgt>
 0.1056372462D-02    6    2    0
 0.393743563620061D+03 0.000000000000000D+00 0.000000000000000D+00 0.393743563620061D+03
 0.393743563620061D+03 0.000000000000000D+00 0.000000000000000D+00 -.393743563620061D+03
 0.244906968305999D+03 0.192683887473507D+03 0.122684518775844D+03 -.365189749486668D+02
 0.170123707867946D+03 -.888334646052530D+02 -.341743129024113D+02 0.141006410785515D+03
 0.171725936037579D+03 -.132564024017948D+03 -.775356604409049D+02 0.768426834782874D+02
 0.200730515028598D+03 0.287136011496939D+02 -.109745454325278D+02 -.181330119315136D+03
 0.000000000000000D+00 0.000000000000000D+00 -.000000000000000D+00 0.000000000000000D+00
 0.428529820955661D+03 0.000000000000000D+00 0.000000000000000D+00 0.428529820955661D+03
 0.424650420122683D+03 0.000000000000000D+00 0.000000000000000D+00 -.424650420122683D+03
 0.230684438665626D+03 0.173690593674811D+03 0.123474841266126D+03 -.365189749486668D+02
 0.177661104228669D+03 -.102722653976729D+03 -.335963752972544D+02 0.141006410785515D+03
 0.182622567052143D+03 -.146715341993113D+03 -.769468155053483D+02 0.768426834782874D+02
 0.199039314440686D+03 0.127483298860400D+02 -.103102207989574D+02 -.181330119315136D+03
 0.631728166912191D+02 0.629990724089903D+02 -.262142966456579D+01 0.387940083297813D+01
0.164840701317D-04 0.000000000000D+00 0.000000000000D+00 0.320708120533D-06 0.000000000000D+00  7 2 -2 24 -13 13 -24 21 0 0.17539221D+00 0.20921361D-01 0.83237128D+05 0.83237128D+05 0.83237128D+05 0.11283202D+01  1  2  2  2  7  2       -2 0.808388310530D-03 0.100000000000D+01
-.808103998342D-06 0.000000000000D+00 -.633031696612D-07 0.320708120533D-06 0.000000000000D+00  7 2 -2 24 -13 13 -24 21 2 0.17539221D+00 0.20921361D-01 0.83237128D+05 0.83237128D+05 0.83237128D+05 0.11283202D+01  1  2  3  2  7  2       -2 -.504530642705D-04 0.100000000000D+01
0.103263615174D-05 0.000000000000D+00 0.000000000000D+00 0.320708120533D-06 0.000000000000D+00  7 2 -2 24 -13 13 -24 21 2 0.17539221D+00 0.20921361D-01 0.83237128D+05 0.83237128D+05 0.83237128D+05 0.11283202D+01  1  2 15  2  7  2       -2 0.644714767389D-04 0.100000000000D+01
0.164658544661D-04 0.000000000000D+00 0.000000000000D+00 0.320708120533D-06 0.000000000000D+00  7 2 -2 24 -13 13 -24 21 2 0.17539221D+00 0.23414352D-01 0.10453857D+06 0.10453857D+06 0.10453857D+06 0.11201436D+01  1  2 12  2  7  2       -2 0.835905168482D-03 0.100000000000D+01
-.126344701812D-04 0.000000000000D+00 0.000000000000D+00 0.320708120533D-06 0.000000000000D+00  7 2 -2 24 -13 13 -24 21 2 0.17539221D+00 0.20921361D-01 0.83237128D+05 0.83237128D+05 0.83237128D+05 0.11283202D+01  1  2  4  2  7  2       -2 -.788818935908D-03 0.100000000000D+01
0.296011660028D-06 0.000000000000D+00 0.000000000000D+00 0.320708120533D-06 0.000000000000D+00  7 2 21 24 -13 13 -24 2 2 0.17539221D+00 0.23414352D-01 0.10453857D+06 0.10453857D+06 0.10453857D+06 0.11201436D+01  1  2 12  4  7  2       -2 0.186879506202D-03 0.100000000000D+01
  </mgrwgt>
  </event>
  <event>
  9     66 0.26993063E-05 0.28413292E+03 0.75467711E-02 0.10077845E+00
        2 -1    0    0  502    0 0.00000000E+00 0.00000000E+00 0.45693710E+04 0.45693710E+04 0.32000000E+00 0.0000E+00 0.9000E+01
       -2 -1    0    0    0  501 0.00000000E+00 0.00000000E+00 -.61216392E+02 0.61217228E+02 0.32000000E+00 0.0000E+00 0.9000E+01
       25  2    1    2    0    0 0.58739150E+02 -.25047224E+03 0.66886358E+03 0.77661641E+03 0.29927902E+03 0.0000E+00 0.0000E+00
       23  2    1    2    0    0 -.85821378E+02 0.23202582E+03 0.37428560E+04 0.37521190E+04 0.90690785E+02 0.0000E+00 0.0000E+00
       24  1    3    3    0    0 0.49731484E+02 -.16308003E+03 0.14079958E+03 0.23528718E+03 0.80419002E+02 0.0000E+00 0.9000E+01
      -13  1    4    4    0    0 0.10083943E+02 0.82911902E+02 0.14612519E+04 0.14636370E+04 0.10565837E+00 0.0000E+00 0.9000E+01
       13  1    4    4    0    0 -.95905321E+02 0.14911392E+03 0.22816041E+04 0.22884820E+04 0.10565837E+00 0.0000E+00 0.9000E+01
      -24  1    3    3    0    0 0.90076660E+01 -.87392205E+02 0.52806400E+03 0.54132924E+03 0.80419002E+02 0.0000E+00 0.9000E+01
       21  1    1    2  502  501 0.27082228E+02 0.18446415E+02 0.96435060E+02 0.10185284E+03 0.75000000E+00 0.0000E+00 0.9000E+01
#aMCatNLO 2  0  0  1  1 0.32767626D+02 0.00000000D+00  -5  7  0 0.00000000D+00 0.00000000D+00 0.00000000D+00 0.00000000D+00 0.00000000D+00
  <mgrwgt>
 0.1918968713D-03    2    2    0
 0.511150965723720D+03 0.000000000000000D+00 0.000000000000000D+00 0.511150965723720D+03
 0.511150965723720D+03 0.000000000000000D+00 0.000000000000000D+00 -.511150965723720D+03
 0.433065510891818D+03 0.612196249259067D+02 -.155255159951152D+03 -.391441583894831D+03
 0.179588214586788D+03 0.148158539678867D+02 0.861347426252479D+02 0.156886020417866D+03
 0.291778460580434D+03 -.881817916544131D+02 0.154374807298767D+03 0.231359159210899D+03
 0.117869745388401D+03 0.121463127606197D+02 -.852543899728631D+02 0.319640426606712D+01
 0.000000000000000D+00 0.000000000000000D+00 0.000000000000000D+00 -.000000000000000D+00
 0.522751985356413D+03 0.000000000000000D+00 0.000000000000000D+00 0.522751985356413D+03
 0.535087591476628D+03 0.000000000000000D+00 0.000000000000000D+00 -.535087591476628D+03
 0.434467544763072D+03 0.497314843329323D+02 -.163080033609360D+03 -.391441583894831D+03
 0.177733735457877D+03 0.100840863743509D+02 0.829118116992400D+02 0.156886020417866D+03
 0.291478827758399D+03 -.959054647601662D+02 0.149114011111542D+03 0.231359159210899D+03
 0.119146835523572D+03 0.900766601207897D+01 -.873922045361788D+02 0.319640426606712D+01
 0.350126333301218D+02 0.270822280408040D+02 0.184464153347574D+02 -.123356061202144D+02
-.464782496035D-04 0.000000000000D+00 0.000000000000D+00 0.171943859747D-05 0.000000000000D+00  7 2 -2 24 -13 13 -24 21 2 0.68737429D+00 0.89965992D-02 0.80731518D+05 0.80731518D+05 0.80731518D+05 0.11294310D+01  1  2  8  1  7  1        2 -.780968298045D-04 0.100000000000D+01
0.220710202033D-03 0.000000000000D+00 0.000000000000D+00 0.171943859747D-05 0.108224726060D-07  7 2 -2 24 -13 13 -24 21 2 0.70297486D+00 0.94178998D-02 0.90359215D+05 0.90359215D+05 0.90359215D+05 0.11253530D+01  1  2  1  1  7  1        2 0.269993701060D-03 0.100000000000D+01
  </mgrwgt>
  </event>
  <event>
  8     66 0.26993063E-05 0.26529548E+03 0.75467711E-02 0.96194664E-01
        2 -1    0    0  501    0 0.00000000E+00 0.00000000E+00 0.16754158E+04 0.16754158E+04 0.32000000E+00 0.0000E+00 0.9000E+01
       -2 -1    0    0    0  501 0.00000000E+00 0.00000000E+00 -.13280535E+03 0.13280574E+03 0.32000000E+00 0.0000E+00 0.9000E+01
       25  2    1    2    0    0 -.18634685E+03 -.33633897E+03 0.52859971E+03 0.71979333E+03 0.30138967E+03 0.0000E+00 0.0000E+00
       23  2    1    2    0    0 0.18634685E+03 0.33633897E+03 0.10140107E+04 0.10884282E+04 0.92785800E+02 0.0000E+00 0.0000E+00
       24  1    3    3    0    0 -.16477989E+03 -.30980896E+03 0.27936101E+03 0.45567949E+03 0.80419002E+02 0.0000E+00 0.9000E+01
      -11  1    4    4    0    0 0.19083729E+03 0.28299175E+03 0.89723511E+03 0.95996565E+03 0.51099893E-03 0.0000E+00 0.9000E+01
       11  1    4    4    0    0 -.44904472E+01 0.53347217E+02 0.11677562E+03 0.12846258E+03 0.51099893E-03 0.0000E+00 0.9000E+01
      -24  1    3    3    0    0 -.21566953E+02 -.26530009E+02 0.24923870E+03 0.26411384E+03 0.80419002E+02 0.0000E+00 0.9000E+01
#aMCatNLO 1  0  0  2  1 0.29631200D+02 0.00000000D+00  -5  7  0 0.00000000D+00 0.00000000D+00 0.00000000D+00 0.00000000D+00 0.00000000D+00
  <mgrwgt>
 0.7974817547D-03    9    2    0
 0.471703890002489D+03 0.000000000000000D+00 0.000000000000000D+00 0.471703890002489D+03
 0.471703890002489D+03 0.000000000000000D+00 0.000000000000000D+00 -.471703890002489D+03
 0.416600618129822D+03 -.164779892235210D+03 -.309808962501044D+03 -.209654126934717D+03
 0.372846548790558D+03 0.190837292231391D+03 0.282991754125074D+03 0.150037808355208D+03
 0.552778154567769D+02 -.449044716757085D+01 0.533472172443080D+02 0.137676133805877D+02
 0.986827976278220D+02 -.215669528286098D+02 -.265300088683384D+02 0.458487051989207D+02
 0.000000000000000D+00 -.000000000000000D+00 0.000000000000000D+00 -.000000000000000D+00
 0.474361037462565D+03 0.000000000000000D+00 0.000000000000000D+00 0.474361037462565D+03
 0.562470133762575D+03 0.000000000000000D+00 0.000000000000000D+00 -.562470133762575D+03
 0.421620390046211D+03 -.157027326629247D+03 -.320443603617333D+03 -.209654126934717D+03
 0.369378833849166D+03 0.197702010387103D+03 0.273575024533735D+03 0.150037808355208D+03
 0.538680086558459D+02 -.348097573486217D+01 0.519624670919526D+02 0.137676133805877D+02
 0.990057713026537D+02 -.197385643901987D+02 -.290381146815571D+02 0.458487051989207D+02
 0.929581673712624D+02 -.174551436327945D+02 0.239442266732023D+02 -.881090963000102D+02
0.313004493943D-04 0.000000000000D+00 0.000000000000D+00 0.181673251247D-06 0.000000000000D+00  7 2 -2 24 -11 11 -24 21 0 0.25775631D+00 0.20431625D-01 0.17734565D+06 0.17734565D+06 0.17734565D+06 0.11018579D+01  1  2  2  2  7  2       -2 0.796126013083D-03 0.100000000000D+01
-.171171406751D-05 0.000000000000D+00 -.120201967272D-06 0.181673251247D-06 0.000000000000D+00  7 2 -2 24 -11 11 -24 21 2 0.25775631D+00 0.20431625D-01 0.17734565D+06 0.17734565D+06 0.17734565D+06 0.11018579D+01  1  2  3  2  7  2       -2 -.528583508040D-04 0.100000000000D+01
0.199079811090D-05 0.000000000000D+00 0.000000000000D+00 0.181673251247D-06 0.000000000000D+00  7 2 -2 24 -11 11 -24 21 2 0.25775631D+00 0.20431625D-01 0.17734565D+06 0.17734565D+06 0.17734565D+06 0.11018579D+01  1  2 15  2  7  2       -2 0.614765672162D-04 0.100000000000D+01
0.399366918153D-03 0.000000000000D+00 0.000000000000D+00 0.181673251247D-06 0.000000000000D+00  7 2 -2 24 -11 11 -24 21 2 0.25775631D+00 0.24413564D-01 0.19044201D+06 0.19044201D+06 0.19044201D+06 0.10994625D+01  1  2 12  2  7  2       -2 0.906841196245D-02 0.100000000000D+01
-.398151351926D-03 0.000000000000D+00 0.000000000000D+00 0.181673251247D-06 0.000000000000D+00  7 2 -2 24 -11 11 -24 21 2 0.25775631D+00 0.20431625D-01 0.17734565D+06 0.17734565D+06 0.17734565D+06 0.11018579D+01  1  2  4  2  7  2       -2 -.122950580548D-01 0.100000000000D+01
-.454950732753D-03 0.000000000000D+00 -.242741915120D-04 0.181673251247D-06 0.000000000000D+00  7 2 -2 24 -11 11 -24 21 2 0.25775631D+00 0.24449061D-01 0.17734565D+06 0.17734565D+06 0.17734565D+06 0.11018579D+01  1  2  5  2  7  2       -2 -.103739347977D-01 0.100000000000D+01
0.452385827620D-03 0.000000000000D+00 0.238882799142D-04 0.181673251247D-06 0.000000000000D+00  7 2 -2 24 -11 11 -24 21 2 0.25775631D+00 0.20431625D-01 0.17734565D+06 0.17734565D+06 0.17734565D+06 0.11018579D+01  1  2  6  2  7  2       -2 0.139698383211D-01 0.100000000000D+01
0.104436025213D-04 0.000000000000D+00 0.000000000000D+00 0.181673251247D-06 0.000000000000D+00  7 2 21 24 -11 11 -24 2 2 0.25775631D+00 0.24413564D-01 0.19044201D+06 0.19044201D+06 0.19044201D+06 0.10994625D+01  1  2 12  4  7  2       -2 0.288214807970D-02 0.100000000000D+01
-.117414155069D-04 0.000000000000D+00 -.638834314041D-06 0.181673251247D-06 0.000000000000D+00  7 2 21 24 -11 11 -24 2 2 0.25775631D+00 0.24449061D-01 0.17734565D+06 0.17734565D+06 0.17734565D+06 0.11018579D+01  1  2  5  4  7  2       -2 -.325866798564D-02 0.100000000000D+01
  </mgrwgt>
  </event>
  <event>
  9     66 -.26993063E-05 0.61200120E+03 0.75467711E-02 0.92186988E-01
        2 -1    0    0  501    0 0.00000000E+00 0.00000000E+00 0.54551042E+03 0.54551051E+03 0.32000000E+00 0.0000E+00 0.9000E+01
       -2 -1    0    0    0  502 0.00000000E+00 0.00000000E+00 -.14478111E+04 0.14478111E+04 0.32000000E+00 0.0000E+00 0.9000E+01
       25  2    1    2    0    0 -.35532882E+03 0.45798735E+03 0.24405880E+03 0.69649093E+03 0.29920552E+03 0.0000E+00 0.0000E+00
       23  2    1    2    0    0 0.33346077E+03 -.46583014E+03 -.11221802E+04 0.12632908E+04 0.91769222E+02 0.0000E+00 0.0000E+00
       24  1    3    3    0    0 -.22580598E+03 0.43520085E+03 0.20494400E+03 0.53745454E+03 0.80419002E+02 0.0000E+00 0.9000E+01
      -13  1    4    4    0    0 0.30925769E+03 -.43316393E+03 -.10835533E+04 0.12072113E+04 0.10565837E+00 0.0000E+00 0.9000E+01
       13  1    4    4    0    0 0.24203079E+02 -.32666212E+02 -.38626885E+02 0.56079567E+02 0.10565837E+00 0.0000E+00 0.9000E+01
      -24  1    3    3    0    0 -.12952284E+03 0.22786493E+02 0.39114798E+02 0.15903639E+03 0.80419002E+02 0.0000E+00 0.9000E+01
       21  1    1    2  501  502 0.21868058E+02 0.78427941E+01 -.24179265E+02 0.33539838E+02 0.75000000E+00 0.0000E+00 0.9000E+01
#aMCatNLO 2  0  0  2  1 0.23231904D+02 0.00000000D+00  -5  7  0 0.00000000D+00 0.00000000D+00 0.00000000D+00 0.00000000D+00 0.00000000D+00
  <mgrwgt>
 -.4254832199D-03    3    2    0
 0.875943449579386D+03 0.000000000000000D+00 0.000000000000000D+00 0.875943449579386D+03
 0.875943449579386D+03 0.000000000000000D+00 0.000000000000000D+00 -.875943449579386D+03
 0.703090231702291D+03 -.217024943783437D+03 0.438350097635101D+03 0.498616108484176D+03
 0.809268427645142D+03 0.319346941034642D+03 -.429546169664971D+03 -.606978588882020D+03
 0.435278791882871D+02 0.247450205352281D+02 -.324711825251027D+02 -.150990903952104D+02
 0.196000360623052D+03 -.127067017786433D+03 0.236672545549721D+02 0.123461570793055D+03
 0.000000000000000D+00 0.000000000000000D+00 0.000000000000000D+00 -.000000000000000D+00
 0.883595934260363D+03 0.000000000000000D+00 0.000000000000000D+00 0.883595934260363D+03
 0.893831951836812D+03 0.000000000000000D+00 0.000000000000000D+00 -.893831951836812D+03
 0.703898687830942D+03 -.225805979302993D+03 0.435200853453741D+03 0.498616108484176D+03
 0.807276289385687D+03 0.309258065150739D+03 -.433164459740566D+03 -.606978588882020D+03
 0.433681907991100D+02 0.242027010709624D+02 -.326656808178694D+02 -.150990903952104D+02
 0.197497764384619D+03 -.129522844527213D+03 0.227864930483585D+02 0.123461570793055D+03
 0.253869536968162D+02 0.218680576085035D+02 0.784279405633562D+01 -.102360175764487D+02
-.110579561865D-02 0.000000000000D+00 0.000000000000D+00 0.935638658706D-05 0.000000000000D+00  7 2 -2 24 -13 13 -24 21 2 0.83197331D-01 0.22367823D+00 0.38882485D+06 0.38882485D+06 0.38882485D+06 0.10763159D+01  1  2 13  2  7  2       -2 -.762384717378D-03 0.100000000000D+01
-.662687785191D-02 0.000000000000D+00 0.000000000000D+00 0.935638658706D-05 0.000000000000D+00  7 2 -2 24 -13 13 -24 21 2 0.83197331D-01 0.21828105D+00 0.37454547D+06 0.37454547D+06 0.37454547D+06 0.10774922D+01  1  2  8  2  7  2       -2 -.498138656682D-02 0.100000000000D+01
0.768131402588D-02 0.000000000000D+00 0.000000000000D+00 0.935638658706D-05 0.107127365956D-06  7 2 -2 24 -13 13 -24 21 2 0.83924165D-01 0.22273878D+00 0.38882485D+06 0.38882485D+06 0.38882485D+06 0.10763159D+01  1  2  1  2  7  2       -2 0.531828806432D-02 0.100000000000D+01
  </mgrwgt>
  </event>
  <event>
  9     66 0.26993063E-05 0.21831113E+03 0.75467711E-02 0.92698560E-01
        2 -1    0    0  501    0 0.00000000E+00 0.00000000E+00 0.23634001E+04 0.23634002E+04 0.32000000E+00 0.0000E+00 0.9000E+01
       21 -1    0    0  502  501 0.00000000E+00 0.00000000E+00 -.31032382E+03 0.31032473E+03 0.75000000E+00 0.0000E+00 0.9000E+01
       25  2    1    2    0    0 -.38106867E+03 -.13123775E+03 0.24645828E+03 0.55982233E+03 0.30037091E+03 0.0000E+00 0.0000E+00
       23  2    1    2    0    0 -.29192270E+02 -.21284566E+03 0.14543541E+04 0.14729678E+04 0.91283604E+02 0.0000E+00 0.0000E+00
       24  1    3    3    0    0 -.23299848E+03 -.52594714E+02 0.11941550E+01 0.25203797E+03 0.80419002E+02 0.0000E+00 0.9000E+01
      -13  1    4    4    0    0 -.14408916E+02 -.17233497E+03 0.13331635E+04 0.13443333E+04 0.10565837E+00 0.0000E+00 0.9000E+01
       13  1    4    4    0    0 -.14783354E+02 -.40510685E+02 0.12119061E+03 0.12863452E+03 0.10565837E+00 0.0000E+00 0.9000E+01
      -24  1    3    3    0    0 -.14807019E+03 -.78643036E+02 0.24526413E+03 0.30778437E+03 0.80419002E+02 0.0000E+00 0.9000E+01
        2  1    1    2  502    0 0.41026094E+03 0.34408341E+03 0.35226391E+03 0.64093478E+03 0.32000000E+00 0.0000E+00 0.9000E+01
#aMCatNLO 2  0  0  2  1 0.53545068D+03 0.00000000D+00  -5  7  0 0.00000000D+00 0.00000000D+00 0.00000000D+00 0.00000000D+00 0.00000000D+00
  <mgrwgt>
 0.6764837719D-04    1    2    0
 0.488048502594944D+03 0.000000000000000D+00 0.000000000000000D+00 0.488048502594944D+03
 0.488048502594944D+03 0.000000000000000D+00 0.000000000000000D+00 -.488048502594944D+03
 0.406334726076581D+03 -.632120304719061D+02 0.898041692955624D+02 -.382857864020203D+03
 0.409875028667942D+03 0.148132215534728D+03 -.360128691139859D+02 0.380470050206975D+03
 0.362258051403202D+02 0.209403317942703D+01 -.263555432379491D+02 0.247650827525472D+02
 0.123661445305045D+03 -.870142182422493D+02 -.274357569436274D+02 -.223772689393194D+02
 0.000000000000000D+00 0.000000000000000D+00 0.000000000000000D+00 -.000000000000000D+00
 0.704738077785120D+03 0.000000000000000D+00 0.000000000000000D+00 0.704738077785120D+03
 0.104069944875658D+04 0.000000000000000D+00 0.000000000000000D+00 -.104069944875658D+04
 0.458368688723800D+03 -.232998478330051D+03 -.525947136295414D+02 -.382857864020203D+03
 0.417928796769657D+03 -.144089154921225D+02 -.172335147950660D+03 0.380470050206975D+03
 0.497288463334607D+02 -.147833547212409D+02 -.405105079837615D+02 0.247650827525472D+02
 0.187289791127085D+03 -.148070188401795D+03 -.786430355945822D+02 -.223772689393194D+02
 0.632121403587702D+03 0.410260936945210D+03 0.344083405158545D+03 -.335961370971463D+03
0.246966278746D-05 0.000000000000D+00 0.000000000000D+00 0.551974927946D-05 0.191938903597D-10  7 2 21 24 -13 13 -24 2 2 0.36360007D+00 0.47742196D-01 0.35372405D+06 0.35372405D+06 0.35372405D+06 0.10792981D+01  1  2  1  4  7  2       -2 0.676483771855D-04 0.100000000000D+01
  </mgrwgt>
  </event>
  <event>
  8     66 0.26993063E-05 0.19558781E+03 0.75467711E-02 0.97094935E-01
        2 -1    0    0  501    0 0.00000000E+00 0.00000000E+00 0.50928537E+03 0.50928547E+03 0.32000000E+00 0.0000E+00 0.9000E+01
       -2 -1    0    0    0  501 0.00000000E+00 0.00000000E+00 -.26266267E+03 0.26266286E+03 0.32000000E+00 0.0000E+00 0.9000E+01
       25  2    1    2    0    0 0.15603194E+03 -.24399420E+03 0.76399820E+02 0.42399023E+03 0.30008606E+03 0.0000E+00 0.0000E+00
       23  2    1    2    0    0 -.15603194E+03 0.24399420E+03 0.17022288E+03 0.34795810E+03 0.90663521E+02 0.0000E+00 0.0000E+00
       24  1    3    3    0    0 0.18841128E+03 -.17137460E+03 0.13205305E+03 0.29794847E+03 0.80419002E+02 0.0000E+00 0.9000E+01
      -13  1    4    4    0    0 -.58113086E+01 0.49195902E+02 0.61605494E+02 0.79052237E+02 0.10565837E+00 0.0000E+00 0.9000E+01
       13  1    4    4    0    0 -.15022063E+03 0.19479830E+03 0.10861739E+03 0.26890587E+03 0.10565837E+00 0.0000E+00 0.9000E+01
      -24  1    3    3    0    0 -.32379341E+02 -.72619599E+02 -.55653228E+02 0.12604176E+03 0.80419002E+02 0.0000E+00 0.9000E+01
#aMCatNLO 1  0  0  1  2 0.12042020D+03 0.00000000D+00  -5  7  0 0.00000000D+00 0.00000000D+00 0.00000000D+00 0.00000000D+00 0.00000000D+00
  <mgrwgt>
 0.9565473344D-03    9    2    0
 0.365746316496776D+03 0.000000000000000D+00 0.000000000000000D+00 0.365746316496776D+03
 0.365746316496776D+03 0.000000000000000D+00 0.000000000000000D+00 -.365746316496776D+03
 0.269905034155243D+03 0.188411284176512D+03 -.171374602361691D+03 0.389030226113902D+02
 0.626537355437976D+02 -.581111270853425D+01 0.491957046011453D+02 0.383601902429809D+02
 0.247157792547021D+03 -.150220830550348D+03 0.194798497247770D+03 0.239629287753080D+02
 0.151776070747491D+03 -.323793409176293D+02 -.726195994872248D+02 -.101226141629679D+03
 0.000000000000000D+00 0.000000000000000D+00 0.000000000000000D+00 0.000000000000000D+00
 0.488804933329681D+03 0.000000000000000D+00 0.000000000000000D+00 0.488804933329681D+03
 0.401356354795808D+03 0.000000000000000D+00 0.000000000000000D+00 -.401356354795808D+03
 0.249085227083441D+03 0.146910729991170D+03 -.180222159131439D+03 0.389030226113902D+02
 0.627440221886316D+02 -.158384230998204D+02 0.470579693425128D+02 0.383601902429809D+02
 0.267984268690065D+03 -.191413667145187D+03 0.186016543188744D+03 0.239629287753080D+02
 0.161524796071249D+03 -.574321416555332D+02 -.779606384473284D+02 -.101226141629679D+03
 0.148822974092102D+03 0.117773501909370D+03 0.251082850475109D+02 0.874485785338728D+02
0.182257776786D-04 0.000000000000D+00 0.000000000000D+00 0.189047111137D-05 0.000000000000D+00  7 2 -2 24 -13 13 -24 21 0 0.78351618D-01 0.40409664D-01 0.11414510D+06 0.11414510D+06 0.11414510D+06 0.11170373D+01  1  2  2  1  7  1        2 0.777235000901D-03 0.100000000000D+01
-.100479611684D-05 0.000000000000D+00 -.699917852433D-07 0.189047111137D-05 0.000000000000D+00  7 2 -2 24 -13 13 -24 21 2 0.78351618D-01 0.40409664D-01 0.11414510D+06 0.11414510D+06 0.11414510D+06 0.11170373D+01  1  2  3  1  7  1        2 -.534662310141D-04 0.100000000000D+01
0.117909084882D-05 0.000000000000D+00 0.000000000000D+00 0.189047111137D-05 0.000000000000D+00  7 2 -2 24 -13 13 -24 21 2 0.78351618D-01 0.40409664D-01 0.11414510D+06 0.11414510D+06 0.11414510D+06 0.11170373D+01  1  2 15  1  7  1        2 0.627406323068D-04 0.100000000000D+01
0.164335782367D-04 0.000000000000D+00 0.000000000000D+00 0.189047111137D-05 0.000000000000D+00  7 2 -2 24 -13 13 -24 21 2 0.10754352D+00 0.40409664D-01 0.16357267D+06 0.16357267D+06 0.16357267D+06 0.11045954D+01  1  2 12  1  7  1        2 0.589074317479D-03 0.100000000000D+01
-.186945571175D-04 0.000000000000D+00 0.000000000000D+00 0.189047111137D-05 0.000000000000D+00  7 2 -2 24 -13 13 -24 21 2 0.78351618D-01 0.40409664D-01 0.11414510D+06 0.11414510D+06 0.11414510D+06 0.11170373D+01  1  2  4  1  7  1        2 -.994756540955D-03 0.100000000000D+01
-.276283369588D-04 0.000000000000D+00 -.855240548027D-05 0.189047111137D-05 0.000000000000D+00  7 2 -2 24 -13 13 -24 21 2 0.11172723D+00 0.40409664D-01 0.11414510D+06 0.11414510D+06 0.11414510D+06 0.11170373D+01  1  2  5  1  7  1        2 -.973118097738D-03 0.100000000000D+01
0.293099611747D-04 0.000000000000D+00 0.804081593871D-05 0.189047111137D-05 0.000000000000D+00  7 2 -2 24 -13 13 -24 21 2 0.78351618D-01 0.40409664D-01 0.11414510D+06 0.11414510D+06 0.11414510D+06 0.11170373D+01  1  2  6  1  7  1        2 0.155961306868D-02 0.100000000000D+01
0.660547422275D-06 0.000000000000D+00 0.000000000000D+00 0.189047111137D-05 0.000000000000D+00  7 21 -2 24 -13 13 -24 -2 2 0.10754352D+00 0.40409664D-01 0.16357267D+06 0.16357267D+06 0.16357267D+06 0.11045954D+01  1  2 12  3  7  1        2 0.289933820607D-04 0.100000000000D+01
-.958680155856D-06 0.000000000000D+00 -.373144257256D-06 0.189047111137D-05 0.000000000000D+00  7 21 -2 24 -13 13 -24 -2 2 0.11172723D+00 0.40409664D-01 0.11414510D+06 0.11414510D+06 0.11414510D+06 0.11170373D+01  1  2  5  3  7  1        2 -.397681973435D-04 0.100000000000D+01
  </mgrwgt>
  </event>
  <event>
  9     66 0.26993063E-05 0.32321312E+03 0.75467711E-02 0.97416860E-01
        2 -1    0    0  502    0 0.00000000E+00 0.00000000E+00 0.13171807E+04 0.13171807E+04 0.32000000E+00 0.0000E+00 0.9000E+01
       -2 -1    0    0    0  501 0.00000000E+00 0.00000000E+00 -.22577125E+03 0.22577148E+03 0.32000000E+00 0.0000E+00 0.9000E+01
       25  2    1    2    0    0 0.64002136E+02 -.24222102E+03 0.58994784E+02 0.39525839E+03 0.29996920E+03 0.0000E+00 0.0000E+00
       23  2    1    2    0    0 0.58152010E+02 0.28997950E+03 0.93221944E+03 0.98264184E+03 0.95300276E+02 0.0000E+00 0.0000E+00
       24  1    3    3    0    0 0.17991891E+02 -.25360633E+03 -.27403958E+02 0.26806356E+03 0.80419002E+02 0.0000E+00 0.9000E+01
      -11  1    4    4    0    0 0.53740471E+02 0.23193655E+03 0.60269216E+03 0.64801269E+03 0.51099893E-03 0.0000E+00 0.9000E+01
       11  1    4    4    0    0 0.44115383E+01 0.58042953E+02 0.32952728E+03 0.33462916E+03 0.51099893E-03 0.0000E+00 0.9000E+01
      -24  1    3    3    0    0 0.46010245E+02 0.11385312E+02 0.86398742E+02 0.12719484E+03 0.80419002E+02 0.0000E+00 0.9000E+01
       21  1    1    2  502  501 -.12215415E+03 -.47758483E+02 0.10019520E+03 0.16505196E+03 0.75000000E+00 0.0000E+00 0.9000E+01
#aMCatNLO 2  0  0  1  2 0.13115833D+03 0.00000000D+00  -5  7  0 0.00000000D+00 0.00000000D+00 0.00000000D+00 0.00000000D+00 0.00000000D+00
  <mgrwgt>
 0.2819727634D-03    1    2    0
 0.474051926144632D+03 0.000000000000000D+00 0.000000000000000D+00 0.474051926144632D+03
 0.474051926144632D+03 0.000000000000000D+00 0.000000000000000D+00 -.474051926144632D+03
 0.428689428911910D+03 -.360555147457246D+02 -.274737186659270D+03 -.317059755613069D+03
 0.293067294637636D+03 0.151559949024258D+02 0.216851211628909D+03 0.196556065843349D+03
 0.138320857882919D+03 -.134634569211009D+02 0.510543842375053D+02 0.127846958913106D+03
 0.880262708567983D+02 0.343629767643998D+02 0.683159079285497D+01 -.734326914338561D+01
 0.000000000000000D+00 -.000000000000000D+00 -.000000000000000D+00 -.000000000000000D+00
 0.532145954016193D+03 0.000000000000000D+00 0.000000000000000D+00 0.532145954016193D+03
 0.558832743300655D+03 0.000000000000000D+00 0.000000000000000D+00 -.558832743300655D+03
 0.414287317968331D+03 0.179918906209813D+02 -.253606327045454D+03 -.317059755613069D+03
 0.308734329789542D+03 0.537404712431222D+02 0.231936545463086D+03 0.196556065843349D+03
 0.140475232616291D+03 0.441153829511272D+01 0.580429531049409D+02 0.127846958913106D+03
 0.936360375915396D+02 0.460102451628408D+02 0.113853115818921D+02 -.734326914338561D+01
 0.133845779351143D+03 -.122154145322057D+03 -.477584831044649D+02 -.266867892844617D+02
0.144361683298D-04 0.000000000000D+00 0.000000000000D+00 0.452689078328D-06 0.173397944628D-09  7 2 -2 24 -11 11 -24 21 2 0.20264281D+00 0.34733992D-01 0.15502196D+06 0.15502196D+06 0.15502196D+06 0.11064250D+01  1  2  1  1  7  1        2 0.281972763434D-03 0.100000000000D+01
  </mgrwgt>
  </event>
  <event>
  8     66 0.26993063E-05 0.18552501E+03 0.75467711E-02 0.98766230E-01
        2 -1    0    0  501    0 0.00000000E+00 0.00000000E+00 0.31506210E+04 0.31506210E+04 0.32000000E+00 0.0000E+00 0.9000E+01
       -2 -1    0    0    0  501 0.00000000E+00 0.00000000E+00 -.39005306E+02 0.39006619E+02 0.32000000E+00 0.0000E+00 0.9000E+01
       25  2    1    2    0    0 0.26287967E+03 0.87657856E+02 0.19033316E+04 0.19466288E+04 0.29983774E+03 0.0000E+00 0.0000E+00
       23  2    1    2    0    0 -.26287967E+03 -.87657856E+02 0.12082841E+04 0.12429989E+04 0.91138159E+02 0.0000E+00 0.0000E+00
       24  1    3    3    0    0 -.25987273E+02 -.21383291E+02 0.33388284E+03 0.34507615E+03 0.80419002E+02 0.0000E+00 0.9000E+01
      -11  1    4    4    0    0 -.26510906E+03 -.72876436E+02 0.11706703E+04 0.12025235E+04 0.51099893E-03 0.0000E+00 0.9000E+01
       11  1    4    4    0    0 0.22293873E+01 -.14781421E+02 0.37613793E+02 0.40475400E+02 0.51099893E-03 0.0000E+00 0.9000E+01
      -24  1    3    3    0    0 0.28886695E+03 0.10904115E+03 0.15694488E+04 0.16015526E+04 0.80419002E+02 0.0000E+00 0.9000E+01
#aMCatNLO 1  0  0  1  2 0.88363942D+01 0.00000000D+00  -5  7  0 0.00000000D+00 0.00000000D+00 0.00000000D+00 0.00000000D+00 0.00000000D+00
  <mgrwgt>
 0.2355186006D-02   11    2    0
 0.350561058459201D+03 0.000000000000000D+00 0.000000000000000D+00 0.350561058459201D+03
 0.350561058459201D+03 0.000000000000000D+00 0.000000000000000D+00 -.350561058459201D+03
 0.880721668077751D+02 -.259872733630366D+02 -.213832908001841D+02 -.125262568054305D+02
 0.275167575679427D+03 -.265109061378976D+03 -.728764355922058D+02 -.111087990092048D+02
 0.172035436749919D+02 0.222938726844463D+01 -.147814205398080D+02 -.851477270454070D+01
 0.320678830756208D+03 0.288866947473568D+03 0.109041146932198D+03 0.321498285191760D+02
 0.000000000000000D+00 0.000000000000000D+00 0.000000000000000D+00 0.000000000000000D+00
 0.399691613060267D+03 0.000000000000000D+00 0.000000000000000D+00 0.399691613060267D+03
 0.350986442617196D+03 0.000000000000000D+00 0.000000000000000D+00 -.350986442617196D+03
 0.884866116072538D+02 -.270089546435159D+02 -.218236967279003D+02 -.125262568054305D+02
 0.278621308079330D+03 -.268313635747653D+03 -.742577994037370D+02 -.111087990092048D+02
 0.172528517039239D+02 0.203000067057931D+01 -.148673681256988D+02 -.851477270454070D+01
 0.316817026813481D+03 0.285177991365529D+03 0.107450985530490D+03 0.321498285191760D+02
 0.495002574734746D+02 0.811459835506116D+01 0.349787872684577D+01 0.487051704430710D+02
0.468666770986D-04 0.000000000000D+00 0.000000000000D+00 0.216476567242D-05 0.000000000000D+00  7 2 -2 24 -11 11 -24 21 0 0.48471103D+00 0.60009185D-02 0.12114988D+06 0.12114988D+06 0.12114988D+06 0.11149479D+01  1  2  2  1  7  1        2 0.117524255695D-02 0.100000000000D+01
-.260354275953D-05 0.000000000000D+00 -.179980380338D-06 0.216476567242D-05 0.000000000000D+00  7 2 -2 24 -11 11 -24 21 2 0.48471103D+00 0.60009185D-02 0.12114988D+06 0.12114988D+06 0.12114988D+06 0.11149479D+01  1  2  3  1  7  1        2 -.811590963053D-04 0.100000000000D+01
0.303606833217D-05 0.000000000000D+00 0.000000000000D+00 0.216476567242D-05 0.000000000000D+00  7 2 -2 24 -11 11 -24 21 2 0.48471103D+00 0.60009185D-02 0.12114988D+06 0.12114988D+06 0.12114988D+06 0.11149479D+01  1  2 15  1  7  1        2 0.946420262384D-04 0.100000000000D+01
0.155378098433D-02 0.000000000000D+00 0.000000000000D+00 0.216476567242D-05 0.000000000000D+00  7 2 -2 24 -11 11 -24 21 2 0.55291177D+00 0.60009185D-02 0.12426279D+06 0.12426279D+06 0.12426279D+06 0.11140615D+01  1  2 12  1  7  1        2 0.241207301312D-01 0.100000000000D+01
-.154761401529D-02 0.000000000000D+00 0.000000000000D+00 0.216476567242D-05 0.000000000000D+00  7 2 -2 24 -11 11 -24 21 2 0.48471103D+00 0.60009185D-02 0.12114988D+06 0.12114988D+06 0.12114988D+06 0.11149479D+01  1  2  4  1  7  1        2 -.482430927822D-01 0.100000000000D+01
-.164261670041D-02 0.000000000000D+00 -.282851624967D-04 0.216476567242D-05 0.000000000000D+00  7 2 -2 24 -11 11 -24 21 2 0.55278317D+00 0.60009185D-02 0.12114988D+06 0.12114988D+06 0.12114988D+06 0.11149479D+01  1  2  5  1  7  1        2 -.256074373820D-01 0.100000000000D+01
0.163246015782D-02 0.000000000000D+00 0.280426743332D-04 0.216476567242D-05 0.000000000000D+00  7 2 -2 24 -11 11 -24 21 2 0.48471103D+00 0.60009185D-02 0.12114988D+06 0.12114988D+06 0.12114988D+06 0.11149479D+01  1  2  6  1  7  1        2 0.508879643625D-01 0.100000000000D+01
0.592736820059D-06 0.000000000000D+00 0.000000000000D+00 0.216476567242D-05 0.185238516583D-06  7 2 -2 24 -11 11 -24 21 2 0.55264248D+00 0.60082003D-02 0.12426279D+06 0.12426279D+06 0.12426279D+06 0.11140615D+01  1  2 11  1  7  1        2 0.921151280183D-05 0.100000000000D+01
0.318502560392D-04 0.000000000000D+00 0.000000000000D+00 0.216476567242D-05 0.000000000000D+00  7 21 -2 24 -11 11 -24 -2 2 0.55291177D+00 0.60009185D-02 0.12426279D+06 0.12426279D+06 0.12426279D+06 0.11140615D+01  1  2 12  3  7  1        2 0.159518848878D-04 0.100000000000D+01
-.334674634890D-04 0.000000000000D+00 -.578956062695D-06 0.216476567242D-05 0.000000000000D+00  7 21 -2 24 -11 11 -24 -2 2 0.55278317D+00 0.60009185D-02 0.12114988D+06 0.12114988D+06 0.12114988D+06 0.11149479D+01  1  2  5  3  7  1        2 -.168732907518D-04 0.100000000000D+01
0.121010887849D-07 0.000000000000D+00 0.000000000000D+00 0.216476567242D-05 0.377841400619D-08  7 21 -2 24 -11 11 -24 -2 2 0.55264248D+00 0.60082003D-02 0.12426279D+06 0.12426279D+06 0.12426279D+06 0.11140615D+01  1  2 11  3  7  1        2 0.608221031966D-08 0.100000000000D+01
  </mgrwgt>
  </event>
  <event>
  8     66 0.26993063E-05 0.15319497E+03 0.75467711E-02 0.99208980E-01
        2 -1    0    0  501    0 0.00000000E+00 0.00000000E+00 0.11668269E+04 0.11668269E+04 0.32000000E+00 0.0000E+00 0.9000E+01
       -2 -1    0    0    0  501 0.00000000E+00 0.00000000E+00 -.12649304E+03 0.12649344E+03 0.32000000E+00 0.0000E+00 0.9000E+01
       25  2    1    2    0    0 0.21327147E+03 -.13913777E+03 0.91223953E+03 0.99351539E+03 0.30007971E+03 0.0000E+00 0.0000E+00
       23  2    1    2    0    0 -.21327147E+03 0.13913777E+03 0.12809429E+03 0.29980496E+03 0.92902247E+02 0.0000E+00 0.0000E+00
       24  1    3    3    0    0 0.25353543E+03 -.11103218E+03 0.57264362E+03 0.64108993E+03 0.80419002E+02 0.0000E+00 0.9000E+01
      -11  1    4    4    0    0 -.67817869E+02 0.26942313E+02 0.83265475E+02 0.11071717E+03 0.51099893E-03 0.0000E+00 0.9000E+01
       11  1    4    4    0    0 -.14545360E+03 0.11219546E+03 0.44828814E+02 0.18908779E+03 0.51099893E-03 0.0000E+00 0.9000E+01
      -24  1    3    3    0    0 -.40263965E+02 -.28105594E+02 0.33959591E+03 0.35242547E+03 0.80419002E+02 0.0000E+00 0.9000E+01
#aMCatNLO 1  0  0  2  1 0.38109552D+02 0.00000000D+00  -5  7  0 0.00000000D+00 0.00000000D+00 0.00000000D+00 0.00000000D+00 0.00000000D+00
  <mgrwgt>
 0.6565989597D-03    9    2    0
 0.384181945288818D+03 0.000000000000000D+00 0.000000000000000D+00 0.384181945288818D+03
 0.384181945288818D+03 0.000000000000000D+00 0.000000000000000D+00 -.384181945288818D+03
 0.303754670242592D+03 0.253535430624478D+03 -.111032179990710D+03 0.958713938794369D+02
 0.736225048591864D+02 -.678178687778131D+02 0.269423128480030D+02 -.975303412157344D+01
 0.257578680721563D+03 -.145453597305575D+03 0.112195460752485D+03 -.180560810752682D+03
 0.133408034754296D+03 -.402639645410903D+02 -.281055936097781D+02 0.944424509948189D+02
 0.000000000000000D+00 0.000000000000000D+00 0.000000000000000D+00 -.000000000000000D+00
 0.395352996821124D+03 0.000000000000000D+00 0.000000000000000D+00 0.395352996821124D+03
 0.418591134138033D+03 0.000000000000000D+00 0.000000000000000D+00 -.418591134138033D+03
 0.295752068519608D+03 0.240508897239742D+03 -.118178747088439D+03 0.958713938794369D+02
 0.760192716885943D+02 -.710693978631669D+02 0.251584713536937D+02 -.975303412157344D+01
 0.261543691266726D+03 -.156733478701789D+03 0.106007135211714D+03 -.180560810752682D+03
 0.135993363294578D+03 -.461177207687918D+02 -.313170590410982D+02 0.944424509948189D+02
 0.446357361896506D+02 0.334117000940054D+02 0.183301995641295D+02 -.232381373169087D+02
0.108419723403D-04 0.000000000000D+00 0.000000000000D+00 0.117543574990D-05 0.000000000000D+00  7 2 -2 24 -11 11 -24 21 0 0.17951186D+00 0.19460502D-01 0.10211981D+06 0.10211981D+06 0.10211981D+06 0.11209752D+01  1  2  2  2  7  2       -2 0.576629699497D-03 0.100000000000D+01
-.577492877698D-06 0.000000000000D+00 -.416360285437D-07 0.117543574990D-05 0.000000000000D+00  7 2 -2 24 -11 11 -24 21 2 0.17951186D+00 0.19460502D-01 0.10211981D+06 0.10211981D+06 0.10211981D+06 0.11209752D+01  1  2  3  2  7  2       -2 -.385946739887D-04 0.100000000000D+01
0.694572986037D-06 0.000000000000D+00 0.000000000000D+00 0.117543574990D-05 0.000000000000D+00  7 2 -2 24 -11 11 -24 21 2 0.17951186D+00 0.19460502D-01 0.10211981D+06 0.10211981D+06 0.10211981D+06 0.11209752D+01  1  2 15  2  7  2       -2 0.464193048827D-04 0.100000000000D+01
0.286583178395D-04 0.000000000000D+00 0.000000000000D+00 0.117543574990D-05 0.000000000000D+00  7 2 -2 24 -11 11 -24 21 2 0.17951186D+00 0.21468681D-01 0.11571907D+06 0.11571907D+06 0.11571907D+06 0.11165558D+01  1  2 12  2  7  2       -2 0.161111108976D-02 0.100000000000D+01
-.283584511413D-04 0.000000000000D+00 0.000000000000D+00 0.117543574990D-05 0.000000000000D+00  7 2 -2 24 -11 11 -24 21 2 0.17951186D+00 0.19460502D-01 0.10211981D+06 0.10211981D+06 0.10211981D+06 0.11209752D+01  1  2  4  2  7  2       -2 -.189523580098D-02 0.100000000000D+01
-.674860233434D-04 0.000000000000D+00 -.127754994890D-04 0.117543574990D-05 0.000000000000D+00  7 2 -2 24 -11 11 -24 21 2 0.17951186D+00 0.21797605D-01 0.10211981D+06 0.10211981D+06 0.10211981D+06 0.11209752D+01  1  2  5  2  7  2       -2 -.373616800446D-02 0.100000000000D+01
0.685751595893D-04 0.000000000000D+00 0.126937747612D-04 0.117543574990D-05 0.000000000000D+00  7 2 -2 24 -11 11 -24 21 2 0.17951186D+00 0.19460502D-01 0.10211981D+06 0.10211981D+06 0.10211981D+06 0.11209752D+01  1  2  6  2  7  2       -2 0.458297587777D-02 0.100000000000D+01
0.458254734790D-06 0.000000000000D+00 0.000000000000D+00 0.117543574990D-05 0.000000000000D+00  7 2 21 24 -11 11 -24 2 2 0.17951186D+00 0.21468681D-01 0.11571907D+06 0.11571907D+06 0.11571907D+06 0.11165558D+01  1  2 12  4  7  2       -2 0.324981732184D-03 0.100000000000D+01
-.116760365477D-05 0.000000000000D+00 -.231113483798D-06 0.117543574990D-05 0.000000000000D+00  7 2 21 24 -11 11 -24 2 2 0.17951186D+00 0.21797605D-01 0.10211981D+06 0.10211981D+06 0.10211981D+06 0.11209752D+01  1  2  5  4  7  2       -2 -.815520264993D-03 0.100000000000D+01
  </mgrwgt>
  </event>
  <event>
  9     66 0.26993063E-05 0.17840456E+03 0.75467711E-02 0.10058924E+00
        2 -1    0    0  501    0 0.00000000E+00 0.00000000E+00 0.31671019E+03 0.31671036E+03 0.32000000E+00 0.0000E+00 0.9000E+01
       21 -1    0    0  502  501 0.00000000E+00 0.00000000E+00 -.38449624E+03 0.38449697E+03 0.75000000E+00 0.0000E+00 0.9000E+01
       25  2    1    2    0    0 -.13371801E+02 -.20255027E+03 0.12367273E+02 0.36397331E+03 0.30185793E+03 0.0000E+00 0.0000E+00
       23  2    1    2    0    0 0.29355488E+02 -.22588947E+01 -.88298832E+02 0.13164043E+03 0.93089589E+02 0.0000E+00 0.0000E+00
       24  1    3    3    0    0 0.62745841E+02 -.20936513E+03 0.64120326E+02 0.24155627E+03 0.80419002E+02 0.0000E+00 0.9000E+01
      -11  1    4    4    0    0 -.15247547E+02 0.40897555E+01 0.13209018E+02 0.20583778E+02 0.51099893E-03 0.0000E+00 0.9000E+01
       11  1    4    4    0    0 0.44603035E+02 -.63486502E+01 -.10150785E+03 0.11105665E+03 0.51099893E-03 0.0000E+00 0.9000E+01
      -24  1    3    3    0    0 -.76117642E+02 0.68148679E+01 -.51753053E+02 0.12241704E+03 0.80419002E+02 0.0000E+00 0.9000E+01
        2  1    1    2  502    0 -.15983687E+02 0.20480916E+03 0.81455119E+01 0.20559359E+03 0.32000000E+00 0.0000E+00 0.9000E+01
#aMCatNLO 2  0  0  2  1 0.20543191D+03 0.00000000D+00  -5  7  0 0.00000000D+00 0.00000000D+00 0.00000000D+00 0.00000000D+00 0.00000000D+00
  <mgrwgt>
 0.1133775960D-03    1    2    0
 0.222297722133240D+03 0.000000000000000D+00 0.000000000000000D+00 0.222297722133240D+03
 0.222297722133240D+03 0.000000000000000D+00 0.000000000000000D+00 -.222297722133240D+03
 0.181523579023907D+03 0.552889582028241D+02 -.113815358831776D+03 0.102336645353063D+03
 0.276339225359330D+02 -.161116267417732D+02 0.151617635887801D+02 0.165580821151989D+02
 0.101936201045487D+03 0.412059710697205D+02 0.371801003907848D+02 -.855026149700605D+02
 0.133501741661154D+03 -.803833025307715D+02 0.614734948522107D+02 -.333921124982015D+02
 0.000000000000000D+00 -.000000000000000D+00 0.000000000000000D+00 0.000000000000000D+00
 0.369596256236602D+03 0.000000000000000D+00 0.000000000000000D+00 0.369596256236602D+03
 0.329478731578468D+03 0.000000000000000D+00 0.000000000000000D+00 -.329478731578468D+03
 0.254383184533769D+03 0.627458400370382D+02 -.209365133666279D+03 0.102336645353063D+03
 0.228775843443783D+02 -.152475466917174D+02 0.408975573651695D+01 0.165580821151989D+02
 0.966459171641477D+02 0.446030355653285D+02 -.634864994616353D+01 -.855026149700605D+02
 0.115855888647044D+03 -.761176417539300D+02 0.681486731737770D+01 -.333921124982015D+02
 0.209312413125731D+03 -.159836871567194D+02 0.204809160558548D+03 0.401175246581339D+02
0.250233368055D-06 0.000000000000D+00 0.000000000000D+00 0.157280661679D-07 0.222094357970D-12  7 2 21 24 -11 11 -24 2 2 0.48724697D-01 0.59153316D-01 0.93055805D+05 0.93055805D+05 0.93055805D+05 0.11242961D+01  1  2  1  4  7  2       -2 0.113377595964D-03 0.100000000000D+01
  </mgrwgt>
  </event>
  <event>
  8     66 0.26993063E-05 0.48401915E+03 0.75467711E-02 0.90229535E-01
        2 -1    0    0  501    0 0.00000000E+00 0.00000000E+00 0.12067212E+04 0.12067213E+04 0.32000000E+00 0.0000E+00 0.9000E+01
       -2 -1    0    0    0  501 0.00000000E+00 0.00000000E+00 -.20664851E+03 0.20664875E+03 0.32000000E+00 0.0000E+00 0.9000E+01
       25  2    1    2    0    0 0.41439272E+03 -.17190457E+03 0.50967549E+03 0.74242214E+03 0.30024827E+03 0.0000E+00 0.0000E+00
       23  2    1    2    0    0 -.41439272E+03 0.17190457E+03 0.49039721E+03 0.67094786E+03 0.91701142E+02 0.0000E+00 0.0000E+00
       24  1    3    3    0    0 0.15533844E+03 -.17595933E+03 0.14321762E+03 0.28647900E+03 0.80419002E+02 0.0000E+00 0.9000E+01
      -13  1    4    4    0    0 -.18838372E+03 0.80034147E+02 0.29147206E+03 0.35615989E+03 0.10565837E+00 0.0000E+00 0.9000E+01
       13  1    4    4    0    0 -.22600900E+03 0.91870426E+02 0.19892515E+03 0.31478797E+03 0.10565837E+00 0.0000E+00 0.9000E+01
      -24  1    3    3    0    0 0.25905428E+03 0.40547519E+01 0.36645787E+03 0.45594314E+03 0.80419002E+02 0.0000E+00 0.9000E+01
#aMCatNLO 1  0  0  2  2 0.43970391D+03 0.00000000D+00  -5  7  0 0.00000000D+00 0.00000000D+00 0.00000000D+00 0.00000000D+00 0.00000000D+00
  <mgrwgt>
 0.8501443578D-03    5    2    0
 0.499366939361220D+03 0.000000000000000D+00 0.000000000000000D+00 0.499366939361220D+03
 0.499366939361220D+03 0.000000000000000D+00 0.000000000000000D+00 -.499366939361220D+03
 0.262004525333999D+03 0.155338442299765D+03 -.175959325695736D+03 -.841869312049539D+02
 0.212161027472972D+03 -.188383674044865D+03 0.800341316882394D+02 0.558429108898774D+02
 0.246284138925016D+03 -.226009047191911D+03 0.918704421017207D+02 -.336988062322005D+02
 0.278284186990454D+03 0.259054278937011D+03 0.405475190577637D+01 0.620428265472770D+02
 0.000000000000000D+00 -.000000000000000D+00 -.000000000000000D+00 -.000000000000000D+00
 0.762419743774942D+03 0.000000000000000D+00 0.000000000000000D+00 0.762419743774942D+03
 0.768569061687880D+03 0.000000000000000D+00 0.000000000000000D+00 -.768569061687880D+03
 0.265017411141147D+03 0.221589428035461D+03 -.870499755933050D+02 -.841869312049539D+02
 0.210510619851652D+03 -.135250376662457D+03 0.151339439626078D+03 0.558429108898774D+02
 0.242075216187340D+03 -.164618265461201D+03 0.174257359750508D+03 -.336988062322005D+02
 0.373638653781884D+03 0.341006334127827D+03 0.114035062170780D+03 0.620428265472770D+02
 0.439746904500799D+03 -.262727120039630D+03 -.352581885954061D+03 -.614931791293838D+01
0.389227470524D-04 0.000000000000D+00 0.000000000000D+00 0.441094724287D-05 0.000000000000D+00  7 2 -2 24 -13 13 -24 21 0 0.18564944D+00 0.31792100D-01 0.23427453D+06 0.23427453D+06 0.23427453D+06 0.10925881D+01  1  2  2  2  7  2       -2 0.831407606315D-03 0.100000000000D+01
-.215981279132D-05 0.000000000000D+00 -.149473597276D-06 0.441094724287D-05 0.000000000000D+00  7 2 -2 24 -13 13 -24 21 2 0.18564944D+00 0.31792100D-01 0.23427453D+06 0.23427453D+06 0.23427453D+06 0.10925881D+01  1  2  3  2  7  2       -2 -.550731009814D-04 0.100000000000D+01
0.248055792928D-05 0.000000000000D+00 0.000000000000D+00 0.441094724287D-05 0.000000000000D+00  7 2 -2 24 -13 13 -24 21 2 0.18564944D+00 0.31792100D-01 0.23427453D+06 0.23427453D+06 0.23427453D+06 0.10925881D+01  1  2 15  2  7  2       -2 0.632517863948D-04 0.100000000000D+01
-.257537874912D-05 0.000000000000D+00 -.116534532172D-04 0.441094724287D-05 0.000000000000D+00  7 2 -2 24 -13 13 -24 21 2 0.18564944D+00 0.74919461D-01 0.23427453D+06 0.23427453D+06 0.23427453D+06 0.10925881D+01  1  2  5  2  7  2       -2 -.120711186316D-04 0.100000000000D+01
0.494370471252D-06 0.000000000000D+00 -.109027173060D-05 0.441094724287D-05 0.000000000000D+00  7 2 21 24 -13 13 -24 2 2 0.18564944D+00 0.74919461D-01 0.23427453D+06 0.23427453D+06 0.23427453D+06 0.10925881D+01  1  2  5  4  7  2       -2 0.226291846627D-04 0.100000000000D+01
  </mgrwgt>
  </event>
  <event>
  8     66 0.26993063E-05 0.66675580E+03 0.75467711E-02 0.85113270E-01
        2 -1    0    0  501    0 0.00000000E+00 0.00000000E+00 0.17975504E+04 0.17975504E+04 0.32000000E+00 0.0000E+00 0.9000E+01
       -2 -1    0    0    0  501 0.00000000E+00 0.00000000E+00 -.26460217E+03 0.26460236E+03 0.32000000E+00 0.0000E+00 0.9000E+01
       25  2    1    2    0    0 -.38310892E+03 -.52236702E+03 0.92484082E+03 0.11685047E+04 0.30072063E+03 0.0000E+00 0.0000E+00
       23  2    1    2    0    0 0.38310892E+03 0.52236702E+03 0.60810742E+03 0.89364811E+03 0.95773511E+02 0.0000E+00 0.0000E+00
       24  1    3    3    0    0 -.25036224E+03 -.23429251E+03 0.29782369E+03 0.46123790E+03 0.80419002E+02 0.0000E+00 0.9000E+01
      -13  1    4    4    0    0 0.93417268E+02 0.69252456E+02 0.92244591E+02 0.14843101E+03 0.10565837E+00 0.0000E+00 0.9000E+01
       13  1    4    4    0    0 0.28969165E+03 0.45311457E+03 0.51586283E+03 0.74521710E+03 0.10565837E+00 0.0000E+00 0.9000E+01
      -24  1    3    3    0    0 -.13274668E+03 -.28807451E+03 0.62701713E+03 0.70726678E+03 0.80419002E+02 0.0000E+00 0.9000E+01
#aMCatNLO 1  0  0  2  2 0.94677322D+03 0.00000000D+00  -5  7  0 0.00000000D+00 0.00000000D+00 0.00000000D+00 0.00000000D+00 0.00000000D+00
  <mgrwgt>
 0.9865393929D-03    3    2    0
 0.689663658003987D+03 0.000000000000000D+00 0.000000000000000D+00 0.689663658003987D+03
 0.689663658003987D+03 0.000000000000000D+00 0.000000000000000D+00 -.689663658003987D+03
 0.358576759620758D+03 -.250362241586264D+03 -.234292509756921D+03 -.673486781270157D+02
 0.119391914440668D+03 0.934170292886654D+02 0.692519889352694D+02 -.270527244690400D+02
 0.540815235637570D+03 0.289691893378057D+03 0.453115032237641D+03 -.569780095215519D+02
 0.360543406308978D+03 -.132746681080459D+03 -.288074511415989D+03 0.151379412117608D+03
 0.000000000000000D+00 -.000000000000000D+00 -.000000000000000D+00 0.000000000000000D+00
 0.183387520158404D+04 0.000000000000000D+00 0.000000000000000D+00 0.183387520158404D+04
 0.106118360065260D+04 0.000000000000000D+00 0.000000000000000D+00 -.106118360065260D+04
 0.206864844518351D+03 -.155901922176273D+03 -.865135489938889D+02 -.673486781270157D+02
 0.219397525444422D+03 0.150013782109854D+03 0.157795086891308D+03 -.270527244690400D+02
 0.102511034739615D+04 0.551288899439980D+03 0.862371892007085D+03 -.569780095215519D+02
 0.221625598851409D+03 -.354919517229107D+02 -.135923820803055D+03 0.151379412117608D+03
 0.122206048602630D+04 -.509908807650651D+03 -.797729609101448D+03 0.772691600931437D+03
0.157220538821D-03 0.000000000000D+00 0.000000000000D+00 0.159726018233D-06 0.000000000000D+00  7 2 -2 24 -13 13 -24 21 0 0.27654623D+00 0.40708043D-01 0.44456330D+06 0.44456330D+06 0.44456330D+06 0.10721362D+01  1  2  2  2  7  2       -2 0.978246106983D-03 0.100000000000D+01
-.872235608148D-05 0.000000000000D+00 -.603768266193D-06 0.159726018233D-06 0.000000000000D+00  7 2 -2 24 -13 13 -24 21 2 0.27654623D+00 0.40708043D-01 0.44456330D+06 0.44456330D+06 0.44456330D+06 0.10721362D+01  1  2  3  2  7  2       -2 -.623839052887D-04 0.100000000000D+01
0.988190183514D-05 0.000000000000D+00 0.000000000000D+00 0.159726018233D-06 0.000000000000D+00  7 2 -2 24 -13 13 -24 21 2 0.27654623D+00 0.40708043D-01 0.44456330D+06 0.44456330D+06 0.44456330D+06 0.10721362D+01  1  2 15  2  7  2       -2 0.706771911623D-04 0.100000000000D+01
  </mgrwgt>
  </event>
  <event>
  8     66 0.26993063E-05 0.16029622E+03 0.75467711E-02 0.99446036E-01
        2 -1    0    0  501    0 0.00000000E+00 0.00000000E+00 0.10546581E+04 0.10546582E+04 0.32000000E+00 0.0000E+00 0.9000E+01
       -2 -1    0    0    0  501 0.00000000E+00 0.00000000E+00 -.51311290E+02 0.51312288E+02 0.32000000E+00 0.0000E+00 0.9000E+01
       25  2    1    2    0    0 0.10908925E+03 -.13213105E+02 0.81146023E+03 0.87258344E+03 0.30142843E+03 0.0000E+00 0.0000E+00
       23  2    1    2    0    0 -.10908925E+03 0.13213105E+02 0.19188660E+03 0.23338702E+03 0.74659104E+02 0.0000E+00 0.0000E+00
       24  1    3    3    0    0 0.58802751E+02 -.42640691E+02 0.74557237E+03 0.75340650E+03 0.80419002E+02 0.0000E+00 0.9000E+01
      -13  1    4    4    0    0 -.14948937E+02 -.71975744E+01 0.96169356E+02 0.97590122E+02 0.10565837E+00 0.0000E+00 0.9000E+01
       13  1    4    4    0    0 -.94140316E+02 0.20410680E+02 0.95717240E+02 0.13579689E+03 0.10565837E+00 0.0000E+00 0.9000E+01
      -24  1    3    3    0    0 0.50286502E+02 0.29427586E+02 0.65887867E+02 0.11917694E+03 0.80419002E+02 0.0000E+00 0.9000E+01
#aMCatNLO 1  0  0  1  2 0.26032002D+03 0.00000000D+00  -5  7  0 0.00000000D+00 0.00000000D+00 0.00000000D+00 0.00000000D+00 0.00000000D+00
  <mgrwgt>
 0.7490212064D-02    3    2    0
 0.232629420694594D+03 0.000000000000000D+00 0.000000000000000D+00 0.232629420694594D+03
 0.232629420694594D+03 0.000000000000000D+00 0.000000000000000D+00 -.232629420694594D+03
 0.183075887801519D+03 0.588027807518794D+02 -.426406948233267D+02 0.147558696323783D+03
 0.245894801618829D+02 -.149487950037043D+02 -.719761172521837D+01 0.181485660045596D+02
 0.116386510575281D+03 -.941405104667215D+02 0.204107234987166D+02 -.653206437446387D+02
 0.141206962850506D+03 0.502865247185464D+02 0.294275830498285D+02 -.100386618583704D+03
 0.000000000000000D+00 0.000000000000000D+00 0.000000000000000D+00 -.000000000000000D+00
 0.321692568820285D+03 0.000000000000000D+00 0.000000000000000D+00 0.321692568820285D+03
 0.573896320454869D+03 0.000000000000000D+00 0.000000000000000D+00 -.573896320454869D+03
 0.210688963318516D+03 0.395723338440497D+00 -.127078313854590D+03 0.147558696323783D+03
 0.362470036200366D+02 -.239726578268467D+02 -.202431840412030D+02 0.181485660045596D+02
 0.153938579105319D+03 -.134237774070513D+03 -.375568855250874D+02 -.653206437446387D+02
 0.132259868183975D+03 0.972324728159447D+01 -.292137304927489D+02 -.100386618583704D+03
 0.362454475047307D+03 0.148091461277325D+03 0.214092113913629D+03 -.252203751634584D+03
0.287927489940D-04 0.000000000000D+00 0.000000000000D+00 0.366047644847D-09 0.000000000000D+00  7 2 -2 24 -13 13 -24 21 0 0.16225518D+00 0.78941251D-02 0.25694877D+05 0.25694877D+05 0.25694877D+05 0.11736297D+01  1  2  2  1  7  1        2 0.730140119048D-02 0.100000000000D+01
-.132984450957D-05 0.000000000000D+00 -.110571737442D-06 0.366047644847D-09 0.000000000000D+00  7 2 -2 24 -13 13 -24 21 2 0.16225518D+00 0.78941251D-02 0.25694877D+05 0.25694877D+05 0.25694877D+05 0.11736297D+01  1  2  3  1  7  1        2 -.464500443218D-03 0.100000000000D+01
0.187040180457D-05 0.000000000000D+00 0.000000000000D+00 0.366047644847D-09 0.000000000000D+00  7 2 -2 24 -13 13 -24 21 2 0.16225518D+00 0.78941251D-02 0.25694877D+05 0.25694877D+05 0.25694877D+05 0.11736297D+01  1  2 15  1  7  1        2 0.653311316448D-03 0.100000000000D+01
  </mgrwgt>
  </event>
  <event>
  8     66 0.26993063E-05 0.19238343E+03 0.75467711E-02 0.89348357E-01
        2 -1    0    0  501    0 0.00000000E+00 0.00000000E+00 0.22305100E+04 0.22305100E+04 0.32000000E+00 0.0000E+00 0.9000E+01
       -2 -1    0    0    0  501 0.00000000E+00 0.00000000E+00 -.23713800E+03 0.23713821E+03 0.32000000E+00 0.0000E+00 0.9000E+01
       25  2    1    2    0    0 0.13514843E+03 -.47769712E+02 0.21856442E+04 0.22108064E+04 0.30012855E+03 0.0000E+00 0.0000E+00
       23  2    1    2    0    0 -.13514843E+03 0.47769712E+02 -.19227224E+03 0.25684183E+03 0.91935128E+02 0.0000E+00 0.0000E+00
       24  1    3    3    0    0 0.56942998E+02 -.27431178E+02 0.19070164E+04 0.19097575E+04 0.80419002E+02 0.0000E+00 0.9000E+01
      -11  1    4    4    0    0 -.14220486E+03 0.60010644E+02 -.16384597E+03 0.22509776E+03 0.51099893E-03 0.0000E+00 0.9000E+01
       11  1    4    4    0    0 0.70564218E+01 -.12240931E+02 -.28426266E+02 0.31744072E+02 0.51099893E-03 0.0000E+00 0.9000E+01
      -24  1    3    3    0    0 0.78205436E+02 -.20338535E+02 0.27862785E+03 0.30104890E+03 0.80419002E+02 0.0000E+00 0.9000E+01
#aMCatNLO 1  0  0  1  1 0.75367128D+03 0.00000000D+00  -5  7  0 0.00000000D+00 0.00000000D+00 0.00000000D+00 0.00000000D+00 0.00000000D+00
  <mgrwgt>
 0.1349586263D-02    6    2    0
 0.727281899222535D+03 0.000000000000000D+00 0.000000000000000D+00 0.727281899222535D+03
 0.727281899222535D+03 0.000000000000000D+00 0.000000000000000D+00 -.727281899222535D+03
 0.626453532318579D+03 0.569429976534316D+02 -.274311775218430D+02 0.618046792498805D+03
 0.606414140161368D+03 -.142204855459446D+03 0.600106438670802D+02 -.586442333988660D+03
 0.928094914757400D+02 0.705642183660627D+01 -.122409314198659D+02 -.917276851164546D+02
 0.128886634489384D+03 0.782054359694086D+02 -.203385349253714D+02 0.601232266063106D+02
 0.000000000000000D+00 0.000000000000000D+00 0.000000000000000D+00 0.000000000000000D+00
 0.124628278854753D+04 0.000000000000000D+00 0.000000000000000D+00 0.124628278854753D+04
 0.115154323478881D+04 0.000000000000000D+00 0.000000000000000D+00 -.115154323478881D+04
 0.682422886144308D+03 -.243999889806359D+03 -.133101448660716D+03 0.618046792498805D+03
 0.742202389819273D+03 -.452284972178949D+03 -.488679885043241D+02 -.586442333988660D+03
 0.103179573923916D+03 -.380062857039456D+02 -.280638291273191D+02 -.917276851164546D+02
 0.110418653909115D+03 0.231832631659459D+02 -.396585061261153D+02 0.601232266063106D+02
 0.759602519539724D+03 0.711107884523308D+03 0.249691772418475D+03 0.947395537587244D+02
0.273893822431D-03 0.000000000000D+00 0.000000000000D+00 0.177939121515D-04 0.000000000000D+00  7 2 -2 24 -11 11 -24 21 0 0.34315540D+00 0.36482787D-01 0.37011385D+05 0.37011385D+05 0.37011385D+05 0.11589664D+01  1  2  2  1  7  1        2 0.137522284705D-02 0.100000000000D+01
0.175011221351D-04 0.000000000000D+00 -.105182439603D-05 0.177939121515D-04 0.000000000000D+00  7 2 -2 24 -11 11 -24 21 2 0.34315540D+00 0.36482787D-01 0.37011385D+05 0.37011385D+05 0.37011385D+05 0.11589664D+01  1  2  3  1  7  1        2 0.118031626531D-03 0.100000000000D+01
0.164622674440D-04 0.000000000000D+00 0.000000000000D+00 0.177939121515D-04 0.000000000000D+00  7 2 -2 24 -11 11 -24 21 2 0.34315540D+00 0.36482787D-01 0.37011385D+05 0.37011385D+05 0.37011385D+05 0.11589664D+01  1  2 15  1  7  1        2 0.111025349564D-03 0.100000000000D+01
0.106150861360D-03 0.000000000000D+00 -.655286158534D-04 0.177939121515D-04 0.000000000000D+00  7 2 -2 24 -11 11 -24 21 2 0.65872387D+00 0.36482787D-01 0.37011385D+05 0.37011385D+05 0.37011385D+05 0.11589664D+01  1  2  5  1  7  1        2 0.303827095319D-04 0.100000000000D+01
-.422770526124D-04 0.000000000000D+00 0.536999255283D-04 0.177939121515D-04 0.000000000000D+00  7 2 -2 24 -11 11 -24 21 2 0.34315540D+00 0.36482787D-01 0.37011385D+05 0.37011385D+05 0.37011385D+05 0.11589664D+01  1  2  6  1  7  1        2 -.285126247693D-03 0.100000000000D+01
0.112971447963D-04 0.000000000000D+00 -.463776525657D-05 0.177939121515D-04 0.000000000000D+00  7 21 -2 24 -11 11 -24 -2 2 0.65872387D+00 0.36482787D-01 0.37011385D+05 0.37011385D+05 0.37011385D+05 0.11589664D+01  1  2  5  3  7  1        2 0.499777483866D-07 0.100000000000D+01
  </mgrwgt>
  </event>
  <event>
  8     66 0.26993063E-05 0.15701720E+03 0.75467711E-02 0.10106190E+00
        2 -1    0    0  501    0 0.00000000E+00 0.00000000E+00 0.22335395E+04 0.22335395E+04 0.32000000E+00 0.0000E+00 0.9000E+01
       -2 -1    0    0    0  501 0.00000000E+00 0.00000000E+00 -.34780966E+02 0.34782438E+02 0.32000000E+00 0.0000E+00 0.9000E+01
       25  2    1    2    0    0 0.76305660E+02 -.15038374E+03 0.10888809E+04 0.11420435E+04 0.30027294E+03 0.0000E+00 0.0000E+00
       23  2    1    2    0    0 -.76305660E+02 0.15038374E+03 0.11098776E+04 0.11262785E+04 0.90758308E+02 0.0000E+00 0.0000E+00
       24  1    3    3    0    0 0.12636187E+03 -.25038462E+02 0.78917487E+03 0.80365319E+03 0.80419002E+02 0.0000E+00 0.9000E+01
      -13  1    4    4    0    0 -.68371785E+02 0.38015677E+02 0.50040186E+03 0.50647993E+03 0.10565837E+00 0.0000E+00 0.9000E+01
       13  1    4    4    0    0 -.79338748E+01 0.11236806E+03 0.60947575E+03 0.61979854E+03 0.10565837E+00 0.0000E+00 0.9000E+01
      -24  1    3    3    0    0 -.50056213E+02 -.12534528E+03 0.29970606E+03 0.33839031E+03 0.80419002E+02 0.0000E+00 0.9000E+01
#aMCatNLO 1  0  0  1  2 0.82508251D+02 0.00000000D+00  -5  7  0 0.00000000D+00 0.00000000D+00 0.00000000D+00 0.00000000D+00 0.00000000D+00
  <mgrwgt>
 0.5777497059D-03    9    2    0
 0.278722723700329D+03 0.000000000000000D+00 0.000000000000000D+00 0.278722723700329D+03
 0.278722723700329D+03 0.000000000000000D+00 0.000000000000000D+00 -.278722723700329D+03
 0.157395102935018D+03 0.126361871687035D+03 -.250384627703789D+02 0.413733638878927D+02
 0.871774585543087D+02 -.683718666143790D+02 0.380155765020363D+02 0.384709381075066D+02
 0.118061155938130D+03 -.793379355420906D+01 0.112368163124574D+03 0.353396006951952D+02
 0.194811729973201D+03 -.500562115184465D+02 -.125345276856231D+03 -.115183902690595D+03
 0.000000000000000D+00 -.000000000000000D+00 0.000000000000000D+00 0.000000000000000D+00
 0.374845180695153D+03 0.000000000000000D+00 0.000000000000000D+00 0.374845180695153D+03
 0.300042354704046D+03 0.000000000000000D+00 0.000000000000000D+00 -.300042354704046D+03
 0.177511949800186D+03 0.148445861571290D+03 -.359909337257418D+02 0.413733638878927D+02
 0.765611188293669D+02 -.575748378355841D+02 0.326608310632023D+02 0.384709381075066D+02
 0.110905745186460D+03 0.716443351198124D+01 0.104880254721852D+03 0.353396006951952D+02
 0.198539631548929D+03 -.241183657255097D+02 -.138209053020807D+03 -.115183902690595D+03
 0.111369090034257D+03 -.739170915221771D+02 0.366589009614944D+02 0.748028259911072D+02
0.389802025204D-05 0.000000000000D+00 0.000000000000D+00 0.314464106026D-06 0.000000000000D+00  7 2 -2 24 -13 13 -24 21 0 0.34362158D+00 0.53510328D-02 0.62462503D+05 0.62462503D+05 0.62462503D+05 0.11388900D+01  1  2  2  1  7  1        2 0.409473156524D-03 0.100000000000D+01
-.213425146763D-06 0.000000000000D+00 -.149694241402D-07 0.314464106026D-06 0.000000000000D+00  7 2 -2 24 -13 13 -24 21 2 0.34362158D+00 0.53510328D-02 0.62462503D+05 0.62462503D+05 0.62462503D+05 0.11388900D+01  1  2  3  1  7  1        2 -.290797361012D-04 0.100000000000D+01
0.249391557441D-06 0.000000000000D+00 0.000000000000D+00 0.314464106026D-06 0.000000000000D+00  7 2 -2 24 -13 13 -24 21 2 0.34362158D+00 0.53510328D-02 0.62462503D+05 0.62462503D+05 0.62462503D+05 0.11388900D+01  1  2 15  1  7  1        2 0.339802539029D-04 0.100000000000D+01
0.343810519914D-05 0.000000000000D+00 0.000000000000D+00 0.314464106026D-06 0.000000000000D+00  7 2 -2 24 -13 13 -24 21 2 0.47183035D+00 0.53510328D-02 0.86483418D+05 0.86483418D+05 0.86483418D+05 0.11269345D+01  1  2 12  1  7  1        2 0.148805979093D-03 0.100000000000D+01
-.379855983599D-05 0.000000000000D+00 0.000000000000D+00 0.314464106026D-06 0.000000000000D+00  7 2 -2 24 -13 13 -24 21 2 0.34362158D+00 0.53510328D-02 0.62462503D+05 0.62462503D+05 0.62462503D+05 0.11388900D+01  1  2  4  1  7  1        2 -.517563741998D-03 0.100000000000D+01
-.548053132205D-05 0.000000000000D+00 -.141617628481D-05 0.314464106026D-06 0.000000000000D+00  7 2 -2 24 -13 13 -24 21 2 0.47162169D+00 0.53510328D-02 0.62462503D+05 0.62462503D+05 0.62462503D+05 0.11388900D+01  1  2  5  1  7  1        2 -.245499737970D-03 0.100000000000D+01
0.570852356932D-05 0.000000000000D+00 0.134803389718D-05 0.314464106026D-06 0.000000000000D+00  7 2 -2 24 -13 13 -24 21 2 0.34362158D+00 0.53510328D-02 0.62462503D+05 0.62462503D+05 0.62462503D+05 0.11388900D+01  1  2  6  1  7  1        2 0.777801310863D-03 0.100000000000D+01
0.138317055082D-06 0.000000000000D+00 0.000000000000D+00 0.314464106026D-06 0.000000000000D+00  7 21 -2 24 -13 13 -24 -2 2 0.47183035D+00 0.53510328D-02 0.86483418D+05 0.86483418D+05 0.86483418D+05 0.11269345D+01  1  2 12  3  7  1        2 0.397383707376D-06 0.100000000000D+01
-.185765862606D-06 0.000000000000D+00 -.569163439793D-07 0.314464106026D-06 0.000000000000D+00  7 21 -2 24 -13 13 -24 -2 2 0.47162169D+00 0.53510328D-02 0.62462503D+05 0.62462503D+05 0.62462503D+05 0.11388900D+01  1  2  5  3  7  1        2 -.565162102855D-06 0.100000000000D+01
  </mgrwgt>
  </event>
  <event>
  8     66 0.26993063E-05 0.19043460E+03 0.75467711E-02 0.10587782E+00
        2 -1    0    0  501    0 0.00000000E+00 0.00000000E+00 0.68967714E+03 0.68967722E+03 0.32000000E+00 0.0000E+00 0.9000E+01
       -2 -1    0    0    0  501 0.00000000E+00 0.00000000E+00 -.10443626E+03 0.10443675E+03 0.32000000E+00 0.0000E+00 0.9000E+01
       25  2    1    2    0    0 -.31073867E+02 0.14417652E+03 0.25090993E+03 0.41823089E+03 0.30034784E+03 0.0000E+00 0.0000E+00
       23  2    1    2    0    0 0.31073867E+02 -.14417652E+03 0.33433095E+03 0.37588308E+03 0.88082031E+02 0.0000E+00 0.0000E+00
       24  1    3    3    0    0 -.30934039E+02 0.66990342E+02 0.28210443E+03 0.30248099E+03 0.80419002E+02 0.0000E+00 0.9000E+01
      -11  1    4    4    0    0 0.50432759E+02 -.98812729E+02 0.15992126E+03 0.19463358E+03 0.51099893E-03 0.0000E+00 0.9000E+01
       11  1    4    4    0    0 -.19358892E+02 -.45363794E+02 0.17440969E+03 0.18124950E+03 0.51099893E-03 0.0000E+00 0.9000E+01
      -24  1    3    3    0    0 -.13982773E+00 0.77186182E+02 -.31194502E+02 0.11574990E+03 0.80419002E+02 0.0000E+00 0.9000E+01
#aMCatNLO 1  0  0  1  1 0.33532150D+02 0.00000000D+00  -5  7  0 0.00000000D+00 0.00000000D+00 0.00000000D+00 0.00000000D+00 0.00000000D+00
  <mgrwgt>
 0.6174908620D-03    4    2    0
 0.268379438352117D+03 0.000000000000000D+00 0.000000000000000D+00 0.268379438352117D+03
 0.268379438352117D+03 0.000000000000000D+00 0.000000000000000D+00 -.268379438352117D+03
 0.139923773689089D+03 -.309340393617357D+02 0.669903420099718D+02 0.875604121460069D+02
 0.113586903824650D+03 0.504327586790512D+02 -.988127294024869D+02 0.243837257309402D+02
 0.779886047099720D+02 -.193588915886409D+02 -.453637941557655D+02 0.604117700523735D+02
 0.205259594480523D+03 -.139827728674579D+00 0.771861815482806D+02 -.172355907929321D+03
 0.000000000000000D+00 0.000000000000000D+00 0.000000000000000D+00 -.000000000000000D+00
 0.273276337941944D+03 0.000000000000000D+00 0.000000000000000D+00 0.273276337941944D+03
 0.333173323660057D+03 0.000000000000000D+00 0.000000000000000D+00 -.333173323660057D+03
 0.136925531159714D+03 -.338903985401861D+02 0.588727461615992D+02 0.875604121460069D+02
 0.118530478132148D+03 0.479540731970681D+02 -.105618724805425D+03 0.243837257309402D+02
 0.812173420181082D+02 -.210589860213522D+02 -.500319277199870D+02 0.604117700523735D+02
 0.201131907874055D+03 -.447951443544214D+01 0.652702333607673D+02 -.172355907929321D+03
 0.686444024179759D+02 0.114748257999123D+02 0.315076730030457D+02 -.598969857181129D+02
0.484565497476D-05 0.000000000000D+00 0.000000000000D+00 0.836592483334D-07 0.000000000000D+00  7 2 -2 24 -11 11 -24 21 0 0.10610422D+00 0.16067160D-01 0.36265336D+05 0.36265336D+05 0.36265336D+05 0.11597697D+01  1  2  2  1  7  1        2 0.709411054955D-03 0.100000000000D+01
-.230674285293D-06 0.000000000000D+00 -.186085909933D-07 0.836592483334D-07 0.000000000000D+00  7 2 -2 24 -11 11 -24 21 2 0.10610422D+00 0.16067160D-01 0.36265336D+05 0.36265336D+05 0.36265336D+05 0.11597697D+01  1  2  3  1  7  1        2 -.454242943445D-04 0.100000000000D+01
0.309394802681D-06 0.000000000000D+00 0.000000000000D+00 0.836592483334D-07 0.000000000000D+00  7 2 -2 24 -11 11 -24 21 2 0.10610422D+00 0.16067160D-01 0.36265336D+05 0.36265336D+05 0.36265336D+05 0.11597697D+01  1  2 15  1  7  1        2 0.609259093088D-04 0.100000000000D+01
-.545510923930D-06 0.000000000000D+00 0.000000000000D+00 0.836592483334D-07 0.000000000000D+00  7 2 -2 24 -11 11 -24 21 2 0.10610422D+00 0.16067160D-01 0.36265336D+05 0.36265336D+05 0.36265336D+05 0.11597697D+01  1  2  4  1  7  1        2 -.107421807963D-03 0.100000000000D+01
  </mgrwgt>
  </event>
  <event>
  9     66 0.26993063E-05 0.65341129E+03 0.75467711E-02 0.90694815E-01
        2 -1    0    0  502    0 0.00000000E+00 0.00000000E+00 0.58628482E+03 0.58628490E+03 0.32000000E+00 0.0000E+00 0.9000E+01
       -2 -1    0    0    0  501 0.00000000E+00 0.00000000E+00 -.92010883E+03 0.92010888E+03 0.32000000E+00 0.0000E+00 0.9000E+01
       25  2    1    2    0    0 0.29079813E+03 -.61967614E+03 -.62311117E+02 0.74969303E+03 0.29932407E+03 0.0000E+00 0.0000E+00
       23  2    1    2    0    0 -.27804436E+03 0.49673283E+03 -.18342794E+03 0.60492053E+03 0.90724169E+02 0.0000E+00 0.0000E+00
       24  1    3    3    0    0 0.13073653E+02 -.29660895E+03 -.72474404E+02 0.31601827E+03 0.80419002E+02 0.0000E+00 0.9000E+01
      -13  1    4    4    0    0 -.92522570E+02 0.12126506E+03 -.14091635E+02 0.15318037E+03 0.10565837E+00 0.0000E+00 0.9000E+01
       13  1    4    4    0    0 -.18552179E+03 0.37546777E+03 -.16933631E+03 0.45174016E+03 0.10565837E+00 0.0000E+00 0.9000E+01
      -24  1    3    3    0    0 0.27772447E+03 -.32306719E+03 0.10163287E+02 0.43367476E+03 0.80419002E+02 0.0000E+00 0.9000E+01
       21  1    1    2  502  501 -.12753771E+02 0.12294331E+03 -.88084954E+02 0.15178022E+03 0.75000000E+00 0.0000E+00 0.9000E+01
#aMCatNLO 2  0  0  1  2 0.12360305D+03 0.00000000D+00  -5  7  0 0.00000000D+00 0.00000000D+00 0.00000000D+00 0.00000000D+00 0.00000000D+00
  <mgrwgt>
 0.2520144736D-03    1    2    0
 0.663195390032971D+03 0.000000000000000D+00 0.000000000000000D+00 0.663195390032971D+03
 0.663195390032971D+03 0.000000000000000D+00 0.000000000000000D+00 -.663195390032971D+03
 0.281696781582910D+03 0.102447900074756D+02 -.269339380711474D+03 -.154013984904440D+02
 0.165958288510991D+03 -.940533753188187D+02 0.136022534670631D+03 0.139278921022408D+02
 0.466565891134070D+03 -.189814018289713D+03 0.416842978484512D+03 -.888611305273702D+02
 0.412169818837970D+03 0.273622603601056D+03 -.283526132443669D+03 0.903346369155734D+02
 0.000000000000000D+00 -.000000000000000D+00 0.000000000000000D+00 -.000000000000000D+00
 0.704327636899552D+03 0.000000000000000D+00 0.000000000000000D+00 0.704327636899552D+03
 0.765899832500385D+03 0.000000000000000D+00 0.000000000000000D+00 -.765899832500385D+03
 0.307980856855507D+03 0.130736534938388D+02 -.296608949197328D+03 -.154013984904440D+02
 0.153165010661302D+03 -.925224435184083D+02 0.121264717695824D+03 0.139278921022408D+02
 0.428124963107755D+03 -.185521913376509D+03 0.375468112060842D+03 -.888611305273702D+02
 0.442866630917257D+03 0.277724474241136D+03 -.323067185901705D+03 0.903346369155734D+02
 0.138090007858116D+03 -.127537708400573D+02 0.122943305342368D+03 -.615721956008333D+02
0.104891021233D-03 0.000000000000D+00 0.000000000000D+00 0.300770828127D-05 0.121939753119D-08  7 2 -2 24 -13 13 -24 21 2 0.90197548D-01 0.14155502D+00 0.51558586D+06 0.51558586D+06 0.51558586D+06 0.10675695D+01  1  2  1  1  7  1        2 0.252014473571D-03 0.100000000000D+01
  </mgrwgt>
  </event>
  <event>
  8     66 0.26993063E-05 0.50559846E+03 0.75467711E-02 0.94398261E-01
        2 -1    0    0  501    0 0.00000000E+00 0.00000000E+00 0.37131204E+03 0.37131218E+03 0.32000000E+00 0.0000E+00 0.9000E+01
       -2 -1    0    0    0  501 0.00000000E+00 0.00000000E+00 -.98445240E+03 0.98445245E+03 0.32000000E+00 0.0000E+00 0.9000E+01
       25  2    1    2    0    0 0.26876870E+03 -.39555228E+03 0.98979017E+01 0.56477166E+03 0.30028461E+03 0.0000E+00 0.0000E+00
       23  2    1    2    0    0 -.26876870E+03 0.39555228E+03 -.62303826E+03 0.79099296E+03 0.93781539E+02 0.0000E+00 0.0000E+00
       24  1    3    3    0    0 0.24485050E+03 -.33728244E+03 -.76099405E+02 0.43124187E+03 0.80419002E+02 0.0000E+00 0.9000E+01
      -11  1    4    4    0    0 -.24380655E+03 0.30405986E+03 -.46549560E+03 0.60710805E+03 0.51099893E-03 0.0000E+00 0.9000E+01
       11  1    4    4    0    0 -.24962151E+02 0.91492419E+02 -.15754266E+03 0.18388492E+03 0.51099893E-03 0.0000E+00 0.9000E+01
      -24  1    3    3    0    0 0.23918196E+02 -.58269839E+02 0.85997307E+02 0.13352980E+03 0.80419002E+02 0.0000E+00 0.9000E+01
#aMCatNLO 1  0  0  2  1 0.91513828D+01 0.00000000D+00  -5  7  0 0.00000000D+00 0.00000000D+00 0.00000000D+00 0.00000000D+00 0.00000000D+00
  <mgrwgt>
 0.6312359607D-03    8    2    0
 0.604598343908168D+03 0.000000000000000D+00 0.000000000000000D+00 0.604598343908168D+03
 0.604598343908168D+03 0.000000000000000D+00 0.000000000000000D+00 -.604598343908168D+03
 0.444925841074413D+03 0.244850503751267D+03 -.337282438222235D+03 0.133343825432671D+03
 0.444660066853214D+03 -.243806548487879D+03 0.304059858497814D+03 -.214076024857109D+03
 0.126289545387971D+03 -.249621510878484D+02 0.914924186892369D+02 -.833971079220446D+02
 0.193321234500738D+03 0.239181958244602D+02 -.582698389648160D+02 0.164129307346482D+03
 0.000000000000000D+00 -.000000000000000D+00 0.000000000000000D+00 0.000000000000000D+00
 0.626969606283754D+03 0.000000000000000D+00 0.000000000000000D+00 0.626969606283754D+03
 0.605552269351720D+03 0.000000000000000D+00 0.000000000000000D+00 -.605552269351720D+03
 0.447753872303751D+03 0.247854497637659D+03 -.338827222088779D+03 0.133343825432671D+03
 0.441979522954632D+03 -.240822880474257D+03 0.302525527076087D+03 -.214076024857109D+03
 0.125808497179937D+03 -.241138054076497D+02 0.910561625683574D+02 -.833971079220446D+02
 0.193689424404577D+03 0.252205415996549D+02 -.589395616134858D+02 0.164129307346482D+03
 0.232905587925776D+02 -.813835335540732D+01 0.418509405782008D+01 0.214173369320334D+02
0.234674121125D-03 0.000000000000D+00 0.000000000000D+00 0.119241750089D-05 0.000000000000D+00  7 2 -2 24 -11 11 -24 21 0 0.57124944D-01 0.15145423D+00 0.25562981D+06 0.25562981D+06 0.25562981D+06 0.10897323D+01  1  2  2  2  7  2       -2 0.708161847036D-03 0.100000000000D+01
-.125305610349D-04 0.000000000000D+00 -.901210416235D-06 0.119241750089D-05 0.000000000000D+00  7 2 -2 24 -11 11 -24 21 2 0.57124944D-01 0.15145423D+00 0.25562981D+06 0.25562981D+06 0.25562981D+06 0.10897323D+01  1  2  3  2  7  2       -2 -.449032179240D-04 0.100000000000D+01
0.147422585332D-04 0.000000000000D+00 0.000000000000D+00 0.119241750089D-05 0.000000000000D+00  7 2 -2 24 -11 11 -24 21 2 0.57124944D-01 0.15145423D+00 0.25562981D+06 0.25562981D+06 0.25562981D+06 0.10897323D+01  1  2 15  2  7  2       -2 0.528288275175D-04 0.100000000000D+01
-.226462608360D-04 0.000000000000D+00 0.000000000000D+00 0.119241750089D-05 0.000000000000D+00  7 2 -2 24 -11 11 -24 21 2 0.57124944D-01 0.15145423D+00 0.25562981D+06 0.25562981D+06 0.25562981D+06 0.10897323D+01  1  2  4  2  7  2       -2 -.811527897796D-04 0.100000000000D+01
0.118147018565D-04 0.000000000000D+00 0.000000000000D+00 0.119241750089D-05 0.000000000000D+00  7 2 -2 24 -11 11 -24 21 2 0.57124944D-01 0.15660063D+00 0.25562981D+06 0.25562981D+06 0.25562981D+06 0.10897323D+01  1  2  5  2  7  2       -2 0.385801086648D-04 0.100000000000D+01
-.118081088576D-04 0.000000000000D+00 0.000000000000D+00 0.119241750089D-05 0.000000000000D+00  7 2 -2 24 -11 11 -24 21 2 0.57124944D-01 0.15145423D+00 0.25562981D+06 0.25562981D+06 0.25562981D+06 0.10897323D+01  1  2  6  2  7  2       -2 -.423143132882D-04 0.100000000000D+01
0.807268338252D-08 0.000000000000D+00 0.000000000000D+00 0.119241750089D-05 0.901289893962D-07  7 2 -2 24 -11 11 -24 21 2 0.59238673D-01 0.15169319D+00 0.26025513D+06 0.26025513D+06 0.26025513D+06 0.10891481D+01  1  2 11  2  7  2       -2 0.276216083780D-07 0.100000000000D+01
0.269747935827D-09 0.000000000000D+00 0.000000000000D+00 0.119241750089D-05 0.269679570527D-10  7 2 21 24 -11 11 -24 2 2 0.59238673D-01 0.15169319D+00 0.26025513D+06 0.26025513D+06 0.26025513D+06 0.10891481D+01  1  2 11  4  7  2       -2 0.787683803926D-08 0.100000000000D+01
  </mgrwgt>
  </event>
  <event>
  8     66 0.26993063E-05 0.43407516E+03 0.75467711E-02 0.89950059E-01
        2 -1    0    0  501    0 0.00000000E+00 0.00000000E+00 0.21021784E+04 0.21021784E+04 0.32000000E+00 0.0000E+00 0.9000E+01
       -2 -1    0    0    0  501 0.00000000E+00 0.00000000E+00 -.15200419E+03 0.15200453E+03 0.32000000E+00 0.0000E+00 0.9000E+01
       25  2    1    2    0    0 0.29336928E+03 -.28578915E+03 0.39707044E+03 0.64535617E+03 0.30179245E+03 0.0000E+00 0.0000E+00
       23  2    1    2    0    0 -.29336928E+03 0.28578915E+03 0.15531037E+04 0.16088268E+04 0.91931155E+02 0.0000E+00 0.0000E+00
       24  1    3    3    0    0 0.24187104E+03 -.19259113E+03 0.12636842E+03 0.34355369E+03 0.80419002E+02 0.0000E+00 0.9000E+01
      -11  1    4    4    0    0 -.14845191E+03 0.97341389E+02 0.78271165E+03 0.80259008E+03 0.51099893E-03 0.0000E+00 0.9000E+01
       11  1    4    4    0    0 -.14491736E+03 0.18844776E+03 0.77039210E+03 0.80623668E+03 0.51099893E-03 0.0000E+00 0.9000E+01
      -24  1    3    3    0    0 0.51498234E+02 -.93198021E+02 0.27070202E+03 0.30180248E+03 0.80419002E+02 0.0000E+00 0.9000E+01
#aMCatNLO 1  0  0  2  1 0.55576174D+03 0.00000000D+00  -5  7  0 0.00000000D+00 0.00000000D+00 0.00000000D+00 0.00000000D+00 0.00000000D+00
  <mgrwgt>
 0.1108476015D-02    3    2    0
 0.565278988664129D+03 0.000000000000000D+00 0.000000000000000D+00 0.565278988664129D+03
 0.565278988664129D+03 0.000000000000000D+00 0.000000000000000D+00 -.565278988664129D+03
 0.467019329488665D+03 0.241871041374268D+03 -.192591126939977D+03 -.340656565077188D+03
 0.250107310794702D+03 -.148451914382503D+03 0.973413890594691D+02 0.176182717668620D+03
 0.278628949074869D+03 -.144917360830177D+03 0.188447758870170D+03 0.145328909613306D+03
 0.134802387970022D+03 0.514982338384126D+02 -.931980209896624D+02 0.191449377952620D+02
 0.000000000000000D+00 0.000000000000000D+00 -.000000000000000D+00 0.000000000000000D+00
 0.101431515828902D+04 0.000000000000000D+00 0.000000000000000D+00 0.101431515828902D+04
 0.830751579496034D+03 0.000000000000000D+00 0.000000000000000D+00 -.830751579496034D+03
 0.394036441003979D+03 0.180961487621773D+03 -.188296368480255D+01 -.340656565077188D+03
 0.346478740431029D+03 -.190653350573252D+03 0.229474328587674D+03 0.176182717668620D+03
 0.420394703699477D+03 -.194365050761532D+03 0.343268760553077D+03 0.145328909613306D+03
 0.988648764827342D+02 0.349690271457492D+02 -.414449797306155D+02 0.191449377952620D+02
 0.585291976167832D+03 0.169087886567262D+03 -.529415145725333D+03 0.183563578792983D+03
0.920583676936D-04 0.000000000000D+00 0.000000000000D+00 0.340757341473D-06 0.000000000000D+00  7 2 -2 24 -11 11 -24 21 0 0.32341209D+00 0.23385288D-01 0.18842124D+06 0.18842124D+06 0.18842124D+06 0.10998201D+01  1  2  2  2  7  2       -2 0.109259648833D-02 0.100000000000D+01
-.468062854370D-05 0.000000000000D+00 -.353528371468D-06 0.340757341473D-06 0.000000000000D+00  7 2 -2 24 -11 11 -24 21 2 0.32341209D+00 0.23385288D-01 0.18842124D+06 0.18842124D+06 0.18842124D+06 0.10998201D+01  1  2  3  2  7  2       -2 -.671960959563D-04 0.100000000000D+01
0.578673691186D-05 0.000000000000D+00 0.000000000000D+00 0.340757341473D-06 0.000000000000D+00  7 2 -2 24 -11 11 -24 21 2 0.32341209D+00 0.23385288D-01 0.18842124D+06 0.18842124D+06 0.18842124D+06 0.10998201D+01  1  2 15  2  7  2       -2 0.830756222530D-04 0.100000000000D+01
  </mgrwgt>
  </event>
  <event>
  8     66 0.26993063E-05 0.10711999E+03 0.75467711E-02 0.10001108E+00
        2 -1    0    0  501    0 0.00000000E+00 0.00000000E+00 0.14432869E+04 0.14432869E+04 0.32000000E+00 0.0000E+00 0.9000E+01
       -2 -1    0    0    0  501 0.00000000E+00 0.00000000E+00 -.55982069E+02 0.55982984E+02 0.32000000E+00 0.0000E+00 0.9000E+01
       25  2    1    2    0    0 -.18956135E+03 0.29448049E+02 0.86538382E+03 0.93582119E+03 0.30011906E+03 0.0000E+00 0.0000E+00
       23  2    1    2    0    0 0.18956135E+03 -.29448049E+02 0.52192101E+03 0.56344873E+03 0.90951834E+02 0.0000E+00 0.0000E+00
       24  1    3    3    0    0 -.18210302E+03 0.73446368E+02 0.78661060E+03 0.81472654E+03 0.80419002E+02 0.0000E+00 0.9000E+01
      -11  1    4    4    0    0 0.16066572E+03 -.29146206E+02 0.31782727E+03 0.35731939E+03 0.51099893E-03 0.0000E+00 0.9000E+01
       11  1    4    4    0    0 0.28895631E+02 -.30184328E+00 0.20409374E+03 0.20612934E+03 0.51099893E-03 0.0000E+00 0.9000E+01
      -24  1    3    3    0    0 -.74583333E+01 -.43998319E+02 0.78773219E+02 0.12109465E+03 0.80419002E+02 0.0000E+00 0.9000E+01
#aMCatNLO 1  0  0  1  2 0.12807670D+03 0.00000000D+00  -5  7  0 0.00000000D+00 0.00000000D+00 0.00000000D+00 0.00000000D+00 0.00000000D+00
  <mgrwgt>
 0.1252136549D-02    9    2    0
 0.284251472322184D+03 0.000000000000000D+00 0.000000000000000D+00 0.284251472322184D+03
 0.284251472322184D+03 0.000000000000000D+00 0.000000000000000D+00 -.284251472322184D+03
 0.229068829354831D+03 -.182103017241586D+03 0.734463679262169D+02 0.863101082004866D+02
 0.166744800337042D+03 0.160665719834271D+03 -.291462059967116D+02 -.337765241783834D+02
 0.455640242496308D+02 0.288956307122706D+02 -.301843284345036D+00 0.352282801480958D+02
 0.127125290702865D+03 -.745833330495564D+01 -.439983186451603D+02 -.877618641701990D+02
 0.000000000000000D+00 0.000000000000000D+00 -.000000000000000D+00 0.000000000000000D+00
 0.366626528563672D+03 0.000000000000000D+00 0.000000000000000D+00 0.366626528563672D+03
 0.345872282113681D+03 0.000000000000000D+00 0.000000000000000D+00 -.345872282113681D+03
 0.276262004032921D+03 -.238300950529369D+03 0.749446536928089D+02 0.863101082004866D+02
 0.134565807509328D+03 0.127156912692755D+03 -.282528320617928D+02 -.337765241783834D+02
 0.401966746021627D+02 0.193581678971161D+02 -.475662326931487D-01 0.352282801480958D+02
 0.131726952942761D+03 -.362453380920307D+02 -.432308320667051D+02 -.877618641701990D+02
 0.129747371590180D+03 0.128031208031529D+03 -.341342333161789D+01 0.207542464499909D+02
0.688544382281D-05 0.000000000000D+00 0.000000000000D+00 0.148834199382D-05 0.000000000000D+00  7 2 -2 24 -11 11 -24 21 0 0.22204421D+00 0.86126991D-02 0.61589054D+05 0.61589054D+05 0.61589054D+05 0.11394162D+01  1  2  2  1  7  1        2 0.935355984227D-03 0.100000000000D+01
-.373955185833D-06 0.000000000000D+00 -.264419172586D-07 0.148834199382D-05 0.000000000000D+00  7 2 -2 24 -11 11 -24 21 2 0.22204421D+00 0.86126991D-02 0.61589054D+05 0.61589054D+05 0.61589054D+05 0.11394162D+01  1  2  3  1  7  1        2 -.659522101415D-04 0.100000000000D+01
0.437949139804D-06 0.000000000000D+00 0.000000000000D+00 0.148834199382D-05 0.000000000000D+00  7 2 -2 24 -11 11 -24 21 2 0.22204421D+00 0.86126991D-02 0.61589054D+05 0.61589054D+05 0.61589054D+05 0.11394162D+01  1  2 15  1  7  1        2 0.772384360314D-04 0.100000000000D+01
0.200728406087D-05 0.000000000000D+00 0.000000000000D+00 0.148834199382D-05 0.000000000000D+00  7 2 -2 24 -11 11 -24 21 2 0.30457292D+00 0.86126991D-02 0.10187579D+06 0.10187579D+06 0.10187579D+06 0.11210603D+01  1  2 12  1  7  1        2 0.176223226081D-03 0.100000000000D+01
-.309645123202D-05 0.000000000000D+00 0.000000000000D+00 0.148834199382D-05 0.000000000000D+00  7 2 -2 24 -11 11 -24 21 2 0.22204421D+00 0.86126991D-02 0.61589054D+05 0.61589054D+05 0.61589054D+05 0.11394162D+01  1  2  4  1  7  1        2 -.546102340824D-03 0.100000000000D+01
-.587768710254D-05 0.000000000000D+00 -.270971245889D-05 0.148834199382D-05 0.000000000000D+00  7 2 -2 24 -11 11 -24 21 2 0.31765512D+00 0.86126991D-02 0.61589054D+05 0.61589054D+05 0.61589054D+05 0.11394162D+01  1  2  5  1  7  1        2 -.484715220179D-03 0.100000000000D+01
0.658612121504D-05 0.000000000000D+00 0.254480363943D-05 0.148834199382D-05 0.000000000000D+00  7 2 -2 24 -11 11 -24 21 2 0.22204421D+00 0.86126991D-02 0.61589054D+05 0.61589054D+05 0.61589054D+05 0.11394162D+01  1  2  6  1  7  1        2 0.116155429005D-02 0.100000000000D+01
0.805624575455D-07 0.000000000000D+00 0.000000000000D+00 0.148834199382D-05 0.000000000000D+00  7 21 -2 24 -11 11 -24 -2 2 0.30457292D+00 0.86126991D-02 0.10187579D+06 0.10187579D+06 0.10187579D+06 0.11210603D+01  1  2 12  3  7  1        2 0.152071594945D-05 0.100000000000D+01
-.178920340351D-06 0.000000000000D+00 -.119003509786D-06 0.148834199382D-05 0.000000000000D+00  7 21 -2 24 -11 11 -24 -2 2 0.31765512D+00 0.86126991D-02 0.61589054D+05 0.61589054D+05 0.61589054D+05 0.11394162D+01  1  2  5  3  7  1        2 -.298633173356D-05 0.100000000000D+01
  </mgrwgt>
  </event>
  <event>
  8     66 0.26993063E-05 0.15588397E+03 0.75467711E-02 0.80690134E-01
        2 -1    0    0  501    0 0.00000000E+00 0.00000000E+00 0.13682949E+04 0.13682950E+04 0.32000000E+00 0.0000E+00 0.9000E+01
       -2 -1    0    0    0  501 0.00000000E+00 0.00000000E+00 -.46607157E+03 0.46607168E+03 0.32000000E+00 0.0000E+00 0.9000E+01
       25  2    1    2    0    0 0.22856170E+01 0.40071433E+02 0.13459580E+04 0.13795350E+04 0.29983800E+03 0.0000E+00 0.0000E+00
       23  2    1    2    0    0 -.22856170E+01 -.40071433E+02 -.44373466E+03 0.45483167E+03 0.91435500E+02 0.0000E+00 0.0000E+00
       24  1    3    3    0    0 0.35764977E+02 0.84821579E+02 0.24081121E+03 0.27005756E+03 0.80419002E+02 0.0000E+00 0.9000E+01
      -13  1    4    4    0    0 -.21912898E+02 -.59851509E+02 -.21048667E+03 0.21992505E+03 0.10565837E+00 0.0000E+00 0.9000E+01
       13  1    4    4    0    0 0.19627281E+02 0.19780075E+02 -.23324800E+03 0.23490662E+03 0.10565837E+00 0.0000E+00 0.9000E+01
      -24  1    3    3    0    0 -.33479360E+02 -.44750145E+02 0.11051468E+04 0.11094774E+04 0.80419002E+02 0.0000E+00 0.9000E+01
#aMCatNLO 1  0  0  1  1 0.21016672D+04 0.00000000D+00  -5  7  0 0.00000000D+00 0.00000000D+00 0.00000000D+00 0.00000000D+00 0.00000000D+00
  <mgrwgt>
 0.2377628131D-02    3    2    0
 0.798575926699354D+03 0.000000000000000D+00 0.000000000000000D+00 0.798575926699354D+03
 0.798575926699354D+03 0.000000000000000D+00 0.000000000000000D+00 -.798575926699354D+03
 0.174134407302942D+03 0.357649770132397D+02 0.848215785354271D+02 0.124023151412860D+03
 0.371491980087922D+03 -.219129532030495D+02 -.598516148284500D+02 -.365983466776838D+03
 0.401556513975365D+03 0.196273362193907D+02 0.197801815364377D+02 -.400588499594490D+03
 0.649968952032479D+03 -.334793600295810D+02 -.447501452434147D+02 0.642548814958468D+03
 0.000000000000000D+00 0.000000000000000D+00 0.000000000000000D+00 -.000000000000000D+00
 0.198427448610838D+04 0.000000000000000D+00 0.000000000000000D+00 0.198427448610838D+04
 0.298177780281735D+04 0.000000000000000D+00 0.000000000000000D+00 -.298177780281735D+04
 0.169727914710653D+03 0.627563878472468D+01 -.831818691129422D+02 0.124023151412860D+03
 0.696536909700918D+03 -.113506196057855D+03 -.581666667497964D+03 -.365983466776838D+03
 0.633567137667013D+03 -.691439815942861D+02 -.485958106973735D+03 -.400588499594490D+03
 0.113984589338611D+04 -.186972348252000D+03 -.919213689029607D+03 0.642548814958468D+03
 0.232637443346104D+04 0.363346887119416D+03 0.207002033261425D+04 -.997503316708966D+03
0.483763912303D-03 0.000000000000D+00 0.000000000000D+00 0.157648393222D-04 0.000000000000D+00  7 2 -2 24 -13 13 -24 21 0 0.21050693D+00 0.71703330D-01 0.24299812D+05 0.24299812D+05 0.24299812D+05 0.11759236D+01  1  2  2  1  7  1        2 0.189023471864D-02 0.100000000000D+01
0.603403369171D-04 0.000000000000D+00 -.185778080121D-05 0.157648393222D-04 0.000000000000D+00  7 2 -2 24 -13 13 -24 21 2 0.21050693D+00 0.71703330D-01 0.24299812D+05 0.24299812D+05 0.24299812D+05 0.11759236D+01  1  2  3  1  7  1        2 0.326022964280D-03 0.100000000000D+01
0.298664458535D-04 0.000000000000D+00 0.000000000000D+00 0.157648393222D-04 0.000000000000D+00  7 2 -2 24 -13 13 -24 21 2 0.21050693D+00 0.71703330D-01 0.24299812D+05 0.24299812D+05 0.24299812D+05 0.11759236D+01  1  2 15  1  7  1        2 0.161370448147D-03 0.100000000000D+01
  </mgrwgt>
  </event>
  <event>
  8     66 0.26993063E-05 0.90393729E+03 0.75467711E-02 0.82058881E-01
        2 -1    0    0  501    0 0.00000000E+00 0.00000000E+00 0.27890957E+04 0.27890957E+04 0.32000000E+00 0.0000E+00 0.9000E+01
       -2 -1    0    0    0  501 0.00000000E+00 0.00000000E+00 -.10305074E+04 0.10305075E+04 0.32000000E+00 0.0000E+00 0.9000E+01
       25  2    1    2    0    0 0.96921986E+03 0.54367402E+03 -.53499433E+03 0.12693418E+04 0.30006840E+03 0.0000E+00 0.0000E+00
       23  2    1    2    0    0 -.96921986E+03 -.54367402E+03 0.22935826E+04 0.25502614E+04 0.91342155E+02 0.0000E+00 0.0000E+00
       24  1    3    3    0    0 0.37965072E+03 0.11126220E+03 -.27807011E+03 0.49020827E+03 0.80419002E+02 0.0000E+00 0.9000E+01
      -11  1    4    4    0    0 -.17776107E+03 -.62449068E+02 0.41221112E+03 0.45322941E+03 0.51099893E-03 0.0000E+00 0.9000E+01
       11  1    4    4    0    0 -.79145879E+03 -.48122495E+03 0.18813715E+04 0.20970320E+04 0.51099893E-03 0.0000E+00 0.9000E+01
      -24  1    3    3    0    0 0.58956914E+03 0.43241182E+03 -.25692421E+03 0.77913351E+03 0.80419002E+02 0.0000E+00 0.9000E+01
#aMCatNLO 1  0  0  1  2 0.11123538D+04 0.00000000D+00  -5  7  0 0.00000000D+00 0.00000000D+00 0.00000000D+00 0.00000000D+00 0.00000000D+00
  <mgrwgt>
 0.5828522914D-03    9    2    0
 0.169534183070738D+04 0.000000000000000D+00 0.000000000000000D+00 0.169534183070738D+04
 0.169534183070738D+04 0.000000000000000D+00 0.000000000000000D+00 -.169534183070738D+04
 0.696441238421397D+03 0.379650717360862D+03 0.111262197468909D+03 -.567493822734072D+03
 0.296768122600680D+03 -.177761071878245D+03 -.624490684748231D+02 0.229286793695705D+03
 0.138652633597953D+04 -.791458786091589D+03 -.481224947880718D+03 0.103173195153608D+04
 0.101094796441314D+04 0.589569140608971D+03 0.432411818886632D+03 -.693524922497716D+03
 0.000000000000000D+00 0.000000000000000D+00 -.000000000000000D+00 0.000000000000000D+00
 0.264488828645213D+04 0.000000000000000D+00 0.000000000000000D+00 0.264488828645213D+04
 0.214366001203035D+04 0.000000000000000D+00 0.000000000000000D+00 -.214366001203035D+04
 0.657422823393648D+03 0.209295298085042D+03 0.244711650974506D+03 -.567493822734072D+03
 0.345603880973443D+03 -.258590126350088D+03 0.869100048933319D+00 0.229286793695705D+03
 0.156627604063091D+04 -.116300708336431D+04 -.190169239569491D+03 0.103173195153608D+04
 0.999179661917997D+03 0.336636705041942D+03 0.630548722565697D+03 -.693524922497716D+03
 0.122006589156648D+04 0.875665206587413D+03 -.685960234019645D+03 0.501228274421780D+03
0.813792528335D-02 0.000000000000D+00 0.000000000000D+00 0.961175224143D-04 0.000000000000D+00  7 2 -2 24 -11 11 -24 21 0 0.42909165D+00 0.15853961D+00 0.12700712D+07 0.12700712D+07 0.12700712D+07 0.10410216D+01  1  2  2  1  7  1        2 0.550062709295D-03 0.100000000000D+01
-.360446225245D-03 0.000000000000D+00 -.312517758530D-04 0.961175224143D-04 0.000000000000D+00  7 2 -2 24 -11 11 -24 21 2 0.42909165D+00 0.15853961D+00 0.12700712D+07 0.12700712D+07 0.12700712D+07 0.10410216D+01  1  2  3  1  7  1        2 -.264033162885D-04 0.100000000000D+01
0.492188312195D-03 0.000000000000D+00 0.000000000000D+00 0.961175224143D-04 0.000000000000D+00  7 2 -2 24 -11 11 -24 21 2 0.42909165D+00 0.15853961D+00 0.12700712D+07 0.12700712D+07 0.12700712D+07 0.10410216D+01  1  2 15  1  7  1        2 0.360536545266D-04 0.100000000000D+01
0.645654610662D-06 0.000000000000D+00 0.000000000000D+00 0.961175224143D-04 0.000000000000D+00  7 2 -2 24 -11 11 -24 21 2 0.70050144D+00 0.15853961D+00 0.32410586D+07 0.32410586D+07 0.32410586D+07 0.10154715D+01  1  2 12  1  7  1        2 0.168488490709D-08 0.100000000000D+01
-.281130704496D-02 0.000000000000D+00 0.000000000000D+00 0.961175224143D-04 0.000000000000D+00  7 2 -2 24 -11 11 -24 21 2 0.42909165D+00 0.15853961D+00 0.12700712D+07 0.12700712D+07 0.12700712D+07 0.10410216D+01  1  2  4  1  7  1        2 -.205933156997D-03 0.100000000000D+01
-.247930031369D-02 0.000000000000D+00 -.193587451036D-02 0.961175224143D-04 0.000000000000D+00  7 2 -2 24 -11 11 -24 21 2 0.69697791D+00 0.15853961D+00 0.12700712D+07 0.12700712D+07 0.12700712D+07 0.10410216D+01  1  2  5  1  7  1        2 -.806778473292D-05 0.100000000000D+01
0.323733283726D-02 0.000000000000D+00 0.172849326864D-02 0.961175224143D-04 0.000000000000D+00  7 2 -2 24 -11 11 -24 21 2 0.42909165D+00 0.15853961D+00 0.12700712D+07 0.12700712D+07 0.12700712D+07 0.10410216D+01  1  2  6  1  7  1        2 0.237140291247D-03 0.100000000000D+01
0.358354574899D-07 0.000000000000D+00 0.000000000000D+00 0.961175224143D-04 0.000000000000D+00  7 21 -2 24 -11 11 -24 -2 2 0.70050144D+00 0.15853961D+00 0.32410586D+07 0.32410586D+07 0.32410586D+07 0.10154715D+01  1  2 12  3  7  1        2 0.946897778458D-12 0.100000000000D+01
-.521595818518D-04 0.000000000000D+00 -.106579139881D-03 0.961175224143D-04 0.000000000000D+00  7 21 -2 24 -11 11 -24 -2 2 0.69697791D+00 0.15853961D+00 0.12700712D+07 0.12700712D+07 0.12700712D+07 0.10410216D+01  1  2  5  3  7  1        2 -.179147022096D-08 0.100000000000D+01
  </mgrwgt>
  </event>
  <event>
  8     66 0.26993063E-05 0.28156951E+03 0.75467711E-02 0.98878644E-01
        2 -1    0    0  501    0 0.00000000E+00 0.00000000E+00 0.57498517E+03 0.57498526E+03 0.32000000E+00 0.0000E+00 0.9000E+01
       -2 -1    0    0    0  502 0.00000000E+00 0.00000000E+00 -.58871100E+03 0.58871109E+03 0.32000000E+00 0.0000E+00 0.9000E+01
       25  2    1    2    0    0 0.12806381E+03 0.46192985E+02 -.19630315E+03 0.38240629E+03 0.29860595E+03 0.0000E+00 0.0000E+00
       24  1    3    3    0    0 -.43015483E+02 0.32364506E+02 -.16357660E+03 0.19005871E+03 0.80419002E+02 0.0000E+00 0.9000E+01
      -11  1    1    2    0    0 -.18487218E+03 0.25905507E+01 0.19845305E+03 0.27123430E+03 0.51099893E-03 0.0000E+00 0.9000E+01
       11  1    1    2    0    0 0.86597343E+02 0.65985305E+02 0.22032867E+03 0.24575980E+03 0.51099893E-03 0.0000E+00 0.9000E+01
      -24  1    3    3    0    0 0.17107929E+03 0.13828480E+02 -.32726550E+02 0.19234758E+03 0.80419002E+02 0.0000E+00 0.9000E+01
       21  1    1    2  501  502 -.29788973E+02 -.11476884E+03 -.23620440E+03 0.26429595E+03 0.75000000E+00 0.0000E+00 0.9000E+01
#aMCatNLO 2  0  0  2  1 0.11857179D+03 0.00000000D+00  -5  7  0 0.00000000D+00 0.00000000D+00 0.00000000D+00 0.00000000D+00 0.00000000D+00
  <mgrwgt>
 0.8311225971D-03    2    2    0
 0.431672643459684D+03 0.000000000000000D+00 0.000000000000000D+00 0.431672643459684D+03
 0.431672643459684D+03 0.000000000000000D+00 0.000000000000000D+00 -.431672643459684D+03
 0.237330454339644D+03 -.511761400958219D+02 0.923669511850751D+00 -.217344606839501D+03
 0.237455991418041D+03 -.192886496435808D+03 -.282865900213889D+02 0.135572918306002D+03
 0.187486213476445D+03 0.799883465345262D+02 0.405228326186247D+02 0.164653711464305D+03
 0.201072627685236D+03 0.164074289997103D+03 -.131599121090865D+02 -.828820229308064D+02
 0.000000000000000D+00 -.000000000000000D+00 -.000000000000000D+00 -.000000000000000D+00
 0.446634806360574D+03 0.000000000000000D+00 0.000000000000000D+00 0.446634806360574D+03
 0.757888917413007D+03 0.000000000000000D+00 0.000000000000000D+00 -.757888917413007D+03
 0.237915292366134D+03 -.430154732417613D+02 0.323645072087109D+02 -.217344606839501D+03
 0.229269349028899D+03 -.184872137460190D+03 0.259056307197439D+01 0.135572918306002D+03
 0.197392992219800D+03 0.865972872741621D+02 0.659852901431182D+02 0.164653711464305D+03
 0.206871937073259D+03 0.171079296798311D+03 0.138284806094046D+02 -.828820229308064D+02
 0.333074153085489D+03 -.297889733705212D+02 -.114768841033208D+03 -.311254111052433D+03
-.293107027159D-03 0.000000000000D+00 0.000000000000D+00 0.671894166815D-10 0.000000000000D+00  7 2 -2 24 -11 11 -24 21 2 0.85495826D-01 0.90858863D-01 0.12202805D+06 0.12202805D+06 0.12202805D+06 0.11146953D+01  1  2 13  2  7  2       -2 -.262083040553D-02 0.100000000000D+01
0.398435778735D-03 0.000000000000D+00 0.000000000000D+00 0.671894166815D-10 0.372833238385D-13  7 2 -2 24 -11 11 -24 21 2 0.88459188D-01 0.90570853D-01 0.12202805D+06 0.12202805D+06 0.12202805D+06 0.11146953D+01  1  2  1  2  7  2       -2 0.345195300262D-02 0.100000000000D+01
  </mgrwgt>
  </event>
  <event>
  9     66 0.26993063E-05 0.15955900E+03 0.75467711E-02 0.10391346E+00
        2 -1    0    0  501    0 0.00000000E+00 0.00000000E+00 0.16241961E+04 0.16241961E+04 0.32000000E+00 0.0000E+00 0.9000E+01
       21 -1    0    0  502  501 0.00000000E+00 0.00000000E+00 -.60763625E+02 0.60768254E+02 0.75000000E+00 0.0000E+00 0.9000E+01
       25  2    1    2    0    0 0.13532451E+03 -.80234336E+02 0.75158136E+03 0.82411915E+03 0.29924499E+03 0.0000E+00 0.0000E+00
       23  2    1    2    0    0 -.14848134E+02 0.36446992E+02 0.63220555E+03 0.64015423E+03 0.92545789E+02 0.0000E+00 0.0000E+00
       24  1    3    3    0    0 0.10740498E+03 -.92401467E+02 0.16720390E+03 0.23344854E+03 0.80419002E+02 0.0000E+00 0.9000E+01
      -13  1    4    4    0    0 0.13727466E+02 -.25889938E+02 0.12830129E+03 0.13160534E+03 0.10565837E+00 0.0000E+00 0.9000E+01
       13  1    4    4    0    0 -.28575599E+02 0.62336930E+02 0.50390426E+03 0.50854889E+03 0.10565837E+00 0.0000E+00 0.9000E+01
      -24  1    3    3    0    0 0.27919531E+02 0.12167132E+02 0.58437746E+03 0.59067061E+03 0.80419002E+02 0.0000E+00 0.9000E+01
        2  1    1    2  502    0 -.12047637E+03 0.43787344E+02 0.17964553E+03 0.22069098E+03 0.32000000E+00 0.0000E+00 0.9000E+01
#aMCatNLO 2  0  0  2  1 0.12818693D+03 0.00000000D+00  -5  7  0 0.00000000D+00 0.00000000D+00 0.00000000D+00 0.00000000D+00 0.00000000D+00
  <mgrwgt>
 0.3187498774D-03    2    2    0
 0.230650393806931D+03 0.000000000000000D+00 0.000000000000000D+00 0.230650393806931D+03
 0.230650393806931D+03 0.000000000000000D+00 0.000000000000000D+00 -.230650393806931D+03
 0.202627338794915D+03 0.518708858543536D+02 -.722175175907113D+02 -.163354411714097D+03
 0.268306232447643D+02 0.622991610066377D+01 -.231650041838706D+02 0.120188631010772D+02
 0.116043139275678D+03 -.561236894483355D+02 0.723494099923336D+02 0.712860752841848D+02
 0.115799686298504D+03 -.197711250668191D+01 0.230331117822483D+02 0.800494733288347D+02
 0.000000000000000D+00 -.000000000000000D+00 0.000000000000000D+00 -.000000000000000D+00
 0.273039620620999D+03 0.000000000000000D+00 0.000000000000000D+00 0.273039620620999D+03
 0.361470823086648D+03 0.000000000000000D+00 0.000000000000000D+00 -.361470823086648D+03
 0.230707063874942D+03 0.107405003019658D+03 -.924014873652728D+02 -.163354411714097D+03
 0.316731693475471D+02 0.137274894583724D+02 -.258900100317910D+02 0.120188631010772D+02
 0.989150036972195D+02 -.285756558190093D+02 0.623370300985859D+02 0.712860752841848D+02
 0.117484780243940D+03 0.279195373277044D+02 0.121671233157042D+02 0.800494733288347D+02
 0.155730426543998D+03 -.120476373986726D+03 0.437873439827737D+02 -.884312024656484D+02
-.796665695408D-08 0.000000000000D+00 0.000000000000D+00 0.120998209501D-06 0.000000000000D+00  7 2 21 24 -13 13 -24 2 2 0.21108336D+00 0.96442055D-02 0.56399798D+05 0.56399798D+05 0.56399798D+05 0.11427227D+01  1  2 13  4  7  2       -2 -.192977446537D-04 0.100000000000D+01
0.180484340676D-06 0.000000000000D+00 0.000000000000D+00 0.120998209501D-06 0.398846929272D-11  7 2 21 24 -13 13 -24 2 2 0.24987654D+00 0.93486033D-02 0.56399798D+05 0.56399798D+05 0.56399798D+05 0.11427227D+01  1  2  1  4  7  2       -2 0.338047622024D-03 0.100000000000D+01
  </mgrwgt>
  </event>
  <event>
  8     66 0.26993063E-05 0.95757592E+02 0.75467711E-02 0.10098961E+00
        2 -1    0    0  501    0 0.00000000E+00 0.00000000E+00 0.11264816E+04 0.11264816E+04 0.32000000E+00 0.0000E+00 0.9000E+01
       -2 -1    0    0    0  501 0.00000000E+00 0.00000000E+00 -.42655078E+03 0.42655090E+03 0.32000000E+00 0.0000E+00 0.9000E+01
       25  2    1    2    0    0 -.54888116E+02 0.22300831E+03 0.10556187E+04 0.11207479E+04 0.29832822E+03 0.0000E+00 0.0000E+00
       23  2    1    2    0    0 0.54888116E+02 -.22300831E+03 -.35568787E+03 0.43228459E+03 0.87239316E+02 0.0000E+00 0.0000E+00
       24  1    3    3    0    0 -.94833472E+02 0.18169585E+03 0.39020555E+03 0.44803388E+03 0.80419002E+02 0.0000E+00 0.9000E+01
      -13  1    4    4    0    0 0.55073893E+01 -.99741932E+01 0.33634276E+01 0.11880222E+02 0.10565837E+00 0.0000E+00 0.9000E+01
       13  1    4    4    0    0 0.49380727E+02 -.21303412E+03 -.35905130E+03 0.42040437E+03 0.10565837E+00 0.0000E+00 0.9000E+01
      -24  1    3    3    0    0 0.39945356E+02 0.41312456E+02 0.66541312E+03 0.67271404E+03 0.80419002E+02 0.0000E+00 0.9000E+01
#aMCatNLO 1  0  0  2  1 0.46713391D+02 0.00000000D+00  -5  7  0 0.00000000D+00 0.00000000D+00 0.00000000D+00 0.00000000D+00 0.00000000D+00
  <mgrwgt>
 0.1198007380D-02    9    2    0
 0.693182311837851D+03 0.000000000000000D+00 0.000000000000000D+00 0.693182311837851D+03
 0.693182311837851D+03 0.000000000000000D+00 0.000000000000000D+00 -.693182311837851D+03
 0.304894031192020D+03 -.948334717566925D+02 0.181695853881343D+03 0.210917954710006D+03
 0.116094290832583D+02 0.550732489168470D+01 -.997389534142473D+01 -.222926622343360D+01
 0.652219484120094D+03 0.493807912986234D+02 -.213034415027142D+03 -.614465728035866D+03
 0.417641679280329D+03 0.399453555663844D+02 0.413124564872244D+02 0.405777039549293D+03
 0.000000000000000D+00 -.000000000000000D+00 -.000000000000000D+00 -.000000000000000D+00
 0.713758228881869D+03 0.000000000000000D+00 0.000000000000000D+00 0.713758228881869D+03
 0.720605774530229D+03 0.000000000000000D+00 0.000000000000000D+00 -.720605774530229D+03
 0.310221146180616D+03 -.922981214051956D+02 0.191741014781043D+03 0.210917954710006D+03
 0.113355795102459D+02 0.560189845732345D+01 -.959919103945768D+01 -.222926622343360D+01
 0.646036905152671D+03 0.547318782396660D+02 -.191833191583084D+03 -.614465728035866D+03
 0.419557770654361D+03 0.433960815405528D+02 0.549843727219294D+02 0.405777039549293D+03
 0.472126019142037D+02 -.114317368323466D+02 -.452930048804302D+02 -.684754564835942D+01
0.102476364673D-03 0.000000000000D+00 0.000000000000D+00 0.155827927351D-06 0.000000000000D+00  7 2 -2 24 -13 13 -24 21 0 0.17330487D+00 0.65623209D-01 0.75373664D+05 0.75373664D+05 0.75373664D+05 0.11319390D+01  1  2  2  2  7  2       -2 0.624251432686D-03 0.100000000000D+01
0.244722920184D-06 0.000000000000D+00 -.393536222990D-06 0.155827927351D-06 0.000000000000D+00  7 2 -2 24 -13 13 -24 21 2 0.17330487D+00 0.65623209D-01 0.75373664D+05 0.75373664D+05 0.75373664D+05 0.11319390D+01  1  2  3  2  7  2       -2 0.191010201077D-05 0.100000000000D+01
0.629855746196D-05 0.000000000000D+00 0.000000000000D+00 0.155827927351D-06 0.000000000000D+00  7 2 -2 24 -13 13 -24 21 2 0.17330487D+00 0.65623209D-01 0.75373664D+05 0.75373664D+05 0.75373664D+05 0.11319390D+01  1  2 15  2  7  2       -2 0.491612606780D-04 0.100000000000D+01
0.221838435277D-03 0.000000000000D+00 0.000000000000D+00 0.155827927351D-06 0.000000000000D+00  7 2 -2 24 -13 13 -24 21 2 0.17330487D+00 0.69159751D-01 0.87453698D+05 0.87453698D+05 0.87453698D+05 0.11265314D+01  1  2 12  2  7  2       -2 0.152564152816D-02 0.100000000000D+01
-.189119488900D-03 0.000000000000D+00 0.000000000000D+00 0.155827927351D-06 0.000000000000D+00  7 2 -2 24 -13 13 -24 21 2 0.17330487D+00 0.65623209D-01 0.75373664D+05 0.75373664D+05 0.75373664D+05 0.11319390D+01  1  2  4  2  7  2       -2 -.147610822783D-02 0.100000000000D+01
-.797186915237D-03 0.000000000000D+00 -.195259791733D-03 0.155827927351D-06 0.000000000000D+00  7 2 -2 24 -13 13 -24 21 2 0.17330487D+00 0.70028887D-01 0.75373664D+05 0.75373664D+05 0.75373664D+05 0.11319390D+01  1  2  5  2  7  2       -2 -.542279116369D-02 0.100000000000D+01
0.808578484016D-03 0.000000000000D+00 0.194848303516D-03 0.155827927351D-06 0.000000000000D+00  7 2 -2 24 -13 13 -24 21 2 0.17330487D+00 0.65623209D-01 0.75373664D+05 0.75373664D+05 0.75373664D+05 0.11319390D+01  1  2  6  2  7  2       -2 0.631108597030D-02 0.100000000000D+01
0.256798688660D-05 0.000000000000D+00 0.000000000000D+00 0.155827927351D-06 0.000000000000D+00  7 2 21 24 -13 13 -24 2 2 0.17330487D+00 0.69159751D-01 0.87453698D+05 0.87453698D+05 0.87453698D+05 0.11265314D+01  1  2 12  4  7  2       -2 0.180386588665D-03 0.100000000000D+01
-.854847756253D-05 0.000000000000D+00 -.216354891552D-05 0.155827927351D-06 0.000000000000D+00  7 2 21 24 -13 13 -24 2 2 0.17330487D+00 0.70028887D-01 0.75373664D+05 0.75373664D+05 0.75373664D+05 0.11319390D+01  1  2  5  4  7  2       -2 -.595530111094D-03 0.100000000000D+01
  </mgrwgt>
  </event>
  <event>
  8     66 0.26993063E-05 0.60358947E+03 0.75467711E-02 0.92321092E-01
        2 -1    0    0  501    0 0.00000000E+00 0.00000000E+00 0.22083161E+04 0.22083161E+04 0.32000000E+00 0.0000E+00 0.9000E+01
       -2 -1    0    0    0  501 0.00000000E+00 0.00000000E+00 -.22634118E+03 0.22634140E+03 0.32000000E+00 0.0000E+00 0.9000E+01
       25  2    1    2    0    0 0.14538083E+03 0.54404672E+03 0.16591573E+04 0.17776924E+04 0.30044120E+03 0.0000E+00 0.0000E+00
       23  2    1    2    0    0 -.14538083E+03 -.54404672E+03 0.32281765E+03 0.65696514E+03 0.10133878E+03 0.0000E+00 0.0000E+00
       24  1    3    3    0    0 -.62675074E+02 0.20858615E+03 0.52258366E+03 0.57183673E+03 0.80419002E+02 0.0000E+00 0.9000E+01
      -13  1    4    4    0    0 -.43024297E+02 -.43242595E+02 0.32554927E+02 0.69143666E+02 0.10565837E+00 0.0000E+00 0.9000E+01
       13  1    4    4    0    0 -.10235653E+03 -.50080412E+03 0.29026272E+03 0.58782148E+03 0.10565837E+00 0.0000E+00 0.9000E+01
      -24  1    3    3    0    0 0.20805590E+03 0.33546057E+03 0.11365736E+04 0.12058557E+04 0.80419002E+02 0.0000E+00 0.9000E+01
#aMCatNLO 1  0  0  1  1 0.24595984D+02 0.00000000D+00  -5  7  0 0.00000000D+00 0.00000000D+00 0.00000000D+00 0.00000000D+00 0.00000000D+00
  <mgrwgt>
 0.2059382233D-03    4    2    0
 0.706988801841368D+03 0.000000000000000D+00 0.000000000000000D+00 0.706988801841368D+03
 0.706988801841368D+03 0.000000000000000D+00 0.000000000000000D+00 -.706988801841368D+03
 0.252110702163883D+03 -.626750737976218D+02 0.208586150849817D+03 0.982661843632688D+02
 0.734221540725006D+02 -.430242315033613D+02 -.432420985288699D+02 -.408637874775540D+02
 0.605279294224196D+03 -.102356598159324D+03 -.500804621743274D+03 -.324161814022515D+03
 0.483165453222157D+03 0.208055903460307D+03 0.335460569422327D+03 0.266759417136800D+03
 0.000000000000000D+00 0.000000000000000D+00 -.000000000000000D+00 -.000000000000000D+00
 0.716013993814323D+03 0.000000000000000D+00 0.000000000000000D+00 0.716013993814323D+03
 0.724054328292836D+03 0.000000000000000D+00 0.000000000000000D+00 -.724054328292836D+03
 0.255823837444050D+03 -.628799665750833D+02 0.212998794983515D+03 0.982661843632688D+02
 0.727165926060115D+02 -.430831815675267D+02 -.419725288639781D+02 -.408637874775540D+02
 0.596751379820857D+03 -.102841478363748D+03 -.490362068247217D+03 -.324161814022515D+03
 0.488899699846663D+03 0.207663787717913D+03 0.343905314287626D+03 0.266759417136800D+03
 0.258768123895772D+02 0.114083878844488D+01 -.245695121599471D+02 -.804033447851328D+01
0.110116680112D-03 0.000000000000D+00 0.000000000000D+00 0.104852578015D-06 0.000000000000D+00  7 2 -2 24 -13 13 -24 21 0 0.33974096D+00 0.34821738D-01 0.36432025D+06 0.36432025D+06 0.36432025D+06 0.10783650D+01  1  2  2  1  7  1        2 0.548831664541D-03 0.100000000000D+01
-.593162513087D-05 0.000000000000D+00 -.422877046017D-06 0.104852578015D-06 0.000000000000D+00  7 2 -2 24 -13 13 -24 21 2 0.33974096D+00 0.34821738D-01 0.36432025D+06 0.36432025D+06 0.36432025D+06 0.10783650D+01  1  2  3  1  7  1        2 -.343788494554D-04 0.100000000000D+01
0.697135905474D-05 0.000000000000D+00 0.000000000000D+00 0.104852578015D-06 0.000000000000D+00  7 2 -2 24 -13 13 -24 21 2 0.33974096D+00 0.34821738D-01 0.36432025D+06 0.36432025D+06 0.36432025D+06 0.10783650D+01  1  2 15  1  7  1        2 0.404049983192D-04 0.100000000000D+01
-.602015553755D-04 0.000000000000D+00 0.000000000000D+00 0.104852578015D-06 0.000000000000D+00  7 2 -2 24 -13 13 -24 21 2 0.33974096D+00 0.34821738D-01 0.36432025D+06 0.36432025D+06 0.36432025D+06 0.10783650D+01  1  2  4  1  7  1        2 -.348919590091D-03 0.100000000000D+01
  </mgrwgt>
  </event>
  <event>
  8     66 0.26993063E-05 0.68085168E+02 0.75467711E-02 0.10705819E+00
        2 -1    0    0  501    0 0.00000000E+00 0.00000000E+00 0.37369485E+04 0.37369485E+04 0.32000000E+00 0.0000E+00 0.9000E+01
       -2 -1    0    0    0  501 0.00000000E+00 0.00000000E+00 -.14341644E+02 0.14345213E+02 0.32000000E+00 0.0000E+00 0.9000E+01
       25  2    1    2    0    0 -.85618020E+01 0.89410311E+02 0.21502178E+04 0.21727516E+04 0.29890758E+03 0.0000E+00 0.0000E+00
       23  2    1    2    0    0 0.85618020E+01 -.89410311E+02 0.15723891E+04 0.15785421E+04 0.10639625E+03 0.0000E+00 0.0000E+00
       24  1    3    3    0    0 0.76509089E+02 0.65057448E+02 0.17582638E+04 0.17629648E+04 0.80419002E+02 0.0000E+00 0.9000E+01
      -13  1    4    4    0    0 0.21972259E+02 -.86251171E+02 0.65170011E+03 0.65775002E+03 0.10565837E+00 0.0000E+00 0.9000E+01
       13  1    4    4    0    0 -.13410457E+02 -.31591399E+01 0.92068900E+03 0.92079209E+03 0.10565837E+00 0.0000E+00 0.9000E+01
      -24  1    3    3    0    0 -.85070891E+02 0.24352863E+02 0.39195395E+03 0.40978681E+03 0.80419002E+02 0.0000E+00 0.9000E+01
#aMCatNLO 1  0  0  1  2 0.29900376D+02 0.00000000D+00  -5  7  0 0.00000000D+00 0.00000000D+00 0.00000000D+00 0.00000000D+00 0.00000000D+00
  <mgrwgt>
 0.1270201226D-02    9    2    0
 0.231518260810999D+03 0.000000000000000D+00 0.000000000000000D+00 0.231518260810999D+03
 0.231518260810999D+03 0.000000000000000D+00 0.000000000000000D+00 -.231518260810999D+03
 0.147016703098633D+03 0.765088566924141D+02 0.650598750629460D+02 0.711358035031205D+02
 0.893886815947837D+02 0.219712829987925D+02 -.862519137696297D+02 -.825872216005264D+01
 0.578734277864213D+02 -.134089817690447D+02 -.316361064870301D+01 0.562096470308342D+02
 0.168757709142160D+03 -.850711579221619D+02 0.243556493553867D+02 -.119086728373902D+03
 0.000000000000000D+00 -.000000000000000D+00 -.000000000000000D+00 0.000000000000000D+00
 0.262004622624749D+03 0.000000000000000D+00 0.000000000000000D+00 0.262004622624749D+03
 0.239449696408534D+03 0.000000000000000D+00 0.000000000000000D+00 -.239449696408534D+03
 0.153542023418749D+03 0.818101302357822D+02 0.731760688471511D+02 0.711358035031205D+02
 0.856876358968251D+02 0.250592899941073D+02 -.815242076861907D+02 -.825872216005264D+01
 0.573494189394173D+02 -.113766740200168D+02 -.521689573216628D-01 0.562096470308342D+02
 0.167421840745396D+03 -.791416020769841D+02 0.334337367055354D+02 -.119086728373902D+03
 0.374534000328951D+02 -.163511441328887D+02 -.250334289091742D+02 0.225549262162147D+02
0.127002038416D-04 0.000000000000D+00 0.000000000000D+00 0.119479428849D-08 0.000000000000D+00  7 2 -2 24 -13 13 -24 21 0 0.57491543D+00 0.22066824D-02 0.30803149D+05 0.30803149D+05 0.30803149D+05 0.11662728D+01  1  2  2  1  7  1        2 0.579811255112D-03 0.100000000000D+01
-.639756646054D-06 0.000000000000D+00 -.487721267922D-07 0.119479428849D-08 0.000000000000D+00  7 2 -2 24 -13 13 -24 21 2 0.57491543D+00 0.22066824D-02 0.30803149D+05 0.30803149D+05 0.30803149D+05 0.11662728D+01  1  2  3  1  7  1        2 -.397274863523D-04 0.100000000000D+01
0.809978706024D-06 0.000000000000D+00 0.000000000000D+00 0.119479428849D-08 0.000000000000D+00  7 2 -2 24 -13 13 -24 21 2 0.57491543D+00 0.22066824D-02 0.30803149D+05 0.30803149D+05 0.30803149D+05 0.11662728D+01  1  2 15  1  7  1        2 0.502979034102D-04 0.100000000000D+01
0.163703929836D-04 0.000000000000D+00 0.000000000000D+00 0.119479428849D-08 0.000000000000D+00  7 2 -2 24 -13 13 -24 21 2 0.65957165D+00 0.22066824D-02 0.36159779D+05 0.36159779D+05 0.36159779D+05 0.11598849D+01  1  2 12  1  7  1        2 0.359830485724D-03 0.100000000000D+01
-.165451469076D-04 0.000000000000D+00 0.000000000000D+00 0.119479428849D-08 0.000000000000D+00  7 2 -2 24 -13 13 -24 21 2 0.57491543D+00 0.22066824D-02 0.30803149D+05 0.30803149D+05 0.30803149D+05 0.11662728D+01  1  2  4  1  7  1        2 -.102741738132D-02 0.100000000000D+01
-.330758655464D-04 0.000000000000D+00 -.639937890405D-05 0.119479428849D-08 0.000000000000D+00  7 2 -2 24 -13 13 -24 21 2 0.65453991D+00 0.22066824D-02 0.30803149D+05 0.30803149D+05 0.30803149D+05 0.11662728D+01  1  2  5  1  7  1        2 -.792017463920D-03 0.100000000000D+01
0.344545311810D-04 0.000000000000D+00 0.664070277371D-05 0.119479428849D-08 0.000000000000D+00  7 2 -2 24 -13 13 -24 21 2 0.57491543D+00 0.22066824D-02 0.30803149D+05 0.30803149D+05 0.30803149D+05 0.11662728D+01  1  2  6  1  7  1        2 0.213955091473D-02 0.100000000000D+01
0.347560562792D-06 0.000000000000D+00 0.000000000000D+00 0.119479428849D-08 0.000000000000D+00  7 21 -2 24 -13 13 -24 -2 2 0.65957165D+00 0.22066824D-02 0.36159779D+05 0.36159779D+05 0.36159779D+05 0.11598849D+01  1  2 12  3  7  1        2 0.117507260092D-06 0.100000000000D+01
-.635594938326D-06 0.000000000000D+00 -.129576348587D-06 0.119479428849D-08 0.000000000000D+00  7 21 -2 24 -13 13 -24 -2 2 0.65453991D+00 0.22066824D-02 0.30803149D+05 0.30803149D+05 0.30803149D+05 0.11662728D+01  1  2  5  3  7  1        2 -.244509045253D-06 0.100000000000D+01
  </mgrwgt>
  </event>
  <event>
  8     66 0.26993063E-05 0.36243099E+03 0.75467711E-02 0.85020697E-01
        2 -1    0    0  501    0 0.00000000E+00 0.00000000E+00 0.13180822E+04 0.13180823E+04 0.32000000E+00 0.0000E+00 0.9000E+01
       -2 -1    0    0    0  501 0.00000000E+00 0.00000000E+00 -.61696828E+03 0.61696836E+03 0.32000000E+00 0.0000E+00 0.9000E+01
       25  2    1    2    0    0 -.30390544E+03 0.14968257E+03 0.12241255E+04 0.13052492E+04 0.30071414E+03 0.0000E+00 0.0000E+00
       23  2    1    2    0    0 0.30390544E+03 -.14968257E+03 -.52301153E+03 0.62980140E+03 0.91352916E+02 0.0000E+00 0.0000E+00
       24  1    3    3    0    0 -.72639285E+02 0.52220456E+02 0.77686242E+03 0.78612077E+03 0.80419002E+02 0.0000E+00 0.9000E+01
      -13  1    4    4    0    0 0.39319346E+02 -.35084155E+02 -.14565519E+03 0.15489466E+03 0.10565837E+00 0.0000E+00 0.9000E+01
       13  1    4    4    0    0 0.26458609E+03 -.11459841E+03 -.37735634E+03 0.47490674E+03 0.10565837E+00 0.0000E+00 0.9000E+01
      -24  1    3    3    0    0 -.23126615E+03 0.97462111E+02 0.44726305E+03 0.51912845E+03 0.80419002E+02 0.0000E+00 0.9000E+01
#aMCatNLO 1  0  0  2  2 0.11926863D+04 0.00000000D+00  -5  7  0 0.00000000D+00 0.00000000D+00 0.00000000D+00 0.00000000D+00 0.00000000D+00
  <mgrwgt>
 0.1974015178D-02    3    2    0
 0.901784361236306D+03 0.000000000000000D+00 0.000000000000000D+00 0.901784361236306D+03
 0.901784361236306D+03 0.000000000000000D+00 0.000000000000000D+00 -.901784361236306D+03
 0.541434552032165D+03 -.726392848944223D+02 0.522204564087373D+02 0.527902184502386D+03
 0.222807609124512D+03 0.393190445312294D+02 -.350840482566369D+02 -.216486380585150D+03
 0.656220857348035D+03 0.264586390592269D+03 -.114598519558080D+03 -.589480309125794D+03
 0.383105703967900D+03 -.231266150229076D+03 0.974621114059797D+02 0.278064505208558D+03
 0.000000000000000D+00 -.000000000000000D+00 -.000000000000000D+00 0.000000000000000D+00
 0.275979609872885D+04 0.000000000000000D+00 0.000000000000000D+00 0.275979609872885D+04
 0.129297882885338D+04 0.000000000000000D+00 0.000000000000000D+00 -.129297882885338D+04
 0.603034908871328D+03 0.271036147371736D+03 0.710110961651485D+02 0.527902184502386D+03
 0.291815043880587D+03 0.193856294119228D+03 -.266346407246321D+02 -.216486380585150D+03
 0.957299234593896D+03 0.749114142543385D+03 -.881067031984919D+02 -.589480309125794D+03
 0.310109038226486D+03 -.230990611842955D+02 0.108843759356747D+03 0.278064505208558D+03
 0.189051670200993D+04 -.119090752285005D+04 -.651135115987714D+02 0.146681726987548D+04
0.899268562626D-03 0.000000000000D+00 0.000000000000D+00 0.858299038658D-05 0.000000000000D+00  7 2 -2 24 -13 13 -24 21 0 0.20278189D+00 0.94918206D-01 0.13135622D+06 0.13135622D+06 0.13135622D+06 0.11121295D+01  1  2  2  2  7  2       -2 0.183272425644D-02 0.100000000000D+01
0.512708097722D-06 0.000000000000D+00 -.345342806333D-05 0.858299038658D-05 0.000000000000D+00  7 2 -2 24 -13 13 -24 21 2 0.20278189D+00 0.94918206D-01 0.13135622D+06 0.13135622D+06 0.13135622D+06 0.11121295D+01  1  2  3  2  7  2       -2 0.129237516568D-05 0.100000000000D+01
0.555399009219D-04 0.000000000000D+00 0.000000000000D+00 0.858299038658D-05 0.000000000000D+00  7 2 -2 24 -13 13 -24 21 2 0.20278189D+00 0.94918206D-01 0.13135622D+06 0.13135622D+06 0.13135622D+06 0.11121295D+01  1  2 15  2  7  2       -2 0.139998546882D-03 0.100000000000D+01
  </mgrwgt>
  </event>
  <event>
  8     66 0.26993063E-05 0.29531636E+03 0.75467711E-02 0.87864617E-01
        2 -1    0    0  501    0 0.00000000E+00 0.00000000E+00 0.20498012E+03 0.20498037E+03 0.32000000E+00 0.0000E+00 0.9000E+01
       -2 -1    0    0    0  501 0.00000000E+00 0.00000000E+00 -.66867014E+03 0.66867022E+03 0.32000000E+00 0.0000E+00 0.9000E+01
       25  2    1    2    0    0 -.46518494E+02 0.22525030E+03 -.35760629E+02 0.37954124E+03 0.29978502E+03 0.0000E+00 0.0000E+00
       23  2    1    2    0    0 0.46518494E+02 -.22525030E+03 -.42792939E+03 0.49410935E+03 0.90104461E+02 0.0000E+00 0.0000E+00
       24  1    3    3    0    0 -.10607600E+03 0.35050877E+02 -.81276539E+02 0.15985548E+03 0.80419002E+02 0.0000E+00 0.9000E+01
      -11  1    4    4    0    0 0.18237542E+02 -.19783718E+03 -.39732996E+03 0.44423334E+03 0.51099893E-03 0.0000E+00 0.9000E+01
       11  1    4    4    0    0 0.28280952E+02 -.27413120E+02 -.30599432E+02 0.49876013E+02 0.51099893E-03 0.0000E+00 0.9000E+01
      -24  1    3    3    0    0 0.59557509E+02 0.19019943E+03 0.45515910E+02 0.21968576E+03 0.80419002E+02 0.0000E+00 0.9000E+01
#aMCatNLO 1  0  0  1  2 0.87122733D+03 0.00000000D+00  -5  7  0 0.00000000D+00 0.00000000D+00 0.00000000D+00 0.00000000D+00 0.00000000D+00
  <mgrwgt>
 0.1011813293D-02    3    2    0
 0.370221863962699D+03 0.000000000000000D+00 0.000000000000000D+00 0.370221863962699D+03
 0.370221863962699D+03 0.000000000000000D+00 0.000000000000000D+00 -.370221863962699D+03
 0.137715681910100D+03 -.106076002808108D+03 0.350508767693007D+02 0.420841485014927D+01
 0.275330548740928D+03 0.182375418162881D+02 -.197837184976884D+03 -.190616765734029D+03
 0.396864141483928D+02 0.282809523591657D+02 -.274131196038100D+02 -.487032598534794D+01
 0.287711083125977D+03 0.595575086326541D+02 0.190199427811394D+03 0.191278676869227D+03
 0.000000000000000D+00 0.000000000000000D+00 -.000000000000000D+00 -.000000000000000D+00
 0.930892880898667D+03 0.000000000000000D+00 0.000000000000000D+00 0.930892880898667D+03
 0.109995591285343D+04 0.000000000000000D+00 0.000000000000000D+00 -.109995591285343D+04
 0.340082569088595D+03 -.292448699622059D+03 0.153769259533055D+03 0.420841485014927D+01
 0.281995333363906D+03 -.199156154027056D+03 -.593585964563725D+02 -.190616765734029D+03
 0.158875185088208D+02 0.660346886015196D+01 -.136046818477158D+02 -.487032598534794D+01
 0.505404150131809D+03 -.249809519391238D+03 0.387264523049507D+03 0.191278676869227D+03
 0.887479222658969D+03 0.734810904180201D+03 -.468070504278473D+03 -.169063031954766D+03
0.613672427715D-04 0.000000000000D+00 0.000000000000D+00 0.197619953668D-05 0.000000000000D+00  7 2 -2 24 -11 11 -24 21 0 0.31535428D-01 0.10287235D+00 0.87211753D+05 0.87211753D+05 0.87211753D+05 0.11266314D+01  1  2  2  1  7  1        2 0.998051747051D-03 0.100000000000D+01
-.319746741198D-05 0.000000000000D+00 -.235666370609D-06 0.197619953668D-05 0.000000000000D+00  7 2 -2 24 -11 11 -24 21 2 0.31535428D-01 0.10287235D+00 0.87211753D+05 0.87211753D+05 0.87211753D+05 0.11266314D+01  1  2  3  1  7  1        2 -.660064368446D-04 0.100000000000D+01
0.386410079811D-05 0.000000000000D+00 0.000000000000D+00 0.197619953668D-05 0.000000000000D+00  7 2 -2 24 -11 11 -24 21 2 0.31535428D-01 0.10287235D+00 0.87211753D+05 0.87211753D+05 0.87211753D+05 0.11266314D+01  1  2 15  1  7  1        2 0.797679827278D-04 0.100000000000D+01
  </mgrwgt>
  </event>
  <event>
  9     66 -.26993063E-05 0.39118335E+03 0.75467711E-02 0.97395123E-01
        2 -1    0    0  501    0 0.00000000E+00 0.00000000E+00 0.21150989E+04 0.21150989E+04 0.32000000E+00 0.0000E+00 0.9000E+01
       21 -1    0    0  502  501 0.00000000E+00 0.00000000E+00 -.16841841E+03 0.16842008E+03 0.75000000E+00 0.0000E+00 0.9000E+01
       25  2    1    2    0    0 0.30976639E+03 0.17808713E+03 0.94455336E+03 0.10522552E+04 0.29561755E+03 0.0000E+00 0.0000E+00
       23  2    1    2    0    0 -.30784179E+03 -.17193419E+03 0.10869241E+04 0.11462215E+04 0.89953525E+02 0.0000E+00 0.0000E+00
       24  1    3    3    0    0 0.38792394E+02 0.87782363E+01 0.58962088E+02 0.10735759E+03 0.80419002E+02 0.0000E+00 0.9000E+01
      -13  1    4    4    0    0 -.20671606E+03 -.16000494E+03 0.81240702E+03 0.85342738E+03 0.10565837E+00 0.0000E+00 0.9000E+01
       13  1    4    4    0    0 -.10112572E+03 -.11929248E+02 0.27451711E+03 0.29279408E+03 0.10565837E+00 0.0000E+00 0.9000E+01
      -24  1    3    3    0    0 0.27097400E+03 0.16930890E+03 0.88559128E+03 0.94489763E+03 0.80419002E+02 0.0000E+00 0.9000E+01
        2  1    1    2  502    0 -.19246006E+01 -.61529471E+01 -.84797005E+02 0.85042326E+02 0.32000000E+00 0.0000E+00 0.9000E+01
#aMCatNLO 2  0  0  2  1 0.64469253D+01 0.00000000D+00  -5  7  0 0.00000000D+00 0.00000000D+00 0.00000000D+00 0.00000000D+00 0.00000000D+00
  <mgrwgt>
 -.3948726747D-03    2    2    0
 0.420225330711364D+03 0.000000000000000D+00 0.000000000000000D+00 0.420225330711364D+03
 0.420225330711364D+03 0.000000000000000D+00 0.000000000000000D+00 -.420225330711364D+03
 0.138157210932524D+03 0.384758531513068D+02 0.776625548178845D+01 -.105259170519029D+03
 0.270374167046837D+03 -.207333455777622D+03 -.161978474670612D+03 0.622736064875156D+02
 0.102675222487745D+03 -.101360328589554D+03 -.126795404606274D+02 0.103689129050709D+02
 0.329244060955621D+03 0.270217931215869D+03 0.166891759649451D+03 0.326166511264422D+02
 0.000000000000000D+00 -.000000000000000D+00 -.000000000000000D+00 -.000000000000000D+00
 0.420262006114692D+03 0.000000000000000D+00 0.000000000000000D+00 0.420262006114692D+03
 0.847622238325757D+03 0.000000000000000D+00 0.000000000000000D+00 -.847622238325757D+03
 0.138306240629981D+03 0.387923939865456D+02 0.877823634144855D+01 -.105259170519029D+03
 0.268721489699018D+03 -.206716210393122D+03 -.160005141548026D+03 0.622736064875156D+02
 0.102353304803375D+03 -.101125578206060D+03 -.119290436259455D+02 0.103689129050709D+02
 0.331094352449760D+03 0.270973995251597D+03 0.169308895916425D+03 0.326166511264422D+02
 0.427408856858315D+03 -.192460063896087D+01 -.615294708390198D+01 -.427360232211065D+03
-.273983055519D-03 0.000000000000D+00 0.000000000000D+00 0.826883458022D-08 0.000000000000D+00  7 2 21 24 -13 13 -24 2 2 0.32537152D+00 0.25910638D-01 0.15558319D+06 0.15558319D+06 0.15558319D+06 0.11063016D+01  1  2 13  4  7  2       -2 -.399892049223D-01 0.100000000000D+01
0.271340977459D-03 0.000000000000D+00 0.000000000000D+00 0.826883458022D-08 0.122628129419D-09  7 2 21 24 -13 13 -24 2 2 0.32539991D+00 0.25910651D-01 0.15558319D+06 0.15558319D+06 0.15558319D+06 0.11063016D+01  1  2  1  4  7  2       -2 0.395943322476D-01 0.100000000000D+01
  </mgrwgt>
  </event>
  <event>
  8     66 0.26993063E-05 0.65050301E+03 0.75467711E-02 0.85136841E-01
        2 -1    0    0  501    0 0.00000000E+00 0.00000000E+00 0.23045651E+03 0.23045673E+03 0.32000000E+00 0.0000E+00 0.9000E+01
       -2 -1    0    0    0  501 0.00000000E+00 0.00000000E+00 -.19628194E+04 0.19628195E+04 0.32000000E+00 0.0000E+00 0.9000E+01
       25  2    1    2    0    0 -.59600078E+03 -.17559254E+03 -.68455289E+03 0.97182604E+03 0.29963899E+03 0.0000E+00 0.0000E+00
       23  2    1    2    0    0 0.59600078E+03 0.17559254E+03 -.10478100E+04 0.12214502E+04 0.89358501E+02 0.0000E+00 0.0000E+00
       24  1    3    3    0    0 -.42615216E+03 -.21627270E+03 -.39983175E+03 0.62826124E+03 0.80419002E+02 0.0000E+00 0.9000E+01
      -11  1    4    4    0    0 0.45766396E+03 0.16036306E+03 -.75630001E+03 0.89842212E+03 0.51099893E-03 0.0000E+00 0.9000E+01
       11  1    4    4    0    0 0.13833682E+03 0.15229480E+02 -.29151003E+03 0.32302803E+03 0.51099893E-03 0.0000E+00 0.9000E+01
      -24  1    3    3    0    0 -.16984862E+03 0.40680158E+02 -.28472114E+03 0.34356480E+03 0.80419002E+02 0.0000E+00 0.9000E+01
#aMCatNLO 1  0  0  1  2 0.93929370D+03 0.00000000D+00  -5  7  0 0.00000000D+00 0.00000000D+00 0.00000000D+00 0.00000000D+00 0.00000000D+00
  <mgrwgt>
 0.1833416056D-02    3    2    0
 0.672565826441497D+03 0.000000000000000D+00 0.000000000000000D+00 0.672565826441497D+03
 0.672565826441497D+03 0.000000000000000D+00 0.000000000000000D+00 -.672565826441497D+03
 0.509464420776030D+03 -.426152156127279D+03 -.216272697893332D+03 0.157185368454878D+03
 0.490882627139283D+03 0.457663956066821D+03 0.160363060289550D+03 -.761127179845847D+02
 0.151277779990677D+03 0.138336822858891D+03 0.152294799499476D+02 -.592954728513883D+02
 0.193506824977004D+03 -.169848622798433D+03 0.406801576538345D+02 -.217771776189053D+02
 0.000000000000000D+00 -.000000000000000D+00 0.000000000000000D+00 -.000000000000000D+00
 0.106018990343469D+04 0.000000000000000D+00 0.000000000000000D+00 0.106018990343469D+04
 0.173981727406413D+04 0.000000000000000D+00 0.000000000000000D+00 -.173981727406413D+04
 0.446126752132552D+03 -.169589906215127D+03 -.372952928219659D+03 0.157185368454878D+03
 0.813100335073631D+03 0.807764304539236D+03 -.534400352740693D+02 -.761127179845847D+02
 0.261409228913877D+03 0.249137247261930D+03 -.524353305265240D+02 -.592954728513883D+02
 0.119989120228098D+03 -.856795478630236D+02 -.107211301496097D+02 -.217771776189053D+02
 0.115938174115066D+04 -.801632097723017D+03 0.489549424169862D+03 -.679627370629437D+03
0.378706391350D-02 0.000000000000D+00 0.000000000000D+00 0.186322628903D-05 0.000000000000D+00  7 2 -2 24 -11 11 -24 21 0 0.35454867D-01 0.30197224D+00 0.42315416D+06 0.42315416D+06 0.42315416D+06 0.10736703D+01  1  2  2  1  7  1        2 0.181902874948D-02 0.100000000000D+01
-.210107856395D-03 0.000000000000D+00 -.145433225847D-04 0.186322628903D-05 0.000000000000D+00  7 2 -2 24 -11 11 -24 21 2 0.35454867D-01 0.30197224D+00 0.42315416D+06 0.42315416D+06 0.42315416D+06 0.10736703D+01  1  2  3  1  7  1        2 -.116337864829D-03 0.100000000000D+01
0.236091539703D-03 0.000000000000D+00 0.000000000000D+00 0.186322628903D-05 0.000000000000D+00  7 2 -2 24 -11 11 -24 21 2 0.35454867D-01 0.30197224D+00 0.42315416D+06 0.42315416D+06 0.42315416D+06 0.10736703D+01  1  2 15  1  7  1        2 0.130725171846D-03 0.100000000000D+01
  </mgrwgt>
  </event>
  <event>
  8     66 0.26993063E-05 0.65529495E+02 0.75467711E-02 0.10398188E+00
        4 -1    0    0  501    0 0.00000000E+00 0.00000000E+00 0.90612081E+03 0.90612213E+03 0.15500000E+01 0.0000E+00 0.9000E+01
       -4 -1    0    0    0  501 0.00000000E+00 0.00000000E+00 -.19924286E+03 0.19924889E+03 0.15500000E+01 0.0000E+00 0.9000E+01
       25  2    1    2    0    0 0.26626604E+02 0.77400711E+02 0.85640108E+03 0.91122362E+03 0.30034287E+03 0.0000E+00 0.0000E+00
       23  2    1    2    0    0 -.26626604E+02 -.77400711E+02 -.14952313E+03 0.19414740E+03 0.92931154E+02 0.0000E+00 0.0000E+00
       24  1    3    3    0    0 -.26147705E+02 -.34095598E+02 0.80989535E+02 0.12195382E+03 0.80419002E+02 0.0000E+00 0.9000E+01
      -11  1    4    4    0    0 -.19546343E+02 -.79311152E+02 -.16099505E+03 0.18053179E+03 0.51099893E-03 0.0000E+00 0.9000E+01
       11  1    4    4    0    0 -.70802615E+01 0.19104409E+01 0.11471923E+02 0.13615612E+02 0.51099893E-03 0.0000E+00 0.9000E+01
      -24  1    3    3    0    0 0.52774309E+02 0.11149631E+03 0.77541154E+03 0.78926981E+03 0.80419002E+02 0.0000E+00 0.9000E+01
#aMCatNLO 1  0  0  1  2 0.12479089D+03 0.00000000D+00  -5  7  0 0.00000000D+00 0.00000000D+00 0.00000000D+00 0.00000000D+00 0.00000000D+00
  <mgrwgt>
 0.1732633437D-04    9    2    0
 0.424902536288449D+03 0.000000000000000D+00 0.000000000000000D+00 0.424902536288449D+03
 0.424902536288449D+03 0.000000000000000D+00 0.000000000000000D+00 -.424902536288449D+03
 0.912615130706660D+02 -.261477045582314D+02 -.340955980187746D+02 0.390327499087451D+01
 0.368741569377874D+03 -.195463427646253D+02 -.793111523914309D+02 -.359580347875309D+03
 0.816781911676144D+01 -.708026148583159D+01 0.191044091187974D+01 0.359630114681748D+01
 0.381634171011596D+03 0.527743088086883D+02 0.111496309498326D+03 0.352080771737617D+03
 0.000000000000000D+00 0.000000000000000D+00 0.000000000000000D+00 0.000000000000000D+00
 0.494241508038302D+03 0.000000000000000D+00 0.000000000000000D+00 0.494241508038302D+03
 0.489556071840961D+03 0.000000000000000D+00 0.000000000000000D+00 -.489556071840961D+03
 0.983806178361194D+02 -.318213855071767D+02 -.467300104878578D+02 0.390327499087451D+01
 0.384496420099519D+03 -.420815885482766D+02 -.129493669329706D+03 -.359580347875309D+03
 0.842541695188241D+01 -.757669509430170D+01 0.804959826607804D+00 0.359630114681748D+01
 0.367616300761770D+03 0.303583609000543D+02 0.615794505294035D+02 0.352080771737617D+03
 0.124878824229972D+03 0.511213082497008D+02 0.113839269461553D+03 0.468543619734025D+01
0.305075963922D-04 0.000000000000D+00 0.000000000000D+00 0.230280032056D-05 0.000000000000D+00  7 4 -4 24 -11 11 -24 21 0 0.13940377D+00 0.30653313D-01 0.26805850D+05 0.26805850D+05 0.26805850D+05 0.11718995D+01  1  2  2  1  7  1        4 0.200907262769D-04 0.100000000000D+01
0.179330139625D-06 0.000000000000D+00 -.117157202981D-06 0.230280032056D-05 0.000000000000D+00  7 4 -4 24 -11 11 -24 21 2 0.13940377D+00 0.30653313D-01 0.26805850D+05 0.26805850D+05 0.26805850D+05 0.11718995D+01  1  2  3  1  7  1        4 0.162189108275D-06 0.100000000000D+01
0.186465424113D-05 0.000000000000D+00 0.000000000000D+00 0.230280032056D-05 0.000000000000D+00  7 4 -4 24 -11 11 -24 21 2 0.13940377D+00 0.30653313D-01 0.26805850D+05 0.26805850D+05 0.26805850D+05 0.11718995D+01  1  2 15  1  7  1        4 0.168642376147D-05 0.100000000000D+01
0.244754539560D-05 0.000000000000D+00 0.000000000000D+00 0.230280032056D-05 0.000000000000D+00  7 4 -4 24 -11 11 -24 21 2 0.17117944D+00 0.30653313D-01 0.55840707D+05 0.55840707D+05 0.55840707D+05 0.11430988D+01  1  2 12  1  7  1        4 0.109455561573D-05 0.100000000000D+01
-.176763457885D-04 0.000000000000D+00 0.000000000000D+00 0.230280032056D-05 0.000000000000D+00  7 4 -4 24 -11 11 -24 21 2 0.13940377D+00 0.30653313D-01 0.26805850D+05 0.26805850D+05 0.26805850D+05 0.11718995D+01  1  2  4  1  7  1        4 -.159867759375D-04 0.100000000000D+01
-.199847786238D-04 0.000000000000D+00 -.173695426587D-04 0.230280032056D-05 0.000000000000D+00  7 4 -4 24 -11 11 -24 21 2 0.17942727D+00 0.30653313D-01 0.26805850D+05 0.26805850D+05 0.26805850D+05 0.11718995D+01  1  2  5  1  7  1        4 -.788423554869D-05 0.100000000000D+01
0.241348805858D-04 0.000000000000D+00 0.168306068015D-04 0.230280032056D-05 0.000000000000D+00  7 4 -4 24 -11 11 -24 21 2 0.13940377D+00 0.30653313D-01 0.26805850D+05 0.26805850D+05 0.26805850D+05 0.11718995D+01  1  2  6  1  7  1        4 0.218279803313D-04 0.100000000000D+01
0.714667205599D-07 0.000000000000D+00 0.000000000000D+00 0.230280032056D-05 0.000000000000D+00  7 21 -4 24 -11 11 -24 -4 2 0.17117944D+00 0.30653313D-01 0.55840707D+05 0.55840707D+05 0.55840707D+05 0.11430988D+01  1  2 12  3  7  1        4 0.897722404903D-06 0.100000000000D+01
-.385449379326D-06 0.000000000000D+00 -.591988522224D-06 0.230280032056D-05 0.000000000000D+00  7 21 -4 24 -11 11 -24 -4 2 0.17942727D+00 0.30653313D-01 0.26805850D+05 0.26805850D+05 0.26805850D+05 0.11718995D+01  1  2  5  3  7  1        4 -.456225164659D-05 0.100000000000D+01
  </mgrwgt>
  </event>
  <event>
  8     66 0.26993063E-05 0.32185652E+03 0.75467711E-02 0.92452156E-01
        2 -1    0    0  501    0 0.00000000E+00 0.00000000E+00 0.56324716E+03 0.56324725E+03 0.32000000E+00 0.0000E+00 0.9000E+01
       -2 -1    0    0    0  501 0.00000000E+00 0.00000000E+00 -.24846490E+03 0.24846511E+03 0.32000000E+00 0.0000E+00 0.9000E+01
       25  2    1    2    0    0 -.23255017E+03 0.98163646E+02 0.36768557E+03 0.53827529E+03 0.30138336E+03 0.0000E+00 0.0000E+00
       23  2    1    2    0    0 0.23255017E+03 -.98163646E+02 -.52903317E+02 0.27343707E+03 0.90848163E+02 0.0000E+00 0.0000E+00
       24  1    3    3    0    0 -.97497796E+02 -.80958634E+02 0.18362701E+03 0.23716285E+03 0.80419002E+02 0.0000E+00 0.9000E+01
      -11  1    4    4    0    0 0.14491065E+03 -.80987418E+02 0.65755117E+01 0.16613637E+03 0.51099893E-03 0.0000E+00 0.9000E+01
       11  1    4    4    0    0 0.87639519E+02 -.17176228E+02 -.59478829E+02 0.10730070E+03 0.51099893E-03 0.0000E+00 0.9000E+01
      -24  1    3    3    0    0 -.13505237E+03 0.17912228E+03 0.18405856E+03 0.30111244E+03 0.80419002E+02 0.0000E+00 0.9000E+01
#aMCatNLO 1  0  0  1  2 0.44095935D+03 0.00000000D+00  -5  7  0 0.00000000D+00 0.00000000D+00 0.00000000D+00 0.00000000D+00 0.00000000D+00
  <mgrwgt>
 0.5539726144D-03    5    2    0
 0.374095271107632D+03 0.000000000000000D+00 0.000000000000000D+00 0.374095271107632D+03
 0.374095271107632D+03 0.000000000000000D+00 0.000000000000000D+00 -.374095271107632D+03
 0.180041691040425D+03 -.974977959369267D+02 -.809586342585598D+02 0.994367833588524D+02
 0.177474969418322D+03 0.144910646341287D+03 -.809874179387069D+02 -.627639027037505D+02
 0.141434801070598D+03 0.876395191822196D+02 -.171762284867087D+02 -.109672671191875D+03
 0.249239080685920D+03 -.135052369586580D+03 0.179122280683975D+03 0.729997905367735D+02
 0.000000000000000D+00 0.000000000000000D+00 0.000000000000000D+00 0.000000000000000D+00
 0.135301751448645D+04 0.000000000000000D+00 0.000000000000000D+00 0.135301751448645D+04
 0.487141572930965D+03 0.000000000000000D+00 0.000000000000000D+00 -.487141572930965D+03
 0.282204564953580D+03 -.176690444083583D+03 -.179067064562581D+03 0.994367833588524D+02
 0.189502798178511D+03 0.820395233195391D+02 -.158875799442150D+03 -.627639027037505D+02
 0.139605671069023D+03 0.394912888038823D+02 -.768250395175912D+02 -.109672671191875D+03
 0.257153564734754D+03 -.221808236341235D+03 0.716440979718419D+02 0.729997905367735D+02
 0.971692488481549D+03 0.276967868301397D+03 0.343123805550481D+03 0.865875941555487D+03
0.138253321877D-04 0.000000000000D+00 0.000000000000D+00 0.326297616015D-06 0.000000000000D+00  7 2 -2 24 -11 11 -24 21 0 0.86653432D-01 0.38225393D-01 0.10359162D+06 0.10359162D+06 0.10359162D+06 0.11204666D+01  1  2  2  1  7  1        2 0.583927950578D-03 0.100000000000D+01
-.746948511129D-06 0.000000000000D+00 -.530929158942D-07 0.326297616015D-06 0.000000000000D+00  7 2 -2 24 -11 11 -24 21 2 0.86653432D-01 0.38225393D-01 0.10359162D+06 0.10359162D+06 0.10359162D+06 0.11204666D+01  1  2  3  1  7  1        2 -.396070248658D-04 0.100000000000D+01
0.884168176141D-06 0.000000000000D+00 0.000000000000D+00 0.326297616015D-06 0.000000000000D+00  7 2 -2 24 -11 11 -24 21 2 0.86653432D-01 0.38225393D-01 0.10359162D+06 0.10359162D+06 0.10359162D+06 0.11204666D+01  1  2 15  1  7  1        2 0.468831123112D-04 0.100000000000D+01
-.666667351233D-05 0.000000000000D+00 -.509313213094D-05 0.326297616015D-06 0.000000000000D+00  7 2 -2 24 -11 11 -24 21 2 0.34378674D+00 0.38225393D-01 0.10359162D+06 0.10359162D+06 0.10359162D+06 0.11204666D+01  1  2  5  1  7  1        2 -.363115975212D-04 0.100000000000D+01
-.102893572750D-05 0.000000000000D+00 -.836738739983D-06 0.326297616015D-06 0.000000000000D+00  7 21 -2 24 -11 11 -24 -2 2 0.34378674D+00 0.38225393D-01 0.10359162D+06 0.10359162D+06 0.10359162D+06 0.11204666D+01  1  2  5  3  7  1        2 -.919826150133D-06 0.100000000000D+01
  </mgrwgt>
  </event>
  <event>
  8     66 0.26993063E-05 0.27228826E+03 0.75467711E-02 0.96324174E-01
        2 -1    0    0  501    0 0.00000000E+00 0.00000000E+00 0.35624103E+03 0.35624117E+03 0.32000000E+00 0.0000E+00 0.9000E+01
       -2 -1    0    0    0  501 0.00000000E+00 0.00000000E+00 -.32414074E+03 0.32414089E+03 0.32000000E+00 0.0000E+00 0.9000E+01
       25  2    1    2    0    0 -.16851011E+03 -.16535711E+03 -.10356114E+03 0.39461378E+03 0.29875825E+03 0.0000E+00 0.0000E+00
       23  2    1    2    0    0 0.16851011E+03 0.16535711E+03 0.13566144E+03 0.28576829E+03 0.86722885E+02 0.0000E+00 0.0000E+00
       24  1    3    3    0    0 -.13543338E+03 -.74653156E+02 -.17753832E+03 0.24880186E+03 0.80419002E+02 0.0000E+00 0.9000E+01
      -13  1    4    4    0    0 0.20459073E+00 0.26293147E+02 0.38921654E+02 0.46971031E+02 0.10565837E+00 0.0000E+00 0.9000E+01
       13  1    4    4    0    0 0.16830552E+03 0.13906396E+03 0.96739782E+02 0.23879726E+03 0.10565837E+00 0.0000E+00 0.9000E+01
      -24  1    3    3    0    0 -.33076732E+02 -.90703951E+02 0.73977177E+02 0.14581192E+03 0.80419002E+02 0.0000E+00 0.9000E+01
#aMCatNLO 1  0  0  1  2 0.28485012D+03 0.00000000D+00  -5  7  0 0.00000000D+00 0.00000000D+00 0.00000000D+00 0.00000000D+00 0.00000000D+00
  <mgrwgt>
 0.6292992405D-03    5    2    0
 0.339812201403576D+03 0.000000000000000D+00 0.000000000000000D+00 0.339812201403576D+03
 0.339812201403576D+03 0.000000000000000D+00 0.000000000000000D+00 -.339812201403576D+03
 0.257464793250994D+03 -.135433382945480D+03 -.746531558843440D+02 -.189487753983885D+03
 0.451847508040421D+02 0.204342039242924D+00 0.262929795808408D+02 0.367464171629815D+02
 0.234494505207985D+03 0.168305772518117D+03 0.139064126936534D+03 0.855687355825535D+02
 0.142480353544131D+03 -.330767316118799D+02 -.907039506330308D+02 0.671726012383504D+02
 0.000000000000000D+00 -.000000000000000D+00 -.000000000000000D+00 0.000000000000000D+00
 0.109676259659692D+04 0.000000000000000D+00 0.000000000000000D+00 0.109676259659692D+04
 0.396304484225643D+03 0.000000000000000D+00 0.000000000000000D+00 -.396304484225643D+03
 0.214698711634221D+03 -.479708491805683D+02 -.377029115859959D+02 -.189487753983885D+03
 0.533605930389223D+02 0.184586657513974D+02 0.340048727953481D+02 0.367464171629815D+02
 0.341921956855715D+03 0.275079895791693D+03 0.184172926897728D+03 0.855687355825535D+02
 0.126923696662288D+03 0.168270847436668D+02 -.696211152018772D+02 0.671726012383504D+02
 0.756162122631418D+03 -.262394797106189D+03 -.110853772905203D+03 0.700458112371279D+03
0.215900388242D-04 0.000000000000D+00 0.000000000000D+00 0.230410564263D-07 0.000000000000D+00  7 2 -2 24 -13 13 -24 21 0 0.54806335D-01 0.49867829D-01 0.74140896D+05 0.74140896D+05 0.74140896D+05 0.11325439D+01  1  2  2  1  7  1        2 0.916193551517D-03 0.100000000000D+01
-.112787599117D-05 0.000000000000D+00 -.829114338726D-07 0.230410564263D-07 0.000000000000D+00  7 2 -2 24 -13 13 -24 21 2 0.54806335D-01 0.49867829D-01 0.74140896D+05 0.74140896D+05 0.74140896D+05 0.11325439D+01  1  2  3  1  7  1        2 -.613910744036D-04 0.100000000000D+01
0.136433265848D-05 0.000000000000D+00 0.000000000000D+00 0.230410564263D-07 0.000000000000D+00  7 2 -2 24 -13 13 -24 21 2 0.54806335D-01 0.49867829D-01 0.74140896D+05 0.74140896D+05 0.74140896D+05 0.11325439D+01  1  2 15  1  7  1        2 0.742615752123D-04 0.100000000000D+01
-.235699945664D-04 0.000000000000D+00 -.768965664590D-05 0.230410564263D-07 0.000000000000D+00  7 2 -2 24 -13 13 -24 21 2 0.18941637D+00 0.49867829D-01 0.74140896D+05 0.74140896D+05 0.74140896D+05 0.11325439D+01  1  2  5  1  7  1        2 -.279931480805D-03 0.100000000000D+01
-.315362263075D-05 0.000000000000D+00 -.111330484970D-05 0.230410564263D-07 0.000000000000D+00  7 21 -2 24 -13 13 -24 -2 2 0.18941637D+00 0.49867829D-01 0.74140896D+05 0.74140896D+05 0.74140896D+05 0.11325439D+01  1  2  5  3  7  1        2 -.198333309723D-04 0.100000000000D+01
  </mgrwgt>
  </event>
  <event>
  8     66 0.26993063E-05 0.10576208E+03 0.75467711E-02 0.97582772E-01
        2 -1    0    0  501    0 0.00000000E+00 0.00000000E+00 0.56380013E+03 0.56380022E+03 0.32000000E+00 0.0000E+00 0.9000E+01
       -2 -1    0    0    0  501 0.00000000E+00 0.00000000E+00 -.29442805E+03 0.29442822E+03 0.32000000E+00 0.0000E+00 0.9000E+01
       25  2    1    2    0    0 -.12702437E+03 0.23705014E+03 -.79371933E+02 0.40859132E+03 0.29718512E+03 0.0000E+00 0.0000E+00
       23  2    1    2    0    0 0.12702437E+03 -.23705014E+03 0.34874401E+03 0.44963712E+03 0.90681824E+02 0.0000E+00 0.0000E+00
       24  1    3    3    0    0 0.48040794E+02 0.50751301E+02 0.41835154E+02 0.11445964E+03 0.80419002E+02 0.0000E+00 0.9000E+01
      -13  1    4    4    0    0 0.21746374E+02 0.25979751E+01 0.31141683E+02 0.38071904E+02 0.10565837E+00 0.0000E+00 0.9000E+01
       13  1    4    4    0    0 0.10527800E+03 -.23964812E+03 0.31760233E+03 0.41156522E+03 0.10565837E+00 0.0000E+00 0.9000E+01
      -24  1    3    3    0    0 -.17506516E+03 0.18629884E+03 -.12120709E+03 0.29413168E+03 0.80419002E+02 0.0000E+00 0.9000E+01
#aMCatNLO 1  0  0  1  2 0.11100705D+03 0.00000000D+00  -5  7  0 0.00000000D+00 0.00000000D+00 0.00000000D+00 0.00000000D+00 0.00000000D+00
  <mgrwgt>
 0.1269335635D-02    9    2    0
 0.407429359634645D+03 0.000000000000000D+00 0.000000000000000D+00 0.407429359634645D+03
 0.407429359634645D+03 0.000000000000000D+00 0.000000000000000D+00 -.407429359634645D+03
 0.106721927150780D+03 0.480407939015058D+02 0.507513010055870D+02 0.622425481156191D+01
 0.298031543401202D+02 0.217462608061612D+02 0.259830390074905D+01 0.202132868779620D+02
 0.328479154911259D+03 0.105278108671607D+03 -.239648447048360D+03 0.198453261180192D+03
 0.349854482867130D+03 -.175065163379274D+03 0.186298842142024D+03 -.224890802869716D+03
 0.000000000000000D+00 0.000000000000000D+00 -.000000000000000D+00 0.000000000000000D+00
 0.505516850232674D+03 0.000000000000000D+00 0.000000000000000D+00 0.505516850232674D+03
 0.443852672644025D+03 0.000000000000000D+00 0.000000000000000D+00 -.443852672644025D+03
 0.109884522651381D+03 0.399663259923853D+02 0.630185988630530D+02 0.622425481156191D+01
 0.287453299413616D+02 0.195637410432905D+02 0.591414097042128D+01 0.202132868779620D+02
 0.296358080105697D+03 0.819859665993086D+02 -.204261391485659D+03 0.198453261180192D+03
 0.387397194963509D+03 -.202547793831995D+03 0.228052381503966D+03 -.224890802869716D+03
 0.126984395214750D+03 0.610317601970108D+02 -.927237298517809D+02 0.616641775886493D+02
0.320001820975D-04 0.000000000000D+00 0.000000000000D+00 0.141749775542D-06 0.000000000000D+00  7 2 -2 24 -13 13 -24 21 0 0.86738501D-01 0.45296643D-01 0.10830399D+06 0.10830399D+06 0.10830399D+06 0.11188901D+01  1  2  2  1  7  1        2 0.980936270184D-03 0.100000000000D+01
-.167924298760D-05 0.000000000000D+00 -.122889125096D-06 0.141749775542D-06 0.000000000000D+00  7 2 -2 24 -13 13 -24 21 2 0.86738501D-01 0.45296643D-01 0.10830399D+06 0.10830399D+06 0.10830399D+06 0.11188901D+01  1  2  3  1  7  1        2 -.644431488285D-04 0.100000000000D+01
0.205267149582D-05 0.000000000000D+00 0.000000000000D+00 0.141749775542D-06 0.000000000000D+00  7 2 -2 24 -13 13 -24 21 2 0.86738501D-01 0.45296643D-01 0.10830399D+06 0.10830399D+06 0.10830399D+06 0.11188901D+01  1  2 15  1  7  1        2 0.787739568832D-04 0.100000000000D+01
0.309871019834D-04 0.000000000000D+00 0.000000000000D+00 0.141749775542D-06 0.000000000000D+00  7 2 -2 24 -13 13 -24 21 2 0.11078748D+00 0.45296643D-01 0.15081244D+06 0.15081244D+06 0.15081244D+06 0.11073668D+01  1  2 12  1  7  1        2 0.868230103503D-03 0.100000000000D+01
-.341111500716D-04 0.000000000000D+00 0.000000000000D+00 0.141749775542D-06 0.000000000000D+00  7 2 -2 24 -13 13 -24 21 2 0.86738501D-01 0.45296643D-01 0.10830399D+06 0.10830399D+06 0.10830399D+06 0.11188901D+01  1  2  4  1  7  1        2 -.130906005683D-02 0.100000000000D+01
-.568547582004D-04 0.000000000000D+00 -.179320449968D-04 0.141749775542D-06 0.000000000000D+00  7 2 -2 24 -13 13 -24 21 2 0.11443834D+00 0.45296643D-01 0.10830399D+06 0.10830399D+06 0.10830399D+06 0.11188901D+01  1  2  5  1  7  1        2 -.157381856220D-02 0.100000000000D+01
0.601663030682D-04 0.000000000000D+00 0.172647744290D-04 0.141749775542D-06 0.000000000000D+00  7 2 -2 24 -13 13 -24 21 2 0.86738501D-01 0.45296643D-01 0.10830399D+06 0.10830399D+06 0.10830399D+06 0.11188901D+01  1  2  6  1  7  1        2 0.230896067557D-02 0.100000000000D+01
0.103227934371D-05 0.000000000000D+00 0.000000000000D+00 0.141749775542D-06 0.000000000000D+00  7 21 -2 24 -13 13 -24 -2 2 0.11078748D+00 0.45296643D-01 0.15081244D+06 0.15081244D+06 0.15081244D+06 0.11073668D+01  1  2 12  3  7  1        2 0.340606848573D-04 0.100000000000D+01
-.172004607721D-05 0.000000000000D+00 -.654460457853D-06 0.141749775542D-06 0.000000000000D+00  7 21 -2 24 -13 13 -24 -2 2 0.11443834D+00 0.45296643D-01 0.10830399D+06 0.10830399D+06 0.10830399D+06 0.11188901D+01  1  2  5  3  7  1        2 -.543042876571D-04 0.100000000000D+01
  </mgrwgt>
  </event>
  <event>
  8     66 0.26993063E-05 0.19014798E+03 0.75467711E-02 0.99115739E-01
        2 -1    0    0  501    0 0.00000000E+00 0.00000000E+00 0.24102885E+04 0.24102885E+04 0.32000000E+00 0.0000E+00 0.9000E+01
       -2 -1    0    0    0  501 0.00000000E+00 0.00000000E+00 -.32359848E+02 0.32361430E+02 0.32000000E+00 0.0000E+00 0.9000E+01
       25  2    1    2    0    0 0.54895454E+02 0.41071261E+02 0.22576634E+04 0.22786566E+04 0.30088512E+03 0.0000E+00 0.0000E+00
       23  2    1    2    0    0 -.54895454E+02 -.41071261E+02 0.12026526E+03 0.16399329E+03 0.87918743E+02 0.0000E+00 0.0000E+00
       24  1    3    3    0    0 -.43924271E+02 -.81758621E+02 0.67012444E+03 0.68128393E+03 0.80419002E+02 0.0000E+00 0.9000E+01
      -13  1    4    4    0    0 -.23472833E+02 0.57147219E+01 0.10188941E+03 0.10471435E+03 0.10565837E+00 0.0000E+00 0.9000E+01
       13  1    4    4    0    0 -.31422621E+02 -.46785983E+02 0.18375853E+02 0.59278937E+02 0.10565837E+00 0.0000E+00 0.9000E+01
      -24  1    3    3    0    0 0.98819724E+02 0.12282988E+03 0.15875389E+04 0.15973727E+04 0.80419002E+02 0.0000E+00 0.9000E+01
#aMCatNLO 1  0  0  1  1 0.23307325D+03 0.00000000D+00  -5  7  0 0.00000000D+00 0.00000000D+00 0.00000000D+00 0.00000000D+00 0.00000000D+00
  <mgrwgt>
 0.1035861995D-02    3    2    0
 0.279282161647706D+03 0.000000000000000D+00 0.000000000000000D+00 0.279282161647706D+03
 0.279282161647706D+03 0.000000000000000D+00 0.000000000000000D+00 -.279282161647706D+03
 0.126449272955953D+03 -.439242684935965D+02 -.817586176287025D+02 0.301395049306498D+02
 0.241594844063614D+02 -.234728209844488D+02 0.571479738964108D+01 -.220119532506835D+00
 0.181002166102767D+03 -.314226338776481D+02 -.467860590161895D+02 -.172004264179173D+03
 0.226953399830330D+03 0.988197233556933D+02 0.122829879255251D+03 0.142084878781030D+03
 0.000000000000000D+00 0.000000000000000D+00 0.000000000000000D+00 -.000000000000000D+00
 0.412820040381165D+03 0.000000000000000D+00 0.000000000000000D+00 0.412820040381165D+03
 0.425859137207045D+03 0.000000000000000D+00 0.000000000000000D+00 -.425859137207045D+03
 0.166364639052856D+03 -.986610494360818D+02 -.102798758453217D+03 0.301395049306498D+02
 0.344652130110167D+02 -.344317511744118D+02 0.150232032188797D+01 -.220119532506835D+00
 0.215371166208067D+03 -.105518157936930D+03 -.752674609881393D+02 -.172004264179173D+03
 0.189040458601192D+03 0.210564622245060D+02 0.929386445680512D+02 0.142084878781030D+03
 0.233437700715078D+03 0.217554496322917D+03 0.836252545514172D+02 -.130390968258802D+02
0.107393047684D-04 0.000000000000D+00 0.000000000000D+00 0.575083203891D-07 0.000000000000D+00  7 2 -2 24 -13 13 -24 21 0 0.37081373D+00 0.49785614D-02 0.36156256D+05 0.36156256D+05 0.36156256D+05 0.11598887D+01  1  2  2  1  7  1        2 0.101329546556D-02 0.100000000000D+01
-.489427484557D-06 0.000000000000D+00 -.412417580345D-07 0.575083203891D-07 0.000000000000D+00  7 2 -2 24 -13 13 -24 21 2 0.37081373D+00 0.49785614D-02 0.36156256D+05 0.36156256D+05 0.36156256D+05 0.11598887D+01  1  2  3  1  7  1        2 -.621270797004D-04 0.100000000000D+01
0.667203100628D-06 0.000000000000D+00 0.000000000000D+00 0.575083203891D-07 0.000000000000D+00  7 2 -2 24 -13 13 -24 21 2 0.37081373D+00 0.49785614D-02 0.36156256D+05 0.36156256D+05 0.36156256D+05 0.11598887D+01  1  2 15  1  7  1        2 0.846936094048D-04 0.100000000000D+01
  </mgrwgt>
  </event>
  <event>
  8     66 0.26993063E-05 0.36514550E+03 0.75467711E-02 0.85822949E-01
        2 -1    0    0  501    0 0.00000000E+00 0.00000000E+00 0.33754739E+04 0.33754739E+04 0.32000000E+00 0.0000E+00 0.9000E+01
       -2 -1    0    0    0  501 0.00000000E+00 0.00000000E+00 -.19894159E+03 0.19894184E+03 0.32000000E+00 0.0000E+00 0.9000E+01
       25  2    1    2    0    0 -.42257867E+01 -.78679031E+03 0.17667484E+04 0.19573122E+04 0.30102236E+03 0.0000E+00 0.0000E+00
       23  2    1    2    0    0 0.42257867E+01 0.78679031E+03 0.14097839E+04 0.16171035E+04 0.92066498E+02 0.0000E+00 0.0000E+00
       24  1    3    3    0    0 0.69623775E+01 -.57083276E+02 0.12907586E+03 0.16258773E+03 0.80419002E+02 0.0000E+00 0.9000E+01
      -13  1    4    4    0    0 0.40483435E+01 0.15935241E+03 0.21569274E+03 0.26820318E+03 0.10565837E+00 0.0000E+00 0.9000E+01
       13  1    4    4    0    0 0.17744317E+00 0.62743790E+03 0.11940912E+04 0.13489004E+04 0.10565837E+00 0.0000E+00 0.9000E+01
      -24  1    3    3    0    0 -.11188164E+02 -.72970704E+03 0.16376725E+04 0.17947245E+04 0.80419002E+02 0.0000E+00 0.9000E+01
#aMCatNLO 1  0  0  2  1 0.62168846D+03 0.00000000D+00  -5  7  0 0.00000000D+00 0.00000000D+00 0.00000000D+00 0.00000000D+00 0.00000000D+00
  <mgrwgt>
 0.5256830069D-03    7    2    0
 0.819464836230861D+03 0.000000000000000D+00 0.000000000000000D+00 0.819464836230861D+03
 0.819464836230861D+03 0.000000000000000D+00 0.000000000000000D+00 -.819464836230861D+03
 0.104423326787390D+03 0.696237747819220D+01 -.570832757572532D+02 -.336160698423839D+02
 0.166885585708591D+03 0.404834863192647D+01 0.159351791428532D+03 -.494106887137937D+02
 0.627520756158522D+03 0.177438076863305D+00 0.627438520932598D+03 -.101572818906105D+02
 0.740100003807219D+03 -.111881641869820D+02 -.729707036603877D+03 0.931840404467882D+02
 0.000000000000000D+00 -.000000000000000D+00 -.000000000000000D+00 -.000000000000000D+00
 0.908286096135526D+03 0.000000000000000D+00 0.000000000000000D+00 0.908286096135526D+03
 0.391051904017616D+04 0.000000000000000D+00 0.000000000000000D+00 -.391051904017616D+04
 0.111340663860972D+03 0.461389562145161D+02 -.516786613837688D+02 -.336160698423839D+02
 0.188270527722460D+03 0.685345559907541D+02 0.168248001726239D+03 -.494106887137937D+02
 0.703742908028136D+03 0.241896900171044D+03 0.660784987656448D+03 -.101572818906105D+02
 0.749525533913810D+03 0.259285291512471D+03 -.692393805753428D+03 0.931840404467882D+02
 0.306592550278631D+04 -.615855703888785D+03 -.849605222454904D+02 -.300223294404063D+04
0.612270643846D-03 0.000000000000D+00 0.000000000000D+00 0.276991934402D-05 0.000000000000D+00  7 2 -2 24 -13 13 -24 21 0 0.51930370D+00 0.30606419D-01 0.65603241D+06 0.65603241D+06 0.65603241D+06 0.10602725D+01  1  2  2  2  7  2       -2 0.708486450081D-03 0.100000000000D+01
-.340094045642D-04 0.000000000000D+00 -.235128048693D-05 0.276991934402D-05 0.000000000000D+00  7 2 -2 24 -13 13 -24 21 2 0.51930370D+00 0.30606419D-01 0.65603241D+06 0.65603241D+06 0.65603241D+06 0.10602725D+01  1  2  3  2  7  2       -2 -.442407129056D-04 0.100000000000D+01
0.395167797356D-04 0.000000000000D+00 0.000000000000D+00 0.276991934402D-05 0.000000000000D+00  7 2 -2 24 -13 13 -24 21 2 0.51930370D+00 0.30606419D-01 0.65603241D+06 0.65603241D+06 0.65603241D+06 0.10602725D+01  1  2 15  2  7  2       -2 0.514049137184D-04 0.100000000000D+01
0.283194035040D-03 0.000000000000D+00 0.000000000000D+00 0.276991934402D-05 0.000000000000D+00  7 2 -2 24 -13 13 -24 21 2 0.51930370D+00 0.13934178D+00 0.13887259D+07 0.13887259D+07 0.13887259D+07 0.10385004D+01  1  2 12  2  7  2       -2 0.120727357353D-04 0.100000000000D+01
-.223679374127D-02 0.000000000000D+00 -.246492474945D-03 0.276991934402D-05 0.000000000000D+00  7 2 -2 24 -13 13 -24 21 2 0.51930370D+00 0.15260841D+00 0.65603241D+06 0.65603241D+06 0.65603241D+06 0.10602725D+01  1  2  5  2  7  2       -2 -.833587794704D-04 0.100000000000D+01
0.519557963265D-04 0.000000000000D+00 0.000000000000D+00 0.276991934402D-05 0.000000000000D+00  7 2 21 24 -13 13 -24 2 2 0.51930370D+00 0.13934178D+00 0.13887259D+07 0.13887259D+07 0.13887259D+07 0.10385004D+01  1  2 12  4  7  2       -2 0.182428358090D-04 0.100000000000D+01
-.444798956695D-03 0.000000000000D+00 -.482592672857D-04 0.276991934402D-05 0.000000000000D+00  7 2 21 24 -13 13 -24 2 2 0.51930370D+00 0.15260841D+00 0.65603241D+06 0.65603241D+06 0.65603241D+06 0.10602725D+01  1  2  5  4  7  2       -2 -.136924436096D-03 0.100000000000D+01
  </mgrwgt>
  </event>
  <event>
  8     66 0.26993063E-05 0.14807625E+03 0.75467711E-02 0.10260120E+00
        2 -1    0    0  501    0 0.00000000E+00 0.00000000E+00 0.71261092E+03 0.71261099E+03 0.32000000E+00 0.0000E+00 0.9000E+01
       -2 -1    0    0    0  501 0.00000000E+00 0.00000000E+00 -.18131105E+03 0.18131133E+03 0.32000000E+00 0.0000E+00 0.9000E+01
       25  2    1    2    0    0 -.35862608E+02 -.15174314E+03 0.60826647E+03 0.69714206E+03 0.30283139E+03 0.0000E+00 0.0000E+00
       23  2    1    2    0    0 0.35862608E+02 0.15174314E+03 -.76966602E+02 0.19678025E+03 0.92122216E+02 0.0000E+00 0.0000E+00
       24  1    3    3    0    0 0.10979602E+03 -.88524313E+02 0.27627925E+03 0.32045150E+03 0.80419002E+02 0.0000E+00 0.9000E+01
      -11  1    4    4    0    0 -.16985524E+02 0.42196017E+02 -.57957047E+02 0.73675173E+02 0.51099893E-03 0.0000E+00 0.9000E+01
       11  1    4    4    0    0 0.52848132E+02 0.10954713E+03 -.19009555E+02 0.12310508E+03 0.51099893E-03 0.0000E+00 0.9000E+01
      -24  1    3    3    0    0 -.14565863E+03 -.63218830E+02 0.33198722E+03 0.37669057E+03 0.80419002E+02 0.0000E+00 0.9000E+01
#aMCatNLO 1  0  0  2  1 0.14596360D+02 0.00000000D+00  -5  7  0 0.00000000D+00 0.00000000D+00 0.00000000D+00 0.00000000D+00 0.00000000D+00
  <mgrwgt>
 0.5160166225D-03    9    2    0
 0.359450121497113D+03 0.000000000000000D+00 0.000000000000000D+00 0.359450121497113D+03
 0.359450121497113D+03 0.000000000000000D+00 0.000000000000000D+00 -.359450121497113D+03
 0.194285109787014D+03 0.109796016916670D+03 -.885243132978166D+02 0.106713488158554D+03
 0.134444874000658D+03 -.169855240432041D+02 0.421960169185362D+02 -.126516450607189D+03
 0.167124931314389D+03 0.528481320904442D+02 0.109547126042226D+03 -.114617820504836D+03
 0.223045327892166D+03 -.145658624963910D+03 -.632188296629457D+02 0.134420782953470D+03
 0.000000000000000D+00 0.000000000000000D+00 -.000000000000000D+00 -.000000000000000D+00
 0.362025757932010D+03 0.000000000000000D+00 0.000000000000000D+00 0.362025757932010D+03
 0.380816341506797D+03 0.000000000000000D+00 0.000000000000000D+00 -.380816341506797D+03
 0.191706285960359D+03 0.106011711736842D+03 -.875090426299099D+02 0.106713488158554D+03
 0.135027672212009D+03 -.196274646763098D+02 0.429048088112833D+02 -.126516450607189D+03
 0.166699351841399D+03 0.495752794366877D+02 0.110425181891805D+03 -.114617820504836D+03
 0.225615098020580D+03 -.150057344708629D+03 -.620387210509447D+02 0.134420782953470D+03
 0.237936914044611D+02 0.140978182114095D+02 -.378222702223340D+01 -.187905835747871D+02
0.789259370164D-05 0.000000000000D+00 0.000000000000D+00 0.575025907272D-07 0.000000000000D+00  7 2 -2 24 -11 11 -24 21 0 0.10963248D+00 0.27894035D-01 0.64378607D+05 0.64378607D+05 0.64378607D+05 0.11377633D+01  1  2  2  2  7  2       -2 0.446230493516D-03 0.100000000000D+01
-.373799905436D-06 0.000000000000D+00 -.303096379820D-07 0.575025907272D-07 0.000000000000D+00  7 2 -2 24 -11 11 -24 21 2 0.10963248D+00 0.27894035D-01 0.64378607D+05 0.64378607D+05 0.64378607D+05 0.11377633D+01  1  2  3  2  7  2       -2 -.273578856320D-04 0.100000000000D+01
0.478604437797D-06 0.000000000000D+00 0.000000000000D+00 0.575025907272D-07 0.000000000000D+00  7 2 -2 24 -11 11 -24 21 2 0.10963248D+00 0.27894035D-01 0.64378607D+05 0.64378607D+05 0.64378607D+05 0.11377633D+01  1  2 15  2  7  2       -2 0.350283809113D-04 0.100000000000D+01
0.568533464367D-04 0.000000000000D+00 0.000000000000D+00 0.575025907272D-07 0.000000000000D+00  7 2 -2 24 -11 11 -24 21 2 0.10963248D+00 0.29648483D-01 0.68455311D+05 0.68455311D+05 0.68455311D+05 0.11354844D+01  1  2 12  2  7  2       -2 0.372595344506D-02 0.100000000000D+01
-.579582333499D-04 0.000000000000D+00 0.000000000000D+00 0.575025907272D-07 0.000000000000D+00  7 2 -2 24 -11 11 -24 21 2 0.10963248D+00 0.27894035D-01 0.64378607D+05 0.64378607D+05 0.64378607D+05 0.11377633D+01  1  2  4  2  7  2       -2 -.424188100736D-02 0.100000000000D+01
-.138890719877D-03 0.000000000000D+00 -.160195955867D-04 0.575025907272D-07 0.000000000000D+00  7 2 -2 24 -11 11 -24 21 2 0.10963248D+00 0.29719986D-01 0.64378607D+05 0.64378607D+05 0.64378607D+05 0.11377633D+01  1  2  5  2  7  2       -2 -.910611688239D-02 0.100000000000D+01
0.139657785184D-03 0.000000000000D+00 0.159874465742D-04 0.575025907272D-07 0.000000000000D+00  7 2 -2 24 -11 11 -24 21 2 0.10963248D+00 0.27894035D-01 0.64378607D+05 0.64378607D+05 0.64378607D+05 0.11377633D+01  1  2  6  2  7  2       -2 0.102213554876D-01 0.100000000000D+01
0.803009687014D-06 0.000000000000D+00 0.000000000000D+00 0.575025907272D-07 0.000000000000D+00  7 2 21 24 -11 11 -24 2 2 0.10963248D+00 0.29648483D-01 0.68455311D+05 0.68455311D+05 0.68455311D+05 0.11354844D+01  1  2 12  4  7  2       -2 0.632296283107D-03 0.100000000000D+01
-.148280784076D-05 0.000000000000D+00 -.173596409960D-06 0.575025907272D-07 0.000000000000D+00  7 2 21 24 -11 11 -24 2 2 0.10963248D+00 0.29719986D-01 0.64378607D+05 0.64378607D+05 0.64378607D+05 0.11377633D+01  1  2  5  4  7  2       -2 -.116949169237D-02 0.100000000000D+01
  </mgrwgt>
  </event>
  <event>
  9     66 0.26993063E-05 0.17002673E+03 0.75467711E-02 0.10444486E+00
        2 -1    0    0  501    0 0.00000000E+00 0.00000000E+00 0.62513044E+03 0.62513053E+03 0.32000000E+00 0.0000E+00 0.9000E+01
       21 -1    0    0  502  501 0.00000000E+00 0.00000000E+00 -.13485994E+03 0.13486203E+03 0.75000000E+00 0.0000E+00 0.9000E+01
       25  2    1    2    0    0 0.84609467E+01 -.13029062E+03 0.22353819E+03 0.39651705E+03 0.30034848E+03 0.0000E+00 0.0000E+00
       23  2    1    2    0    0 0.69780104E+02 0.69238550E+02 0.20944504E+03 0.24888515E+03 0.91724327E+02 0.0000E+00 0.0000E+00
       24  1    3    3    0    0 -.34809058E+02 -.88095785E+02 0.26108117E+03 0.28914206E+03 0.80419002E+02 0.0000E+00 0.9000E+01
      -13  1    4    4    0    0 -.21705031E+02 0.17086091E+02 0.60125994E+02 0.66167886E+02 0.10565837E+00 0.0000E+00 0.9000E+01
       13  1    4    4    0    0 0.91485135E+02 0.52152459E+02 0.14931905E+03 0.18271726E+03 0.10565837E+00 0.0000E+00 0.9000E+01
      -24  1    3    3    0    0 0.43270005E+02 -.42194833E+02 -.37542975E+02 0.10737499E+03 0.80419002E+02 0.0000E+00 0.9000E+01
        2  1    1    2  502    0 -.78241051E+02 0.61052068E+02 0.57287266E+02 0.11459036E+03 0.32000000E+00 0.0000E+00 0.9000E+01
#aMCatNLO 2  0  0  2  1 0.99242214D+02 0.00000000D+00  -5  7  0 0.00000000D+00 0.00000000D+00 0.00000000D+00 0.00000000D+00 0.00000000D+00
  <mgrwgt>
 0.1454685215D-03    2    2    0
 0.234104942133230D+03 0.000000000000000D+00 0.000000000000000D+00 0.234104942133230D+03
 0.234104942133230D+03 0.000000000000000D+00 0.000000000000000D+00 -.234104942133230D+03
 0.151458184785832D+03 -.600270611860072D+02 -.684180018624449D+02 0.904880916517232D+02
 0.414614771763571D+02 -.280097580124921D+02 0.220055728352674D+02 0.212193852389498D+02
 0.105293892506923D+03 0.735862514708222D+02 0.661192546182444D+02 0.360570598144138D+02
 0.169996329797347D+03 0.144505677276771D+02 -.197068255910669D+02 -.147764536705087D+03
 0.000000000000000D+00 -.000000000000000D+00 0.000000000000000D+00 -.000000000000000D+00
 0.277447400474698D+03 0.000000000000000D+00 0.000000000000000D+00 0.277447400474698D+03
 0.303862041385441D+03 0.000000000000000D+00 0.000000000000000D+00 -.303862041385441D+03
 0.153713532757568D+03 -.348090613026000D+02 -.880957928558601D+02 0.904880916517232D+02
 0.348325938744574D+02 -.217051636996509D+02 0.170860514711646D+02 0.212193852389498D+02
 0.111308363905686D+03 0.914852747516480D+02 0.521525149586844D+02 0.360570598144138D+02
 0.178757578694766D+03 0.432700012403555D+02 -.421948417633666D+02 -.147764536705087D+03
 0.102697372627663D+03 -.782410509897526D+02 0.610520681893777D+02 -.264146409107434D+02
-.258509000879D-07 0.000000000000D+00 0.000000000000D+00 0.300134175457D-06 0.000000000000D+00  7 2 21 24 -13 13 -24 2 2 0.81149826D-01 0.21865789D-01 0.52218312D+05 0.52218312D+05 0.52218312D+05 0.11456408D+01  1  2 13  4  7  2       -2 -.525065657425D-04 0.100000000000D+01
0.107209827158D-06 0.000000000000D+00 0.000000000000D+00 0.300134175457D-06 0.107806424153D-10  7 2 21 24 -13 13 -24 2 2 0.96173998D-01 0.20747832D-01 0.52218312D+05 0.52218312D+05 0.52218312D+05 0.11456408D+01  1  2  1  4  7  2       -2 0.197975087196D-03 0.100000000000D+01
  </mgrwgt>
  </event>
  <event>
  8     66 -.26993063E-05 0.32823492E+03 0.75467711E-02 0.99206684E-01
        2 -1    0    0  501    0 0.00000000E+00 0.00000000E+00 0.13457008E+04 0.13457009E+04 0.32000000E+00 0.0000E+00 0.9000E+01
       -2 -1    0    0    0  502 0.00000000E+00 0.00000000E+00 -.15470503E+03 0.15470536E+03 0.32000000E+00 0.0000E+00 0.9000E+01
       25  2    1    2    0    0 -.11405856E+03 -.22894584E+03 0.60220840E+03 0.71952769E+03 0.29939871E+03 0.0000E+00 0.0000E+00
       24  1    3    3    0    0 -.62337970E+02 0.23929587E+02 0.80498312E+02 0.13193120E+03 0.80419002E+02 0.0000E+00 0.9000E+01
      -11  1    1    2    0    0 0.58381134E+02 -.61611221E+01 -.59793060E+02 0.83794548E+02 0.51099893E-03 0.0000E+00 0.9000E+01
       11  1    1    2    0    0 0.35250897E+02 0.21621866E+03 0.61826586E+03 0.65593125E+03 0.51099893E-03 0.0000E+00 0.9000E+01
      -24  1    3    3    0    0 -.51720591E+02 -.25287542E+03 0.52171009E+03 0.58759649E+03 0.80419002E+02 0.0000E+00 0.9000E+01
       21  1    1    2  501  502 0.20426531E+02 0.18888302E+02 0.30314604E+02 0.41152750E+02 0.75000000E+00 0.0000E+00 0.9000E+01
#aMCatNLO 2  0  0  2  1 0.27821055D+02 0.00000000D+00  -5  7  0 0.00000000D+00 0.00000000D+00 0.00000000D+00 0.00000000D+00 0.00000000D+00
  <mgrwgt>
 -.5468885407D-02    3    2    0
 0.442002794323356D+03 0.000000000000000D+00 0.000000000000000D+00 0.442002794323356D+03
 0.442002794323356D+03 0.000000000000000D+00 0.000000000000000D+00 -.442002794323356D+03
 0.111160863777047D+03 -.597599783019140D+02 0.263134013264555D+02 -.403220979771175D+02
 0.218046367174054D+03 0.634029786398926D+02 -.151728412184843D+01 -.208619218640770D+03
 0.276428581221399D+03 0.415724582121885D+02 0.222064146313733D+03 0.159285925794542D+03
 0.278369776474213D+03 -.452154585501671D+02 -.246860263518340D+03 0.896553908233451D+02
 0.000000000000000D+00 0.000000000000000D+00 0.000000000000000D+00 -.000000000000000D+00
 0.454279702150592D+03 0.000000000000000D+00 0.000000000000000D+00 0.454279702150592D+03
 0.458269209086527D+03 0.000000000000000D+00 0.000000000000000D+00 -.458269209086527D+03
 0.112034530464453D+03 -.623380045574006D+02 0.239295145070933D+02 -.403220979771175D+02
 0.216721703736618D+03 0.583811747372448D+02 -.616091880456971D+01 -.208619218640770D+03
 0.270860054251931D+03 0.352509815689338D+02 0.216218711335447D+03 0.159285925794542D+03
 0.284826978157637D+03 -.517206824835730D+02 -.252875608613776D+03 0.896553908233451D+02
 0.281056446264797D+02 0.204265307347951D+02 0.188883015758051D+02 -.398950693593574D+01
-.664543755657D-03 0.000000000000D+00 0.000000000000D+00 0.204978412663D-09 0.000000000000D+00  7 2 -2 24 -11 11 -24 21 2 0.20143371D+00 0.24109096D-01 0.11576162D+06 0.11576162D+06 0.11576162D+06 0.11165429D+01  1  2 13  2  7  2       -2 -.255299678615D-01 0.100000000000D+01
-.218715683671D-03 0.000000000000D+00 0.000000000000D+00 0.204978412663D-09 0.000000000000D+00  7 2 -2 24 -11 11 -24 21 2 0.20143371D+00 0.22955733D-01 0.10773816D+06 0.10773816D+06 0.10773816D+06 0.11190754D+01  1  2  8  2  7  2       -2 -.918567845960D-02 0.100000000000D+01
0.780178488619D-03 0.000000000000D+00 0.000000000000D+00 0.204978412663D-09 0.176188627054D-11  7 2 -2 24 -11 11 -24 21 2 0.20702866D+00 0.23800541D-01 0.11576162D+06 0.11576162D+06 0.11576162D+06 0.11165429D+01  1  2  1  2  7  2       -2 0.292467609140D-01 0.100000000000D+01
  </mgrwgt>
  </event>
  <event>
  9     66 0.26993063E-05 0.25334715E+03 0.75467711E-02 0.10022486E+00
        2 -1    0    0  501    0 0.00000000E+00 0.00000000E+00 0.32837519E+03 0.32837535E+03 0.32000000E+00 0.0000E+00 0.9000E+01
       21 -1    0    0  502  501 0.00000000E+00 0.00000000E+00 -.34891527E+03 0.34891608E+03 0.75000000E+00 0.0000E+00 0.9000E+01
       25  2    1    2    0    0 -.47731405E+02 -.11695044E+03 0.44662723E+02 0.32864294E+03 0.30009287E+03 0.0000E+00 0.0000E+00
       23  2    1    2    0    0 -.38916953E+02 0.18406574E+03 0.20088425E+02 0.20977049E+03 0.90583590E+02 0.0000E+00 0.0000E+00
       24  1    3    3    0    0 0.50964621E+02 0.55427948E+02 0.22469313E+01 0.11019036E+03 0.80419002E+02 0.0000E+00 0.9000E+01
      -11  1    4    4    0    0 0.98107651E+01 0.16959829E+02 -.23236340E+02 0.30394315E+02 0.51099893E-03 0.0000E+00 0.9000E+01
       11  1    4    4    0    0 -.48727718E+02 0.16710591E+03 0.43324765E+02 0.17937617E+03 0.51099893E-03 0.0000E+00 0.9000E+01
      -24  1    3    3    0    0 -.98696027E+02 -.17237839E+03 0.42415792E+02 0.21845258E+03 0.80419002E+02 0.0000E+00 0.9000E+01
        2  1    1    2  502    0 0.86648358E+02 -.67115299E+02 -.85291233E+02 0.13887800E+03 0.32000000E+00 0.0000E+00 0.9000E+01
#aMCatNLO 2  0  0  2  1 0.10960110D+03 0.00000000D+00  -5  7  0 0.00000000D+00 0.00000000D+00 0.00000000D+00 0.00000000D+00 0.00000000D+00
  <mgrwgt>
 0.9605745780D-04    2    2    0
 0.261574036730943D+03 0.000000000000000D+00 0.000000000000000D+00 0.261574036730943D+03
 0.261574036730943D+03 0.000000000000000D+00 0.000000000000000D+00 -.261574036730943D+03
 0.114457869116433D+03 0.694126420596192D+02 0.411386476203208D+02 -.110853345722287D+02
 0.336063738095640D+02 0.153028416423524D+02 0.127058262038505D+02 -.270882516743843D+02
 0.149739005689933D+03 -.220874752669675D+02 0.146471155363649D+03 0.219115017234988D+02
 0.225344824845956D+03 -.626280084350042D+02 -.200315629187820D+03 0.162620845231142D+02
 0.000000000000000D+00 0.000000000000000D+00 -.000000000000000D+00 -.000000000000000D+00
 0.290996133246534D+03 0.000000000000000D+00 0.000000000000000D+00 0.290996133246534D+03
 0.393734846088475D+03 0.000000000000000D+00 0.000000000000000D+00 -.393734846088475D+03
 0.110723758325018D+03 0.509646211752622D+02 0.554279482673689D+02 -.110853345722287D+02
 0.334314267042820D+02 0.981076505523232D+01 0.169598290598706D+02 -.270882516743843D+02
 0.175439135961221D+03 -.487277177080461D+02 0.167105912660222D+03 0.219115017234988D+02
 0.214911346054388D+03 -.986960266277778D+02 -.172378390882937D+03 0.162620845231142D+02
 0.150225312290100D+03 0.866483581053294D+02 -.671152991045245D+02 -.102738712841941D+03
-.220408465498D-06 0.000000000000D+00 0.000000000000D+00 0.829682452609D-06 0.000000000000D+00  7 2 21 24 -11 11 -24 2 2 0.45411390D-01 0.54871386D-01 0.98508794D+05 0.98508794D+05 0.98508794D+05 0.11222579D+01  1  2 13  4  7  2       -2 -.126493803256D-03 0.100000000000D+01
0.415283192181D-06 0.000000000000D+00 0.000000000000D+00 0.829682452609D-06 0.301769332117D-10  7 2 21 24 -11 11 -24 2 2 0.50519306D-01 0.53679317D-01 0.98508794D+05 0.98508794D+05 0.98508794D+05 0.11222579D+01  1  2  1  4  7  2       -2 0.222551261061D-03 0.100000000000D+01
  </mgrwgt>
  </event>
  <event>
  8     66 0.26993063E-05 0.26315876E+03 0.75467711E-02 0.90801393E-01
        2 -1    0    0  501    0 0.00000000E+00 0.00000000E+00 0.12775660E+04 0.12775660E+04 0.32000000E+00 0.0000E+00 0.9000E+01
       -2 -1    0    0    0  501 0.00000000E+00 0.00000000E+00 -.10599779E+03 0.10599827E+03 0.32000000E+00 0.0000E+00 0.9000E+01
       25  2    1    2    0    0 0.68907329E+02 0.22153901E+03 0.32203472E+03 0.49822992E+03 0.30116265E+03 0.0000E+00 0.0000E+00
       23  2    1    2    0    0 -.68907329E+02 -.22153901E+03 0.84953348E+03 0.88533438E+03 0.91005892E+02 0.0000E+00 0.0000E+00
       24  1    3    3    0    0 0.49742327E+01 0.12158153E+03 0.32352409E+03 0.35488288E+03 0.80419002E+02 0.0000E+00 0.9000E+01
      -13  1    4    4    0    0 0.66103040E+01 -.39359109E+02 0.27534642E+03 0.27822383E+03 0.10565837E+00 0.0000E+00 0.9000E+01
       13  1    4    4    0    0 -.75517633E+02 -.18217990E+03 0.57418706E+03 0.60711055E+03 0.10565837E+00 0.0000E+00 0.9000E+01
      -24  1    3    3    0    0 0.63933096E+02 0.99957484E+02 -.14893709E+01 0.14334704E+03 0.80419002E+02 0.0000E+00 0.9000E+01
#aMCatNLO 1  0  0  2  1 0.60365368D+03 0.00000000D+00  -5  7  0 0.00000000D+00 0.00000000D+00 0.00000000D+00 0.00000000D+00 0.00000000D+00
  <mgrwgt>
 0.1829179076D-02    3    2    0
 0.367993931597128D+03 0.000000000000000D+00 0.000000000000000D+00 0.367993931597128D+03
 0.367993931597128D+03 0.000000000000000D+00 0.000000000000000D+00 -.367993931597128D+03
 0.152139407512619D+03 0.497423300041316D+01 0.121581525921573D+03 0.432709247019254D+02
 0.847205602166597D+02 0.661041459642677D+01 -.393589168817112D+02 0.747311943179457D+02
 0.227282725980793D+03 -.755177437228586D+02 -.182180093976195D+03 0.112981951085532D+03
 0.271845169484184D+03 0.639330961260186D+02 0.999574849363334D+02 -.230984070105404D+03
 0.000000000000000D+00 -.000000000000000D+00 0.000000000000000D+00 0.000000000000000D+00
 0.148969518287586D+04 0.000000000000000D+00 0.000000000000000D+00 0.148969518287586D+04
 0.565803459790040D+03 0.000000000000000D+00 0.000000000000000D+00 -.565803459790040D+03
 0.162819908042956D+03 0.109245885424469D+03 0.789687918991432D+02 0.432709247019254D+02
 0.126803373065445D+03 0.766383482413008D+02 -.679772579281694D+02 0.747311943179457D+02
 0.293143658935147D+03 0.967766334875450D+02 -.252591699613446D+03 0.112981951085532D+03
 0.369113252810505D+03 0.276131277055803D+03 0.132383773573090D+02 -.230984070105404D+03
 0.110361844981185D+04 -.558792144209118D+03 0.228361788285163D+03 0.923891723085819D+03
0.290038771699D-04 0.000000000000D+00 0.000000000000D+00 0.493708745645D-06 0.000000000000D+00  7 2 -2 24 -13 13 -24 21 0 0.19654865D+00 0.16307393D-01 0.69252532D+05 0.69252532D+05 0.69252532D+05 0.11350562D+01  1  2  2  2  7  2       -2 0.179135823180D-02 0.100000000000D+01
-.139105650518D-05 0.000000000000D+00 -.111382525229D-06 0.493708745645D-06 0.000000000000D+00  7 2 -2 24 -13 13 -24 21 2 0.19654865D+00 0.16307393D-01 0.69252532D+05 0.69252532D+05 0.69252532D+05 0.11350562D+01  1  2  3  2  7  2       -2 -.110689359742D-03 0.100000000000D+01
0.186635902115D-05 0.000000000000D+00 0.000000000000D+00 0.493708745645D-06 0.000000000000D+00  7 2 -2 24 -13 13 -24 21 2 0.19654865D+00 0.16307393D-01 0.69252532D+05 0.69252532D+05 0.69252532D+05 0.11350562D+01  1  2 15  2  7  2       -2 0.148510203813D-03 0.100000000000D+01
  </mgrwgt>
  </event>
  <event>
  9     66 0.26993063E-05 0.17973122E+03 0.75467711E-02 0.99127590E-01
        2 -1    0    0  501    0 0.00000000E+00 0.00000000E+00 0.39732899E+03 0.39732912E+03 0.32000000E+00 0.0000E+00 0.9000E+01
       21 -1    0    0  502  501 0.00000000E+00 0.00000000E+00 -.74909582E+03 0.74909619E+03 0.75000000E+00 0.0000E+00 0.9000E+01
       25  2    1    2    0    0 -.65375691E+02 0.12603789E+03 0.25333396E+03 0.41770272E+03 0.30022980E+03 0.0000E+00 0.0000E+00
       23  2    1    2    0    0 0.25427424E+02 0.11723722E+03 -.16067944E+03 0.22050111E+03 0.91715532E+02 0.0000E+00 0.0000E+00
       24  1    3    3    0    0 -.17359730E+02 -.56006795E+02 0.16932789E+03 0.19641098E+03 0.80419002E+02 0.0000E+00 0.9000E+01
      -11  1    4    4    0    0 0.35280563E+01 -.70136628E+01 0.70948834E+01 0.10581872E+02 0.51099893E-03 0.0000E+00 0.9000E+01
       11  1    4    4    0    0 0.21899368E+02 0.12425088E+03 -.16777432E+03 0.20991924E+03 0.51099893E-03 0.0000E+00 0.9000E+01
      -24  1    3    3    0    0 -.48015961E+02 0.18204468E+03 0.84006069E+02 0.22129174E+03 0.80419002E+02 0.0000E+00 0.9000E+01
        2  1    1    2  502    0 0.39948267E+02 -.24327510E+03 -.44442135E+03 0.50822149E+03 0.32000000E+00 0.0000E+00 0.9000E+01
#aMCatNLO 2  0  0  2  1 0.24653324D+03 0.00000000D+00  -5  7  0 0.00000000D+00 0.00000000D+00 0.00000000D+00 0.00000000D+00 0.00000000D+00
  <mgrwgt>
 0.1202035684D-03    1    2    0
 0.290663304076713D+03 0.000000000000000D+00 0.000000000000000D+00 0.290663304076713D+03
 0.290663304076713D+03 0.000000000000000D+00 0.000000000000000D+00 -.290663304076713D+03
 0.210884567846015D+03 -.469267865366023D+01 -.133146014839847D+03 0.142320773257282D+03
 0.136639325214092D+02 0.429614637442936D+01 -.116911424187175D+02 0.561812844498664D+01
 0.206706532242162D+03 0.365078688999853D+02 0.352887048405708D+02 -.200373334779447D+03
 0.150071575543840D+03 -.361113366207544D+02 0.109548452417994D+03 0.524344330771786D+02
 0.000000000000000D+00 0.000000000000000D+00 -.000000000000000D+00 -.000000000000000D+00
 0.343281875281452D+03 0.000000000000000D+00 0.000000000000000D+00 0.343281875281452D+03
 0.867035879792336D+03 0.000000000000000D+00 0.000000000000000D+00 -.867035879792336D+03
 0.173667900619245D+03 -.173597297316538D+02 -.560067945361868D+02 0.142320773257282D+03
 0.965411905092860D+01 0.352805625792351D+01 -.701366284234289D+01 0.561812844498664D+01
 0.236785422893788D+03 0.218993675664571D+02 0.124250878888411D+03 -.200373334779447D+03
 0.211334767527243D+03 -.480159607826088D+02 0.182044680640279D+03 0.524344330771786D+02
 0.578875544982584D+03 0.399482666898821D+02 -.243275102150160D+03 -.523754004510884D+03
0.176623396755D-05 0.000000000000D+00 0.000000000000D+00 0.170054114977D-05 0.386356238904D-10  7 2 21 24 -11 11 -24 2 2 0.61127568D-01 0.11524554D+00 0.11723863D+06 0.11723863D+06 0.11723863D+06 0.11160977D+01  1  2  1  4  7  2       -2 0.120203568439D-03 0.100000000000D+01
  </mgrwgt>
  </event>
  <event>
  8     66 0.26993063E-05 0.10736089E+03 0.75467711E-02 0.10051370E+00
        2 -1    0    0  501    0 0.00000000E+00 0.00000000E+00 0.81713445E+03 0.81713451E+03 0.32000000E+00 0.0000E+00 0.9000E+01
       -2 -1    0    0    0  501 0.00000000E+00 0.00000000E+00 -.11327183E+03 0.11327228E+03 0.32000000E+00 0.0000E+00 0.9000E+01
       25  2    1    2    0    0 -.20547110E+03 0.39100098E+02 0.52633847E+03 0.64118042E+03 0.30055440E+03 0.0000E+00 0.0000E+00
       23  2    1    2    0    0 0.20547110E+03 -.39100098E+02 0.17752415E+03 0.28922637E+03 0.91596284E+02 0.0000E+00 0.0000E+00
       24  1    3    3    0    0 -.14263278E+03 0.12859591E+03 0.20426759E+03 0.29167359E+03 0.80419002E+02 0.0000E+00 0.9000E+01
      -13  1    4    4    0    0 0.11235228E+03 0.15645408E+02 0.12602516E+03 0.16955874E+03 0.10565837E+00 0.0000E+00 0.9000E+01
       13  1    4    4    0    0 0.93118825E+02 -.54745506E+02 0.51498988E+02 0.11966764E+03 0.10565837E+00 0.0000E+00 0.9000E+01
      -24  1    3    3    0    0 -.62838320E+02 -.89495809E+02 0.32207089E+03 0.34950683E+03 0.80419002E+02 0.0000E+00 0.9000E+01
#aMCatNLO 1  0  0  1  2 0.45174582D+02 0.00000000D+00  -5  7  0 0.00000000D+00 0.00000000D+00 0.00000000D+00 0.00000000D+00 0.00000000D+00
  <mgrwgt>
 0.5603435144D-03    9    2    0
 0.304234369113333D+03 0.000000000000000D+00 0.000000000000000D+00 0.304234369113333D+03
 0.304234369113333D+03 0.000000000000000D+00 0.000000000000000D+00 -.304234369113333D+03
 0.209704719690388D+03 -.142632782194459D+03 0.128595907815738D+03 -.250566446789700D+02
 0.113488479080827D+03 0.112352302123577D+03 0.156454999680413D+02 -.343706595251214D+01
 0.123410408199989D+03 0.931188002032477D+02 -.547455983755935D+02 -.596819684602794D+02
 0.161865131255461D+03 -.628383201323654D+02 -.894958094081855D+02 0.881756790917616D+02
 0.000000000000000D+00 0.000000000000000D+00 0.000000000000000D+00 0.000000000000000D+00
 0.409658433208316D+03 0.000000000000000D+00 0.000000000000000D+00 0.409658433208316D+03
 0.309949802436448D+03 0.000000000000000D+00 0.000000000000000D+00 -.309949802436448D+03
 0.208988139618607D+03 -.151937126466460D+03 0.116172719282208D+03 -.250566446789700D+02
 0.107870762375839D+03 0.107433176935483D+03 0.907746918100124D+01 -.343706595251214D+01
 0.122858951145144D+03 0.876461133588292D+02 -.620527463556796D+02 -.596819684602794D+02
 0.170425530204073D+03 -.702226034891275D+02 -.993553268168561D+02 0.881756790917616D+02
 0.109464852301100D+03 0.270804396612758D+02 0.361578847093267D+02 0.997086307718682D+02
0.418449389024D-05 0.000000000000D+00 0.000000000000D+00 0.357587356297D-06 0.000000000000D+00  7 2 -2 24 -13 13 -24 21 0 0.12571303D+00 0.17426475D-01 0.79918808D+05 0.79918808D+05 0.79918808D+05 0.11297995D+01  1  2  2  1  7  1        2 0.437992864494D-03 0.100000000000D+01
-.230948451729D-06 0.000000000000D+00 -.160695583411D-07 0.357587356297D-06 0.000000000000D+00  7 2 -2 24 -13 13 -24 21 2 0.12571303D+00 0.17426475D-01 0.79918808D+05 0.79918808D+05 0.79918808D+05 0.11297995D+01  1  2  3  1  7  1        2 -.308561595583D-04 0.100000000000D+01
0.271852103838D-06 0.000000000000D+00 0.000000000000D+00 0.357587356297D-06 0.000000000000D+00  7 2 -2 24 -13 13 -24 21 2 0.12571303D+00 0.17426475D-01 0.79918808D+05 0.79918808D+05 0.79918808D+05 0.11297995D+01  1  2 15  1  7  1        2 0.363211436557D-04 0.100000000000D+01
0.182099749257D-04 0.000000000000D+00 0.000000000000D+00 0.357587356297D-06 0.000000000000D+00  7 2 -2 24 -13 13 -24 21 2 0.17015717D+00 0.17426475D-01 0.94157600D+05 0.94157600D+05 0.94157600D+05 0.11238738D+01  1  2 12  1  7  1        2 0.159068005365D-02 0.100000000000D+01
-.179096172428D-04 0.000000000000D+00 0.000000000000D+00 0.357587356297D-06 0.000000000000D+00  7 2 -2 24 -13 13 -24 21 2 0.12571303D+00 0.17426475D-01 0.79918808D+05 0.79918808D+05 0.79918808D+05 0.11297995D+01  1  2  4  1  7  1        2 -.239283702980D-02 0.100000000000D+01
-.210162126577D-04 0.000000000000D+00 -.208245363652D-05 0.357587356297D-06 0.000000000000D+00  7 2 -2 24 -13 13 -24 21 2 0.17057413D+00 0.17426475D-01 0.79918808D+05 0.79918808D+05 0.79918808D+05 0.11297995D+01  1  2  5  1  7  1        2 -.185186652305D-02 0.100000000000D+01
0.207703760117D-04 0.000000000000D+00 0.198911196845D-05 0.357587356297D-06 0.000000000000D+00  7 2 -2 24 -13 13 -24 21 2 0.12571303D+00 0.17426475D-01 0.79918808D+05 0.79918808D+05 0.79918808D+05 0.11297995D+01  1  2  6  1  7  1        2 0.277505231798D-02 0.100000000000D+01
0.708516830186D-06 0.000000000000D+00 0.000000000000D+00 0.357587356297D-06 0.000000000000D+00  7 21 -2 24 -13 13 -24 -2 2 0.17015717D+00 0.17426475D-01 0.94157600D+05 0.94157600D+05 0.94157600D+05 0.11238738D+01  1  2 12  3  7  1        2 0.386654352186D-04 0.100000000000D+01
-.774528276184D-06 0.000000000000D+00 -.814968657857D-07 0.357587356297D-06 0.000000000000D+00  7 21 -2 24 -13 13 -24 -2 2 0.17057413D+00 0.17426475D-01 0.79918808D+05 0.79918808D+05 0.79918808D+05 0.11297995D+01  1  2  5  3  7  1        2 -.428085881495D-04 0.100000000000D+01
  </mgrwgt>
  </event>
  <event>
  9     66 0.26993063E-05 0.25134558E+03 0.75467711E-02 0.10030368E+00
        2 -1    0    0  501    0 0.00000000E+00 0.00000000E+00 0.10911364E+04 0.10911365E+04 0.32000000E+00 0.0000E+00 0.9000E+01
       21 -1    0    0  502  501 0.00000000E+00 0.00000000E+00 -.14623945E+03 0.14624138E+03 0.75000000E+00 0.0000E+00 0.9000E+01
       25  2    1    2    0    0 -.41136440E+02 -.20655880E+03 0.18351650E+03 0.40897637E+03 0.29870490E+03 0.0000E+00 0.0000E+00
       23  2    1    2    0    0 -.59946426E+02 0.17582598E+03 0.60588043E+03 0.64040516E+03 0.92300210E+02 0.0000E+00 0.0000E+00
       24  1    3    3    0    0 -.99320826E+02 -.61108411E+02 -.16358311E+02 0.14259619E+03 0.80419002E+02 0.0000E+00 0.9000E+01
      -11  1    4    4    0    0 0.18028286E+02 0.27446831E+02 0.17529529E+03 0.17834458E+03 0.51099893E-03 0.0000E+00 0.9000E+01
       11  1    4    4    0    0 -.77974712E+02 0.14837914E+03 0.43058513E+03 0.46206059E+03 0.51099893E-03 0.0000E+00 0.9000E+01
      -24  1    3    3    0    0 0.58184386E+02 -.14545039E+03 0.19987481E+03 0.26638017E+03 0.80419002E+02 0.0000E+00 0.9000E+01
        2  1    1    2  502    0 0.10108287E+03 0.30732828E+02 0.15550006E+03 0.18799634E+03 0.32000000E+00 0.0000E+00 0.9000E+01
#aMCatNLO 2  0  0  2  1 0.10565156D+03 0.00000000D+00  -5  7  0 0.00000000D+00 0.00000000D+00 0.00000000D+00 0.00000000D+00 0.00000000D+00
  <mgrwgt>
 0.2274104332D-03    1    2    0
 0.341647415475804D+03 0.000000000000000D+00 0.000000000000000D+00 0.341647415475804D+03
 0.341647415475804D+03 0.000000000000000D+00 0.000000000000000D+00 -.341647415475804D+03
 0.220451462506662D+03 -.658240242598578D+02 -.509241777806034D+02 -.187631440101501D+03
 0.752820069270111D+02 0.287507950912011D+02 0.307068598970022D+02 0.624328527607718D+02
 0.207309431901469D+03 -.473133898688058D+02 0.157701289761672D+03 0.125972008406381D+03
 0.180251929616466D+03 0.843866190374625D+02 -.137483971878071D+03 -.773421065652130D+00
 0.000000000000000D+00 0.000000000000000D+00 0.000000000000000D+00 0.000000000000000D+00
 0.410287512756134D+03 0.000000000000000D+00 0.000000000000000D+00 0.410287512756134D+03
 0.388918064817555D+03 0.000000000000000D+00 0.000000000000000D+00 -.388918064817555D+03
 0.235099207934478D+03 -.993208259374441D+02 -.611084105307075D+02 -.187631440101501D+03
 0.705422480505696D+02 0.180282861241181D+02 0.274468314310928D+02 0.624328527607718D+02
 0.209679215106079D+03 -.779747123449443D+02 0.148379144694553D+03 0.125972008406381D+03
 0.176093877891411D+03 0.581843859660638D+02 -.145450393351383D+03 -.773421065652130D+00
 0.107791028591152D+03 0.101082866192207D+03 0.307328277564448D+02 0.213694479385788D+02
0.310630681888D-06 0.000000000000D+00 0.000000000000D+00 0.175845777668D-06 0.273624123302D-11  7 2 21 24 -11 11 -24 2 2 0.16786720D+00 0.22498516D-01 0.97299272D+05 0.97299272D+05 0.97299272D+05 0.11226991D+01  1  2  1  4  7  2       -2 0.227410433219D-03 0.100000000000D+01
  </mgrwgt>
  </event>
  <event>
  8     66 0.26993063E-05 0.19688954E+03 0.75467711E-02 0.94425745E-01
        2 -1    0    0  501    0 0.00000000E+00 0.00000000E+00 0.43586163E+03 0.43586175E+03 0.32000000E+00 0.0000E+00 0.9000E+01
       -2 -1    0    0    0  501 0.00000000E+00 0.00000000E+00 -.11135095E+03 0.11135141E+03 0.32000000E+00 0.0000E+00 0.9000E+01
       25  2    1    2    0    0 0.81279574E+02 0.21705487E+02 0.25414112E+03 0.40345492E+03 0.30184543E+03 0.0000E+00 0.0000E+00
       23  2    1    2    0    0 -.81279574E+02 -.21705487E+02 0.70369561E+02 0.14375823E+03 0.92935769E+02 0.0000E+00 0.0000E+00
       24  1    3    3    0    0 0.91307713E+02 -.89776437E+02 0.54234573E+02 0.16064094E+03 0.80419002E+02 0.0000E+00 0.9000E+01
      -13  1    4    4    0    0 -.55197159E+02 -.43876703E+02 0.81493134E+02 0.10776379E+03 0.10565837E+00 0.0000E+00 0.9000E+01
       13  1    4    4    0    0 -.26082414E+02 0.22171216E+02 -.11123573E+02 0.35994447E+02 0.10565837E+00 0.0000E+00 0.9000E+01
      -24  1    3    3    0    0 -.10028139E+02 0.11148192E+03 0.19990655E+03 0.24281398E+03 0.80419002E+02 0.0000E+00 0.9000E+01
#aMCatNLO 1  0  0  2  1 0.43210809D+03 0.00000000D+00  -5  7  0 0.00000000D+00 0.00000000D+00 0.00000000D+00 0.00000000D+00 0.00000000D+00
  <mgrwgt>
 0.8378716934D-03    3    2    0
 0.220303795428109D+03 0.000000000000000D+00 0.000000000000000D+00 0.220303795428109D+03
 0.220303795428109D+03 0.000000000000000D+00 0.000000000000000D+00 -.220303795428109D+03
 0.159564104566315D+03 0.913078325033076D+02 -.897764053719966D+02 -.509564939307073D+02
 0.738171085744890D+02 -.551973069911795D+02 -.438767157365227D+02 0.218416262076741D+02
 0.528958492699401D+02 -.260825026073891D+02 0.221711659756978D+02 -.403250954989796D+02
 0.154330528445474D+03 -.100280229047389D+02 0.111481955132821D+03 0.694399632220127D+02
 0.000000000000000D+00 0.000000000000000D+00 0.000000000000000D+00 0.000000000000000D+00
 0.583891543747791D+03 0.000000000000000D+00 0.000000000000000D+00 0.583891543747791D+03
 0.478108750716021D+03 0.000000000000000D+00 0.000000000000000D+00 -.478108750716021D+03
 0.155338395126306D+03 -.342299828571900D+02 -.117875124797101D+03 -.509564939307073D+02
 0.165615409960639D+03 -.150648550892074D+03 -.652412560819681D+02 0.218416262076741D+02
 0.943004922392339D+02 -.847632281022856D+02 0.903685073683716D+01 -.403250954989796D+02
 0.201878147030411D+03 -.152032798907941D+03 0.796974896593661D+02 0.694399632220127D+02
 0.444867850107221D+03 0.421674560759491D+03 0.943820404828657D+02 0.105782793031770D+03
0.374253742523D-05 0.000000000000D+00 0.000000000000D+00 0.116316575836D-07 0.000000000000D+00  7 2 -2 24 -13 13 -24 21 0 0.67055679D-01 0.17130959D-01 0.38765492D+05 0.38765492D+05 0.38765492D+05 0.11571459D+01  1  2  2  2  7  2       -2 0.826451114041D-03 0.100000000000D+01
-.204726956350D-06 0.000000000000D+00 -.143723291456D-07 0.116316575836D-07 0.000000000000D+00  7 2 -2 24 -13 13 -24 21 2 0.67055679D-01 0.17130959D-01 0.38765492D+05 0.38765492D+05 0.38765492D+05 0.11571459D+01  1  2  3  2  7  2       -2 -.605344034027D-04 0.100000000000D+01
0.243351281050D-06 0.000000000000D+00 0.000000000000D+00 0.116316575836D-07 0.000000000000D+00  7 2 -2 24 -13 13 -24 21 2 0.67055679D-01 0.17130959D-01 0.38765492D+05 0.38765492D+05 0.38765492D+05 0.11571459D+01  1  2 15  2  7  2       -2 0.719549827647D-04 0.100000000000D+01
  </mgrwgt>
  </event>
  <event>
  8     66 0.26993063E-05 0.22091902E+03 0.75467711E-02 0.99448992E-01
        4 -1    0    0  501    0 0.00000000E+00 0.00000000E+00 0.18295518E+03 0.18296174E+03 0.15500000E+01 0.0000E+00 0.9000E+01
       -4 -1    0    0    0  501 0.00000000E+00 0.00000000E+00 -.30124877E+03 0.30125276E+03 0.15500000E+01 0.0000E+00 0.9000E+01
       25  2    1    2    0    0 -.13771633E+02 0.96049331E+02 -.14397005E+03 0.34660461E+03 0.29998708E+03 0.0000E+00 0.0000E+00
       23  2    1    2    0    0 0.13771633E+02 -.96049331E+02 0.25676461E+02 0.13760989E+03 0.94138567E+02 0.0000E+00 0.0000E+00
       24  1    3    3    0    0 0.11410659E+03 0.74804104E+02 -.44571229E+02 0.16452896E+03 0.80419002E+02 0.0000E+00 0.9000E+01
      -11  1    4    4    0    0 -.32482436E+02 -.11354990E+02 -.81312003E+01 0.35357614E+02 0.51099893E-03 0.0000E+00 0.9000E+01
       11  1    4    4    0    0 0.46254069E+02 -.84694341E+02 0.33807662E+02 0.10225228E+03 0.51099893E-03 0.0000E+00 0.9000E+01
      -24  1    3    3    0    0 -.12787822E+03 0.21245227E+02 -.99398824E+02 0.18207565E+03 0.80419002E+02 0.0000E+00 0.9000E+01
#aMCatNLO 1  0  0  2  2 0.19015721D+03 0.00000000D+00  -5  7  0 0.00000000D+00 0.00000000D+00 0.00000000D+00 0.00000000D+00 0.00000000D+00
  <mgrwgt>
 0.7001359862D-04    5    2    0
 0.234771329701848D+03 0.000000000000000D+00 0.000000000000000D+00 0.234771329701848D+03
 0.234771329701848D+03 0.000000000000000D+00 0.000000000000000D+00 -.234771329701848D+03
 0.158441018703344D+03 0.114106591088345D+03 0.748041042183527D+02 -.451357016892723D+01
 0.344139134276587D+02 -.324824358237539D+02 -.113549900283350D+02 0.522495759323494D+00
 0.113964651364076D+03 0.462540690114826D+02 -.846943414722928D+02 0.606248413028106D+02
 0.162723075908618D+03 -.127878224276074D+03 0.212452272822751D+02 -.566337668932069D+02
 0.000000000000000D+00 -.000000000000000D+00 -.000000000000000D+00 -.000000000000000D+00
 0.322677153987673D+03 0.000000000000000D+00 0.000000000000000D+00 0.322677153987673D+03
 0.383582261615582D+03 0.000000000000000D+00 0.000000000000000D+00 -.383582261615582D+03
 0.225316945177816D+03 0.168345558852853D+03 0.126253357692947D+03 -.451357016892723D+01
 0.244201013113337D+02 -.241670481856410D+02 -.346729407898966D+01 0.522495759323494D+00
 0.112941050075586D+03 0.783241032109032D+02 -.542737898565485D+02 0.606248413028106D+02
 0.143908593243696D+03 -.845400090882324D+02 0.623543949201376D+02 -.566337668932069D+02
 0.199672725794824D+03 -.137962604789882D+03 -.130866668677546D+03 -.609051076279089D+02
0.535288554939D-05 0.000000000000D+00 0.000000000000D+00 0.107828452960D-06 0.000000000000D+00  7 4 -4 24 -11 11 -24 21 0 0.28147762D-01 0.46346776D-01 0.48805213D+05 0.48805213D+05 0.48805213D+05 0.11482204D+01  1  2  2  2  7  2       -4 0.726072062178D-04 0.100000000000D+01
-.296045228916D-06 0.000000000000D+00 -.205564899568D-07 0.107828452960D-06 0.000000000000D+00  7 4 -4 24 -11 11 -24 21 2 0.28147762D-01 0.46346776D-01 0.48805213D+05 0.48805213D+05 0.48805213D+05 0.11482204D+01  1  2  3  2  7  2       -4 -.529420050307D-05 0.100000000000D+01
0.339232409634D-06 0.000000000000D+00 0.000000000000D+00 0.107828452960D-06 0.000000000000D+00  7 4 -4 24 -11 11 -24 21 2 0.28147762D-01 0.46346776D-01 0.48805213D+05 0.48805213D+05 0.48805213D+05 0.11482204D+01  1  2 15  2  7  2       -4 0.606652030946D-05 0.100000000000D+01
-.120757190739D-05 0.000000000000D+00 -.160089936851D-05 0.107828452960D-06 0.000000000000D+00  7 4 -4 24 -11 11 -24 21 2 0.28147762D-01 0.98773293D-01 0.48805213D+05 0.48805213D+05 0.48805213D+05 0.11482204D+01  1  2  5  2  7  2       -4 -.343216524295D-05 0.100000000000D+01
0.950805863338D-09 0.000000000000D+00 -.131068522527D-06 0.107828452960D-06 0.000000000000D+00  7 4 21 24 -11 11 -24 4 2 0.28147762D-01 0.98773293D-01 0.48805213D+05 0.48805213D+05 0.48805213D+05 0.11482204D+01  1  2  5  4  7  2       -4 0.662378354973D-07 0.100000000000D+01
  </mgrwgt>
  </event>
  <event>
  8     66 0.26993063E-05 0.63776241E+03 0.75467711E-02 0.87339065E-01
        2 -1    0    0  501    0 0.00000000E+00 0.00000000E+00 0.25785007E+04 0.25785008E+04 0.32000000E+00 0.0000E+00 0.9000E+01
       -2 -1    0    0    0  501 0.00000000E+00 0.00000000E+00 -.19104094E+03 0.19104121E+03 0.32000000E+00 0.0000E+00 0.9000E+01
       25  2    1    2    0    0 -.27883121E+03 0.54190112E+03 0.17737257E+04 0.18992916E+04 0.29967019E+03 0.0000E+00 0.0000E+00
       23  2    1    2    0    0 0.27883121E+03 -.54190112E+03 0.61373415E+03 0.87025038E+03 0.96241614E+02 0.0000E+00 0.0000E+00
       24  1    3    3    0    0 -.59828420E+02 0.33998725E+02 0.45238271E+03 0.46459949E+03 0.80419002E+02 0.0000E+00 0.9000E+01
      -11  1    4    4    0    0 0.15858750E+01 -.17583472E+02 0.13108387E+01 0.17703440E+02 0.51099893E-03 0.0000E+00 0.9000E+01
       11  1    4    4    0    0 0.27724533E+03 -.52431765E+03 0.61242331E+03 0.85254694E+03 0.51099893E-03 0.0000E+00 0.9000E+01
      -24  1    3    3    0    0 -.21900279E+03 0.50790239E+03 0.13213429E+04 0.14346921E+04 0.80419002E+02 0.0000E+00 0.9000E+01
#aMCatNLO 1  0  0  2  2 0.60778853D+03 0.00000000D+00  -5  7  0 0.00000000D+00 0.00000000D+00 0.00000000D+00 0.00000000D+00 0.00000000D+00
  <mgrwgt>
 0.1582092567D-02    3    2    0
 0.701854407907854D+03 0.000000000000000D+00 0.000000000000000D+00 0.701854407907854D+03
 0.701854407907854D+03 0.000000000000000D+00 0.000000000000000D+00 -.701854407907854D+03
 0.147240118268396D+03 -.598284200579531D+02 0.339987254871104D+02 0.102357624493449D+03
 0.326996910259448D+02 0.158587496124294D+01 -.175834717337807D+02 -.275241042649329D+02
 0.640466511143475D+03 0.277245331012130D+03 -.524317645602713D+03 -.241709298203227D+03
 0.583302495377892D+03 -.219002785915420D+03 0.507902391849383D+03 0.166875777974712D+03
 0.000000000000000D+00 -.000000000000000D+00 -.000000000000000D+00 0.000000000000000D+00
 0.168387855546489D+04 0.000000000000000D+00 0.000000000000000D+00 0.168387855546489D+04
 0.865306369265605D+03 0.000000000000000D+00 0.000000000000000D+00 -.865306369265605D+03
 0.161184385275631D+03 -.296343773517270D+02 0.903211519487336D+02 0.102357624493449D+03
 0.292477469049267D+02 0.765038528689228D+01 -.627104364439112D+01 -.275241042649329D+02
 0.554559431473350D+03 0.394235595831572D+03 -.306089975623956D+03 -.241709298203227D+03
 0.784650660492967D+03 -.850833484716782D+02 0.757708876545511D+03 0.166875777974712D+03
 0.101954270058362D+04 -.287168255295059D+03 -.535669009225898D+03 0.818572186199288D+03
0.379035055916D-03 0.000000000000D+00 0.000000000000D+00 0.569437245161D-06 0.000000000000D+00  7 2 -2 24 -11 11 -24 21 0 0.39669244D+00 0.29390936D-01 0.40674089D+06 0.40674089D+06 0.40674089D+06 0.10749048D+01  1  2  2  2  7  2       -2 0.156437320290D-02 0.100000000000D+01
-.208227246589D-04 0.000000000000D+00 -.145559441694D-05 0.569437245161D-06 0.000000000000D+00  7 2 -2 24 -11 11 -24 21 2 0.39669244D+00 0.29390936D-01 0.40674089D+06 0.40674089D+06 0.40674089D+06 0.10749048D+01  1  2  3  2  7  2       -2 -.992975544324D-04 0.100000000000D+01
0.245384803144D-04 0.000000000000D+00 0.000000000000D+00 0.569437245161D-06 0.000000000000D+00  7 2 -2 24 -11 11 -24 21 2 0.39669244D+00 0.29390936D-01 0.40674089D+06 0.40674089D+06 0.40674089D+06 0.10749048D+01  1  2 15  2  7  2       -2 0.117016918997D-03 0.100000000000D+01
  </mgrwgt>
  </event>
  <event>
  8     66 0.26993063E-05 0.21700643E+03 0.75467711E-02 0.94493129E-01
        2 -1    0    0  501    0 0.00000000E+00 0.00000000E+00 0.13269005E+04 0.13269006E+04 0.32000000E+00 0.0000E+00 0.9000E+01
       -2 -1    0    0    0  501 0.00000000E+00 0.00000000E+00 -.61079926E+02 0.61080764E+02 0.32000000E+00 0.0000E+00 0.9000E+01
       25  2    1    2    0    0 -.10208151E+03 0.46616800E+02 0.11814180E+04 0.12241386E+04 0.30028843E+03 0.0000E+00 0.0000E+00
       23  2    1    2    0    0 0.10208151E+03 -.46616800E+02 0.84402617E+02 0.16384271E+03 0.84420797E+02 0.0000E+00 0.0000E+00
       24  1    3    3    0    0 0.33171304E+00 -.97366765E+02 0.44699262E+03 0.46448899E+03 0.80419002E+02 0.0000E+00 0.9000E+01
      -11  1    4    4    0    0 0.14370755E+02 -.13872724E+02 -.16709666E+02 0.26041966E+02 0.51099893E-03 0.0000E+00 0.9000E+01
       11  1    4    4    0    0 0.87710759E+02 -.32744076E+02 0.10111228E+03 0.13780075E+03 0.51099893E-03 0.0000E+00 0.9000E+01
      -24  1    3    3    0    0 -.10241323E+03 0.14398357E+03 0.73442538E+03 0.75964965E+03 0.80419002E+02 0.0000E+00 0.9000E+01
#aMCatNLO 1  0  0  1  2 0.41212372D+03 0.00000000D+00  -5  7  0 0.00000000D+00 0.00000000D+00 0.00000000D+00 0.00000000D+00 0.00000000D+00
  <mgrwgt>
 0.1018009988D-02    3    2    0
 0.284688592807399D+03 0.000000000000000D+00 0.000000000000000D+00 0.284688592807399D+03
 0.284688592807399D+03 0.000000000000000D+00 0.000000000000000D+00 -.284688592807399D+03
 0.138554145554459D+03 0.331713035039584D+00 -.973667650147109D+02 0.570055991371745D+02
 0.100631363977690D+03 0.143707545626302D+02 -.138727242936292D+02 -.986291049841982D+02
 0.111129939559417D+03 0.877107592809285D+02 -.327440758147806D+02 -.598707914752985D+02
 0.219061736523231D+03 -.102413226878598D+03 0.143983565123121D+03 0.101494297322322D+03
 0.000000000000000D+00 -.000000000000000D+00 -.000000000000000D+00 -.000000000000000D+00
 0.406042842137922D+03 0.000000000000000D+00 0.000000000000000D+00 0.406042842137922D+03
 0.112906105648539D+04 0.000000000000000D+00 0.000000000000000D+00 -.112906105648539D+04
 0.101088591975349D+03 0.951815807176500D+01 -.202843241721476D+02 0.570055991371745D+02
 0.115486282141649D+03 0.226553906755641D+02 0.556427379471402D+02 -.986291049841982D+02
 0.121165041027578D+03 0.966155360059239D+02 0.419749174820399D+02 -.598707914752985D+02
 0.365137272101252D+03 -.800185900180894D+02 0.331894477787351D+03 0.101494297322322D+03
 0.832226711377483D+03 -.487704947351636D+02 -.409227809044384D+03 -.723018214347469D+03
0.727804350799D-05 0.000000000000D+00 0.000000000000D+00 0.331625633749D-07 0.000000000000D+00  7 2 -2 24 -11 11 -24 21 0 0.20413861D+00 0.93969791D-02 0.47091789D+05 0.47091789D+05 0.47091789D+05 0.11495916D+01  1  2  2  1  7  1        2 0.100213672948D-02 0.100000000000D+01
-.368106111448D-06 0.000000000000D+00 -.279496034236D-07 0.331625633749D-07 0.000000000000D+00  7 2 -2 24 -11 11 -24 21 2 0.20413861D+00 0.93969791D-02 0.47091789D+05 0.47091789D+05 0.47091789D+05 0.11495916D+01  1  2  3  1  7  1        2 -.669842202781D-04 0.100000000000D+01
0.455336261277D-06 0.000000000000D+00 0.000000000000D+00 0.331625633749D-07 0.000000000000D+00  7 2 -2 24 -11 11 -24 21 2 0.20413861D+00 0.93969791D-02 0.47091789D+05 0.47091789D+05 0.47091789D+05 0.11495916D+01  1  2 15  1  7  1        2 0.828574790730D-04 0.100000000000D+01
  </mgrwgt>
  </event>
  <event>
  8     66 0.26993063E-05 0.61741000E+02 0.75467711E-02 0.10455955E+00
        2 -1    0    0  501    0 0.00000000E+00 0.00000000E+00 0.10559834E+04 0.10559835E+04 0.32000000E+00 0.0000E+00 0.9000E+01
       -2 -1    0    0    0  501 0.00000000E+00 0.00000000E+00 -.43357012E+02 0.43358193E+02 0.32000000E+00 0.0000E+00 0.9000E+01
       25  2    1    2    0    0 0.41209646E+01 0.44272109E+02 0.88757329E+03 0.93785468E+03 0.29967991E+03 0.0000E+00 0.0000E+00
       23  2    1    2    0    0 -.41209646E+01 -.44272109E+02 0.12505314E+03 0.16148701E+03 0.91993282E+02 0.0000E+00 0.0000E+00
       24  1    3    3    0    0 -.12430168E+03 0.20974075E+02 0.45196422E+03 0.47605640E+03 0.80419002E+02 0.0000E+00 0.9000E+01
      -13  1    4    4    0    0 -.11658730E+02 0.25120825E+02 0.15930572E+02 0.31949587E+02 0.10565837E+00 0.0000E+00 0.9000E+01
       13  1    4    4    0    0 0.75377659E+01 -.69392934E+02 0.10912257E+03 0.12953742E+03 0.10565837E+00 0.0000E+00 0.9000E+01
      -24  1    3    3    0    0 0.12842265E+03 0.23298033E+02 0.43560907E+03 0.46179829E+03 0.80419002E+02 0.0000E+00 0.9000E+01
#aMCatNLO 1  0  0  1  2 0.51610931D+02 0.00000000D+00  -5  7  0 0.00000000D+00 0.00000000D+00 0.00000000D+00 0.00000000D+00 0.00000000D+00
  <mgrwgt>
 0.8287724086D-03    9    2    0
 0.213974211910034D+03 0.000000000000000D+00 0.000000000000000D+00 0.213974211910034D+03
 0.213974211910034D+03 0.000000000000000D+00 0.000000000000000D+00 -.213974211910034D+03
 0.153471145667783D+03 -.124301677929395D+03 0.209741310131963D+02 0.345739105452304D+02
 0.443785999154991D+02 -.116587358538174D+02 0.251208095759823D+02 -.346767780365778D+02
 0.745545736420779D+02 0.753776078678415D+01 -.693930305124110D+02 -.261949218280344D+02
 0.155544104594707D+03 0.128422652996428D+03 0.232980899232324D+02 0.262977893193818D+02
 0.000000000000000D+00 -.000000000000000D+00 0.000000000000000D+00 0.000000000000000D+00
 0.304334390455100D+03 0.000000000000000D+00 0.000000000000000D+00 0.304334390455100D+03
 0.223022976472888D+03 0.000000000000000D+00 0.000000000000000D+00 -.223022976472888D+03
 0.144881026601132D+03 -.115317406140032D+03 0.546227657417519D+01 0.345739105452304D+02
 0.413738519876133D+02 -.907647433166076D+01 0.206623887051220D+02 -.346767780365778D+02
 0.827922858316537D+02 0.122759429825572D+02 -.775737706157333D+02 -.261949218280344D+02
 0.162002185006434D+03 0.137984916779476D+03 0.678829954870670D+01 0.262977893193818D+02
 0.963080175011550D+02 -.258669792903406D+02 0.446608057877295D+02 0.813114139822115D+02
0.202124322341D-05 0.000000000000D+00 0.000000000000D+00 0.224533904062D-06 0.000000000000D+00  7 2 -2 24 -13 13 -24 21 0 0.16245909D+00 0.66704042D-02 0.40065346D+05 0.40065346D+05 0.40065346D+05 0.11558546D+01  1  2  2  1  7  1        2 0.660624930366D-03 0.100000000000D+01
-.111683483618D-06 0.000000000000D+00 -.776210618346D-08 0.224533904062D-06 0.000000000000D+00  7 2 -2 24 -13 13 -24 21 2 0.16245909D+00 0.66704042D-02 0.40065346D+05 0.40065346D+05 0.40065346D+05 0.11558546D+01  1  2  3  1  7  1        2 -.487676379070D-04 0.100000000000D+01
0.125583891681D-06 0.000000000000D+00 0.000000000000D+00 0.224533904062D-06 0.000000000000D+00  7 2 -2 24 -13 13 -24 21 2 0.16245909D+00 0.66704042D-02 0.40065346D+05 0.40065346D+05 0.40065346D+05 0.11558546D+01  1  2 15  1  7  1        2 0.548373811241D-04 0.100000000000D+01
0.401299921795D-05 0.000000000000D+00 0.000000000000D+00 0.224533904062D-06 0.000000000000D+00  7 2 -2 24 -13 13 -24 21 2 0.23338201D+00 0.66704042D-02 0.51362699D+05 0.51362699D+05 0.51362699D+05 0.11462696D+01  1  2 12  1  7  1        2 0.961401354347D-03 0.100000000000D+01
-.407897973523D-05 0.000000000000D+00 0.000000000000D+00 0.224533904062D-06 0.000000000000D+00  7 2 -2 24 -13 13 -24 21 2 0.16245909D+00 0.66704042D-02 0.40065346D+05 0.40065346D+05 0.40065346D+05 0.11558546D+01  1  2  4  1  7  1        2 -.178112465973D-02 0.100000000000D+01
-.497996503216D-05 0.000000000000D+00 -.839225702604D-06 0.224533904062D-06 0.000000000000D+00  7 2 -2 24 -13 13 -24 21 2 0.23485495D+00 0.66704042D-02 0.40065346D+05 0.40065346D+05 0.40065346D+05 0.11558546D+01  1  2  5  1  7  1        2 -.119946271221D-02 0.100000000000D+01
0.499978745016D-05 0.000000000000D+00 0.785289124847D-06 0.224533904062D-06 0.000000000000D+00  7 2 -2 24 -13 13 -24 21 2 0.16245909D+00 0.66704042D-02 0.40065346D+05 0.40065346D+05 0.40065346D+05 0.11558546D+01  1  2  6  1  7  1        2 0.218320396250D-02 0.100000000000D+01
0.177718686089D-06 0.000000000000D+00 0.000000000000D+00 0.224533904062D-06 0.000000000000D+00  7 21 -2 24 -13 13 -24 -2 2 0.23338201D+00 0.66704042D-02 0.51362699D+05 0.51362699D+05 0.51362699D+05 0.11462696D+01  1  2 12  3  7  1        2 0.159760842392D-04 0.100000000000D+01
-.197743985352D-06 0.000000000000D+00 -.376319630344D-07 0.224533904062D-06 0.000000000000D+00  7 21 -2 24 -13 13 -24 -2 2 0.23485495D+00 0.66704042D-02 0.40065346D+05 0.40065346D+05 0.40065346D+05 0.11558546D+01  1  2  5  3  7  1        2 -.179162940984D-04 0.100000000000D+01
  </mgrwgt>
  </event>
  <event>
  8     66 0.26993063E-05 0.52860314E+03 0.75467711E-02 0.91260933E-01
        2 -1    0    0  501    0 0.00000000E+00 0.00000000E+00 0.29515532E+04 0.29515532E+04 0.32000000E+00 0.0000E+00 0.9000E+01
       -2 -1    0    0    0  501 0.00000000E+00 0.00000000E+00 -.15966925E+03 0.15966957E+03 0.32000000E+00 0.0000E+00 0.9000E+01
       25  2    1    2    0    0 -.20434796E+03 0.44324249E+03 0.24284839E+04 0.24962943E+04 0.30940127E+03 0.0000E+00 0.0000E+00
       23  2    1    2    0    0 0.20434796E+03 -.44324249E+03 0.36340003E+03 0.61492847E+03 0.88630968E+02 0.0000E+00 0.0000E+00
       24  1    3    3    0    0 -.23891664E+03 0.28549923E+03 0.19020491E+04 0.19398065E+04 0.80419002E+02 0.0000E+00 0.9000E+01
      -13  1    4    4    0    0 0.52554329E+01 0.38535530E+01 0.64330532E+01 0.91577717E+01 0.10565837E+00 0.0000E+00 0.9000E+01
       13  1    4    4    0    0 0.19909252E+03 -.44709605E+03 0.35696698E+03 0.60577070E+03 0.10565837E+00 0.0000E+00 0.9000E+01
      -24  1    3    3    0    0 0.34568682E+02 0.15774326E+03 0.52643476E+03 0.55648783E+03 0.80419002E+02 0.0000E+00 0.9000E+01
#aMCatNLO 1  0  0  1  1 0.27969403D+03 0.00000000D+00  -5  7  0 0.00000000D+00 0.00000000D+00 0.00000000D+00 0.00000000D+00 0.00000000D+00
  <mgrwgt>
 0.9905983470D-03    4    2    0
 0.686493118761645D+03 0.000000000000000D+00 0.000000000000000D+00 0.686493118761645D+03
 0.686493118761645D+03 0.000000000000000D+00 0.000000000000000D+00 -.686493118761645D+03
 0.527951102443018D+03 -.238916633743381D+03 0.285499234297613D+03 0.365614797228771D+03
 0.766962009235625D+01 0.525515743990270D+01 0.385419380673078D+01 -.404370903293847D+01
 0.646822562528644D+03 0.199092799859718D+03 -.447096688605574D+03 -.422901921818842D+03
 0.190542952459271D+03 0.345686764437605D+02 0.157743260501230D+03 0.613308336230087D+02
 0.000000000000000D+00 0.000000000000000D+00 -.000000000000000D+00 -.000000000000000D+00
 0.776369395853239D+03 0.000000000000000D+00 0.000000000000000D+00 0.776369395853239D+03
 0.958681985092092D+03 0.000000000000000D+00 0.000000000000000D+00 -.958681985092092D+03
 0.614430741460337D+03 -.319066920399379D+03 0.368211950446139D+03 0.365614797228771D+03
 0.764600595376533D+01 0.418060270633100D+01 0.496310238799934D+01 -.404370903293847D+01
 0.566475607164202D+03 0.113966975583832D+03 -.359249365358181D+03 -.422901921818842D+03
 0.212632842630240D+03 0.628158861788113D+01 0.186934695287388D+03 0.613308336230087D+02
 0.333866183736787D+03 0.194637753491335D+03 -.200860382763345D+03 -.182312589238853D+03
0.351512096040D-03 0.000000000000D+00 0.000000000000D+00 0.987307203531D-08 0.000000000000D+00  7 2 -2 24 -13 13 -24 21 0 0.45408513D+00 0.24564526D-01 0.27942128D+06 0.27942128D+06 0.27942128D+06 0.10868426D+01  1  2  2  1  7  1        2 0.120506684003D-02 0.100000000000D+01
-.179065585949D-04 0.000000000000D+00 -.134989900405D-05 0.987307203531D-08 0.000000000000D+00  7 2 -2 24 -13 13 -24 21 2 0.45408513D+00 0.24564526D-01 0.27942128D+06 0.27942128D+06 0.27942128D+06 0.10868426D+01  1  2  3  1  7  1        2 -.725130659452D-04 0.100000000000D+01
0.221259934400D-04 0.000000000000D+00 0.000000000000D+00 0.987307203531D-08 0.000000000000D+00  7 2 -2 24 -13 13 -24 21 2 0.45408513D+00 0.24564526D-01 0.27942128D+06 0.27942128D+06 0.27942128D+06 0.10868426D+01  1  2 15  1  7  1        2 0.895997750163D-04 0.100000000000D+01
-.571808230842D-04 0.000000000000D+00 0.000000000000D+00 0.987307203531D-08 0.000000000000D+00  7 2 -2 24 -13 13 -24 21 2 0.45408513D+00 0.24564526D-01 0.27942128D+06 0.27942128D+06 0.27942128D+06 0.10868426D+01  1  2  4  1  7  1        2 -.231555202142D-03 0.100000000000D+01
  </mgrwgt>
  </event>
  <event>
  8     66 0.26993063E-05 0.95406995E+02 0.75467711E-02 0.10502551E+00
        4 -1    0    0  501    0 0.00000000E+00 0.00000000E+00 0.37476129E+03 0.37476450E+03 0.15500000E+01 0.0000E+00 0.9000E+01
       -4 -1    0    0    0  501 0.00000000E+00 0.00000000E+00 -.17866691E+03 0.17867363E+03 0.15500000E+01 0.0000E+00 0.9000E+01
       25  2    1    2    0    0 -.22948731E+02 0.10843667E+03 0.74741151E+01 0.31779527E+03 0.29774622E+03 0.0000E+00 0.0000E+00
       23  2    1    2    0    0 0.22948731E+02 -.10843667E+03 0.18862027E+03 0.23564287E+03 0.87548840E+02 0.0000E+00 0.0000E+00
       24  1    3    3    0    0 -.10498581E+03 0.66931759E+01 -.65660870E+02 0.14780184E+03 0.80419002E+02 0.0000E+00 0.9000E+01
      -13  1    4    4    0    0 0.23910010E+02 -.91791370E+02 0.75318171E+02 0.12112053E+03 0.10565837E+00 0.0000E+00 0.9000E+01
       13  1    4    4    0    0 -.96127953E+00 -.16645303E+02 0.11330209E+03 0.11452234E+03 0.10565837E+00 0.0000E+00 0.9000E+01
      -24  1    3    3    0    0 0.82037080E+02 0.10174350E+03 0.73134985E+02 0.16999342E+03 0.80419002E+02 0.0000E+00 0.9000E+01
#aMCatNLO 1  0  0  2  1 0.43901694D+02 0.00000000D+00  -5  7  0 0.00000000D+00 0.00000000D+00 0.00000000D+00 0.00000000D+00 0.00000000D+00
  <mgrwgt>
 0.3833056908D-04    9    2    0
 0.258766670468738D+03 0.000000000000000D+00 0.000000000000000D+00 0.258766670468738D+03
 0.258766670468738D+03 0.000000000000000D+00 0.000000000000000D+00 -.258766670468738D+03
 0.182934889394466D+03 -.104985811220631D+03 0.669317784192564D+01 -.126218614380437D+03
 0.100985308604871D+03 0.239100452967978D+02 -.917914760758213D+02 0.346506451274441D+02
 0.795371128089746D+02 -.961313567928817D+00 -.166451999734354D+02 0.777699524755931D+02
 0.154076030129163D+03 0.820370794917619D+02 0.101743498207331D+03 0.137980167774002D+02
 0.000000000000000D+00 0.000000000000000D+00 -.000000000000000D+00 -.000000000000000D+00
 0.272811790559872D+03 0.000000000000000D+00 0.000000000000000D+00 0.272811790559872D+03
 0.296433497206714D+03 0.000000000000000D+00 0.000000000000000D+00 -.296433497206714D+03
 0.185719661464134D+03 -.107735386265170D+03 0.220573033292607D+02 -.126218614380437D+03
 0.933259143951093D+02 0.224607934473624D+02 -.836933202092623D+02 0.346506451274441D+02
 0.784472271336210D+02 -.213962480136518D+01 -.100610110131781D+02 0.777699524755931D+02
 0.161899262527339D+03 0.796804077041607D+02 0.114912151723110D+03 0.137980167774002D+02
 0.498532222463823D+02 0.773380991501188D+01 -.432151238299302D+02 -.236217066468419D+02
0.404172588214D-05 0.000000000000D+00 0.000000000000D+00 0.548353956703D-08 0.000000000000D+00  7 4 -4 24 -13 13 -24 21 0 0.57656347D-01 0.27487981D-01 0.39481785D+05 0.39481785D+05 0.39481785D+05 0.11564285D+01  1  2  2  2  7  2       -4 0.348558864320D-04 0.100000000000D+01
-.205494081385D-06 0.000000000000D+00 -.155212915983D-07 0.548353956703D-08 0.000000000000D+00  7 4 -4 24 -13 13 -24 21 2 0.57656347D-01 0.27487981D-01 0.39481785D+05 0.39481785D+05 0.39481785D+05 0.11564285D+01  1  2  3  2  7  2       -4 -.236998801805D-05 0.100000000000D+01
0.258729582680D-06 0.000000000000D+00 0.000000000000D+00 0.548353956703D-08 0.000000000000D+00  7 4 -4 24 -13 13 -24 21 2 0.57656347D-01 0.27487981D-01 0.39481785D+05 0.39481785D+05 0.39481785D+05 0.11564285D+01  1  2 15  2  7  2       -4 0.298395947336D-05 0.100000000000D+01
0.599413636475D-05 0.000000000000D+00 0.000000000000D+00 0.548353956703D-08 0.000000000000D+00  7 4 -4 24 -13 13 -24 21 2 0.57656347D-01 0.32155222D-01 0.48046500D+05 0.48046500D+05 0.48046500D+05 0.11488209D+01  1  2 12  2  7  2       -4 0.505317502560D-04 0.100000000000D+01
-.600384287263D-05 0.000000000000D+00 0.000000000000D+00 0.548353956703D-08 0.000000000000D+00  7 4 -4 24 -13 13 -24 21 2 0.57656347D-01 0.27487981D-01 0.39481785D+05 0.39481785D+05 0.39481785D+05 0.11564285D+01  1  2  4  2  7  2       -4 -.692430437632D-04 0.100000000000D+01
-.120281311534D-04 0.000000000000D+00 -.305301601331D-05 0.548353956703D-08 0.000000000000D+00  7 4 -4 24 -13 13 -24 21 2 0.57656347D-01 0.33022749D-01 0.39481785D+05 0.39481785D+05 0.39481785D+05 0.11564285D+01  1  2  5  2  7  2       -4 -.966176108627D-04 0.100000000000D+01
0.124291347634D-04 0.000000000000D+00 0.300235489336D-05 0.548353956703D-08 0.000000000000D+00  7 4 -4 24 -13 13 -24 21 2 0.57656347D-01 0.27487981D-01 0.39481785D+05 0.39481785D+05 0.39481785D+05 0.11564285D+01  1  2  6  2  7  2       -4 0.143346709869D-03 0.100000000000D+01
0.141726946346D-06 0.000000000000D+00 0.000000000000D+00 0.548353956703D-08 0.000000000000D+00  7 4 21 24 -13 13 -24 4 2 0.57656347D-01 0.32155222D-01 0.48046500D+05 0.48046500D+05 0.48046500D+05 0.11488209D+01  1  2 12  4  7  2       -4 0.255787683613D-04 0.100000000000D+01
-.291693105510D-06 0.000000000000D+00 -.817220085313D-07 0.548353956703D-08 0.000000000000D+00  7 4 21 24 -13 13 -24 4 2 0.57656347D-01 0.33022749D-01 0.39481785D+05 0.39481785D+05 0.39481785D+05 0.11564285D+01  1  2  5  4  7  2       -4 -.507358626640D-04 0.100000000000D+01
  </mgrwgt>
  </event>
  <event>
  8     66 0.26993063E-05 0.20464390E+03 0.75467711E-02 0.85981842E-01
        2 -1    0    0  501    0 0.00000000E+00 0.00000000E+00 0.23275463E+04 0.23275463E+04 0.32000000E+00 0.0000E+00 0.9000E+01
       -2 -1    0    0    0  501 0.00000000E+00 0.00000000E+00 -.16020792E+03 0.16020824E+03 0.32000000E+00 0.0000E+00 0.9000E+01
       25  2    1    2    0    0 0.50145797E+02 -.11564444E+03 0.12536869E+02 0.32737856E+03 0.30187963E+03 0.0000E+00 0.0000E+00
       23  2    1    2    0    0 -.50145797E+02 0.11564444E+03 0.21548015E+04 0.21603760E+04 0.90369614E+02 0.0000E+00 0.0000E+00
       24  1    3    3    0    0 -.60938870E+02 -.66895932E+02 0.10047951E+03 0.15732756E+03 0.80419002E+02 0.0000E+00 0.9000E+01
      -11  1    4    4    0    0 -.57416291E+02 0.48542225E+02 0.70360604E+03 0.70761178E+03 0.51099893E-03 0.0000E+00 0.9000E+01
       11  1    4    4    0    0 0.72704944E+01 0.67102218E+02 0.14511955E+04 0.14527642E+04 0.51099893E-03 0.0000E+00 0.9000E+01
      -24  1    3    3    0    0 0.11108467E+03 -.48748511E+02 -.87942642E+02 0.17005101E+03 0.80419002E+02 0.0000E+00 0.9000E+01
#aMCatNLO 1  0  0  2  1 0.11198128D+04 0.00000000D+00  -5  7  0 0.00000000D+00 0.00000000D+00 0.00000000D+00 0.00000000D+00 0.00000000D+00
  <mgrwgt>
 0.1374274800D-02    3    2    0
 0.610648652515409D+03 0.000000000000000D+00 0.000000000000000D+00 0.610648652515409D+03
 0.610648652515409D+03 0.000000000000000D+00 0.000000000000000D+00 -.610648652515409D+03
 0.142159686957652D+03 -.609388699724909D+02 -.668959316942471D+02 -.745221382594556D+02
 0.192755743090385D+03 -.574162912087236D+02 0.485422250261987D+02 0.177487459803974D+03
 0.383927123896906D+03 0.727049439549647D+01 0.671022178614592D+02 0.377947706347146D+03
 0.502454751085874D+03 0.111084666785718D+03 -.487485111934108D+02 -.480913027891665D+03
 0.000000000000000D+00 0.000000000000000D+00 -.000000000000000D+00 0.000000000000000D+00
 0.154627087618959D+04 0.000000000000000D+00 0.000000000000000D+00 0.154627087618959D+04
 0.126523760092604D+04 0.000000000000000D+00 0.000000000000000D+00 -.126523760092604D+04
 0.167780119863458D+03 -.121349900346809D+03 0.374647202322891D+02 -.745221382594556D+02
 0.326411987866183D+03 -.158608383589053D+03 0.223352564548414D+03 0.177487459803974D+03
 0.570793642321841D+03 -.178816171265757D+03 0.388568771616840D+03 0.377947706347146D+03
 0.591983702148402D+03 -.102234671957107D+03 0.319762754411534D+03 -.480913027891665D+03
 0.115453902491574D+04 0.561009127158727D+03 -.969148810809077D+03 0.281033275263542D+03
0.141048137378D-03 0.000000000000D+00 0.000000000000D+00 0.619682403720D-06 0.000000000000D+00  7 2 -2 24 -11 11 -24 21 0 0.35808407D+00 0.24647399D-01 0.41879125D+05 0.41879125D+05 0.41879125D+05 0.11541280D+01  1  2  2  2  7  2       -2 0.123237667424D-02 0.100000000000D+01
0.355115738758D-05 0.000000000000D+00 -.541661986357D-06 0.619682403720D-06 0.000000000000D+00  7 2 -2 24 -11 11 -24 21 2 0.35808407D+00 0.24647399D-01 0.41879125D+05 0.41879125D+05 0.41879125D+05 0.11541280D+01  1  2  3  2  7  2       -2 0.413289151238D-04 0.100000000000D+01
0.864133728147D-05 0.000000000000D+00 0.000000000000D+00 0.619682403720D-06 0.000000000000D+00  7 2 -2 24 -11 11 -24 21 2 0.35808407D+00 0.24647399D-01 0.41879125D+05 0.41879125D+05 0.41879125D+05 0.11541280D+01  1  2 15  2  7  2       -2 0.100569210565D-03 0.100000000000D+01
  </mgrwgt>
  </event>
  <event>
  8     66 0.26993063E-05 0.23046800E+03 0.75467711E-02 0.94769378E-01
        2 -1    0    0  501    0 0.00000000E+00 0.00000000E+00 0.37268605E+03 0.37268619E+03 0.32000000E+00 0.0000E+00 0.9000E+01
       -2 -1    0    0    0  501 0.00000000E+00 0.00000000E+00 -.22870607E+03 0.22870630E+03 0.32000000E+00 0.0000E+00 0.9000E+01
       25  2    1    2    0    0 0.19337396E+03 -.18429222E+02 0.14879388E+03 0.38653103E+03 0.29922147E+03 0.0000E+00 0.0000E+00
       23  2    1    2    0    0 -.19337396E+03 0.18429222E+02 -.48139081E+01 0.21486146E+03 0.91701391E+02 0.0000E+00 0.0000E+00
       24  1    3    3    0    0 0.35025575E+02 0.29251433E+01 -.63940505E+02 0.10858615E+03 0.80419002E+02 0.0000E+00 0.9000E+01
      -13  1    4    4    0    0 -.19178001E+02 0.30633675E+01 0.30787983E+02 0.36401799E+02 0.10565837E+00 0.0000E+00 0.9000E+01
       13  1    4    4    0    0 -.17419596E+03 0.15365855E+02 -.35601891E+02 0.17845966E+03 0.10565837E+00 0.0000E+00 0.9000E+01
      -24  1    3    3    0    0 0.15834839E+03 -.21354366E+02 0.21273439E+03 0.27794488E+03 0.80419002E+02 0.0000E+00 0.9000E+01
#aMCatNLO 1  0  0  2  1 0.38895763D+03 0.00000000D+00  -5  7  0 0.00000000D+00 0.00000000D+00 0.00000000D+00 0.00000000D+00 0.00000000D+00
  <mgrwgt>
 0.1074105283D-02    3    2    0
 0.291951488788162D+03 0.000000000000000D+00 0.000000000000000D+00 0.291951488788162D+03
 0.291951488788162D+03 0.000000000000000D+00 0.000000000000000D+00 -.291951488788162D+03
 0.127605181638550D+03 0.350255752560005D+02 0.292514330668532D+01 -.926310911155557D+02
 0.299001540813002D+02 -.191777956286324D+02 0.306335111442733D+01 0.227342747599662D+02
 0.192584017930227D+03 -.174196169595720D+03 0.153658714620249D+02 -.806733441388269D+02
 0.233813623926248D+03 0.158348389968352D+03 -.213543658831376D+02 0.150570160494416D+03
 0.000000000000000D+00 0.000000000000000D+00 -.000000000000000D+00 0.000000000000000D+00
 0.820581337925336D+03 0.000000000000000D+00 0.000000000000000D+00 0.820581337925336D+03
 0.431304875155630D+03 0.000000000000000D+00 0.000000000000000D+00 -.431304875155630D+03
 0.150393371499806D+03 0.175855829897089D+02 0.852125487610942D+02 -.926310911155557D+02
 0.405716362232962D+02 -.235987807885523D+02 0.239229588944950D+02 0.227342747599662D+02
 0.265472290810436D+03 -.202931925202288D+03 0.150950264879835D+03 -.806733441388269D+02
 0.245154265820799D+03 0.128300764904515D+03 0.120419843005074D+03 0.150570160494416D+03
 0.550294648726628D+03 0.806443580966163D+02 -.380505615540498D+03 0.389276462769706D+03
0.135963983592D-04 0.000000000000D+00 0.000000000000D+00 0.435191470623D-06 0.000000000000D+00  7 2 -2 24 -13 13 -24 21 0 0.57336343D-01 0.35185578D-01 0.53115501D+05 0.53115501D+05 0.53115501D+05 0.11449935D+01  1  2  2  2  7  2       -2 0.105640277610D-02 0.100000000000D+01
-.703997762256D-06 0.000000000000D+00 -.522137497133D-07 0.435191470623D-06 0.000000000000D+00  7 2 -2 24 -13 13 -24 21 2 0.57336343D-01 0.35185578D-01 0.53115501D+05 0.53115501D+05 0.53115501D+05 0.11449935D+01  1  2  3  2  7  2       -2 -.717105335651D-04 0.100000000000D+01
0.877787089808D-06 0.000000000000D+00 0.000000000000D+00 0.435191470623D-06 0.000000000000D+00  7 2 -2 24 -13 13 -24 21 2 0.57336343D-01 0.35185578D-01 0.53115501D+05 0.53115501D+05 0.53115501D+05 0.11449935D+01  1  2 15  2  7  2       -2 0.894130406963D-04 0.100000000000D+01
  </mgrwgt>
  </event>
  <event>
  8     66 0.26993063E-05 0.53224745E+03 0.75467711E-02 0.91394016E-01
        2 -1    0    0  501    0 0.00000000E+00 0.00000000E+00 0.12220845E+04 0.12220845E+04 0.32000000E+00 0.0000E+00 0.9000E+01
       -2 -1    0    0    0  501 0.00000000E+00 0.00000000E+00 -.29897878E+03 0.29897895E+03 0.32000000E+00 0.0000E+00 0.9000E+01
       25  2    1    2    0    0 0.37268062E+03 0.31321768E+03 0.84397584E+03 0.10195255E+04 0.30023456E+03 0.0000E+00 0.0000E+00
       23  2    1    2    0    0 -.37268062E+03 -.31321768E+03 0.79129878E+02 0.50153803E+03 0.91009325E+02 0.0000E+00 0.0000E+00
       24  1    3    3    0    0 0.29469765E+03 0.33781522E+03 0.63994800E+03 0.78547214E+03 0.80419002E+02 0.0000E+00 0.9000E+01
      -13  1    4    4    0    0 0.45848407E+01 -.74184997E+01 0.56058943E+01 0.10367840E+02 0.10565837E+00 0.0000E+00 0.9000E+01
       13  1    4    4    0    0 -.37726546E+03 -.30579918E+03 0.73523984E+02 0.49117019E+03 0.10565837E+00 0.0000E+00 0.9000E+01
      -24  1    3    3    0    0 0.77982977E+02 -.24597536E+02 0.20402784E+03 0.23405332E+03 0.80419002E+02 0.0000E+00 0.9000E+01
#aMCatNLO 1  0  0  2  1 0.25255282D+03 0.00000000D+00  -5  7  0 0.00000000D+00 0.00000000D+00 0.00000000D+00 0.00000000D+00 0.00000000D+00
  <mgrwgt>
 0.1096864712D-02    4    2    0
 0.604464638437049D+03 0.000000000000000D+00 0.000000000000000D+00 0.604464638437049D+03
 0.604464638437049D+03 0.000000000000000D+00 0.000000000000000D+00 -.604464638437049D+03
 0.499626698308852D+03 0.294697645589788D+03 0.337815217943463D+03 0.205411289656339D+03
 0.876346497535876D+01 0.458535533932384D+01 -.741809749427988D+01 -.862939367413723D+00
 0.561845555914870D+03 -.377265978058485D+03 -.305799584682974D+03 -.282537474520788D+03
 0.138693557675018D+03 0.779829771293729D+02 -.245975357662093D+02 0.779891242318627D+02
 0.000000000000000D+00 0.000000000000000D+00 -.000000000000000D+00 0.000000000000000D+00
 0.760380513159573D+03 0.000000000000000D+00 0.000000000000000D+00 0.760380513159573D+03
 0.729126351378079D+03 0.000000000000000D+00 0.000000000000000D+00 -.729126351378079D+03
 0.548278376523170D+03 0.248846348170985D+03 0.435917032578675D+03 0.205411289656339D+03
 0.714313887273272D+01 0.388935868707093D+01 -.592896766786754D+01 -.862939367413723D+00
 0.549471518777264D+03 -.425891880291539D+03 -.201761323698437D+03 -.282537474520788D+03
 0.130134464173234D+03 0.662203529372450D+02 0.569359023698599D+00 0.779891242318627D+02
 0.254479366191251D+03 0.106935820496239D+03 -.228796100236069D+03 0.312541617814938D+02
0.161726276836D-03 0.000000000000D+00 0.000000000000D+00 0.862678918118D-05 0.000000000000D+00  7 2 -2 24 -13 13 -24 21 0 0.18801302D+00 0.45996752D-01 0.28328734D+06 0.28328734D+06 0.28328734D+06 0.10863985D+01  1  2  2  2  7  2       -2 0.169110179794D-02 0.100000000000D+01
-.880794501872D-05 0.000000000000D+00 -.621071486556D-06 0.862678918118D-05 0.000000000000D+00  7 2 -2 24 -13 13 -24 21 2 0.18801302D+00 0.45996752D-01 0.28328734D+06 0.28328734D+06 0.28328734D+06 0.10863985D+01  1  2  3  2  7  2       -2 -.108703127220D-03 0.100000000000D+01
0.104460388167D-04 0.000000000000D+00 0.000000000000D+00 0.862678918118D-05 0.000000000000D+00  7 2 -2 24 -13 13 -24 21 2 0.18801302D+00 0.45996752D-01 0.28328734D+06 0.28328734D+06 0.28328734D+06 0.10863985D+01  1  2 15  2  7  2       -2 0.128919638351D-03 0.100000000000D+01
-.497876522475D-04 0.000000000000D+00 0.000000000000D+00 0.862678918118D-05 0.000000000000D+00  7 2 -2 24 -13 13 -24 21 2 0.18801302D+00 0.45996752D-01 0.28328734D+06 0.28328734D+06 0.28328734D+06 0.10863985D+01  1  2  4  2  7  2       -2 -.614453596694D-03 0.100000000000D+01
  </mgrwgt>
  </event>
  <event>
  8     66 0.26993063E-05 0.25374980E+03 0.75467711E-02 0.95472130E-01
        2 -1    0    0  501    0 0.00000000E+00 0.00000000E+00 0.18421939E+04 0.18421939E+04 0.32000000E+00 0.0000E+00 0.9000E+01
       -2 -1    0    0    0  501 0.00000000E+00 0.00000000E+00 -.11397845E+03 0.11397890E+03 0.32000000E+00 0.0000E+00 0.9000E+01
       25  2    1    2    0    0 -.87502918E+00 0.39914034E+03 0.10728483E+04 0.11835202E+04 0.30067069E+03 0.0000E+00 0.0000E+00
       23  2    1    2    0    0 0.87502918E+00 -.39914034E+03 0.65536713E+03 0.77265259E+03 0.90400078E+02 0.0000E+00 0.0000E+00
       24  1    3    3    0    0 0.21614743E+02 -.77919368E+01 0.20362708E+03 0.22013432E+03 0.80419002E+02 0.0000E+00 0.9000E+01
      -13  1    4    4    0    0 0.20057118E+02 -.38360161E+03 0.62372391E+03 0.73251895E+03 0.10565837E+00 0.0000E+00 0.9000E+01
       13  1    4    4    0    0 -.19182089E+02 -.15538729E+02 0.31643217E+02 0.40133639E+02 0.10565837E+00 0.0000E+00 0.9000E+01
      -24  1    3    3    0    0 -.22489772E+02 0.40693228E+03 0.86922123E+03 0.96338592E+03 0.80419002E+02 0.0000E+00 0.9000E+01
#aMCatNLO 1  0  0  1  2 0.20564184D+02 0.00000000D+00  -5  7  0 0.00000000D+00 0.00000000D+00 0.00000000D+00 0.00000000D+00 0.00000000D+00
  <mgrwgt>
 0.1273362476D-02    6    2    0
 0.458225790202004D+03 0.000000000000000D+00 0.000000000000000D+00 0.458225790202004D+03
 0.458225790202004D+03 0.000000000000000D+00 0.000000000000000D+00 -.458225790202004D+03
 0.858848360671110D+02 0.216147431660674D+02 -.779193674532499D+01 0.195212118354831D+02
 0.387368877153963D+03 0.200571713331337D+02 -.383602113295745D+03 -.500177522553146D+02
 0.259932822946789D+02 -.191821421575864D+02 -.155382258809198D+02 -.814000510875355D+01
 0.417204584888255D+03 -.224897723416147D+02 0.406932275921990D+03 0.386365455285851D+02
 0.000000000000000D+00 -.000000000000000D+00 0.000000000000000D+00 -.000000000000000D+00
 0.466645101278207D+03 0.000000000000000D+00 0.000000000000000D+00 0.466645101278207D+03
 0.471072572216130D+03 0.000000000000000D+00 0.000000000000000D+00 -.471072572216130D+03
 0.862863840194329D+02 0.225109333829050D+02 -.950285638548326D+01 0.195212118354831D+02
 0.395300126109821D+03 0.241311408583218D+02 -.391379741686565D+03 -.500177522553146D+02
 0.261089607763931D+02 -.189109381753406D+02 -.160559822801704D+02 -.814000510875355D+01
 0.408986799517677D+03 -.181892589598315D+02 0.398722151922177D+03 0.386365455285851D+02
 0.210354030710141D+02 -.954187710605469D+01 0.182164284300415D+02 -.442747093792346D+01
0.316249805334D-04 0.000000000000D+00 0.000000000000D+00 0.122600010439D-05 0.000000000000D+00  7 2 -2 24 -13 13 -24 21 0 0.28341448D+00 0.17535183D-01 0.20605269D+06 0.20605269D+06 0.20605269D+06 0.10968323D+01  1  2  2  1  7  1        2 0.838038455423D-03 0.100000000000D+01
-.175675386755D-05 0.000000000000D+00 -.121448252297D-06 0.122600010439D-05 0.000000000000D+00  7 2 -2 24 -13 13 -24 21 2 0.28341448D+00 0.17535183D-01 0.20605269D+06 0.20605269D+06 0.20605269D+06 0.10968323D+01  1  2  3  1  7  1        2 -.560047759713D-04 0.100000000000D+01
0.201874090008D-05 0.000000000000D+00 0.000000000000D+00 0.122600010439D-05 0.000000000000D+00  7 2 -2 24 -13 13 -24 21 2 0.28341448D+00 0.17535183D-01 0.20605269D+06 0.20605269D+06 0.20605269D+06 0.10968323D+01  1  2 15  1  7  1        2 0.643568424360D-04 0.100000000000D+01
0.441272828348D-04 0.000000000000D+00 0.000000000000D+00 0.122600010439D-05 0.000000000000D+00  7 2 -2 24 -13 13 -24 21 2 0.29250457D+00 0.17535183D-01 0.21562170D+06 0.21562170D+06 0.21562170D+06 0.10953256D+01  1  2 12  1  7  1        2 0.130133319217D-02 0.100000000000D+01
-.275571617134D-04 0.000000000000D+00 0.000000000000D+00 0.122600010439D-05 0.000000000000D+00  7 2 -2 24 -13 13 -24 21 2 0.28341448D+00 0.17535183D-01 0.20605269D+06 0.20605269D+06 0.20605269D+06 0.10968323D+01  1  2  4  1  7  1        2 -.878513886704D-03 0.100000000000D+01
0.627038139923D-06 0.000000000000D+00 0.000000000000D+00 0.122600010439D-05 0.000000000000D+00  7 21 -2 24 -13 13 -24 -2 2 0.29250457D+00 0.17535183D-01 0.21562170D+06 0.21562170D+06 0.21562170D+06 0.10953256D+01  1  2 12  3  7  1        2 0.415264906708D-05 0.100000000000D+01
  </mgrwgt>
  </event>
  <event>
  8     66 0.26993063E-05 0.15072095E+04 0.75467711E-02 0.80804990E-01
        2 -1    0    0  501    0 0.00000000E+00 0.00000000E+00 0.13805527E+04 0.13805528E+04 0.32000000E+00 0.0000E+00 0.9000E+01
       -2 -1    0    0    0  501 0.00000000E+00 0.00000000E+00 -.17892803E+04 0.17892803E+04 0.32000000E+00 0.0000E+00 0.9000E+01
       25  2    1    2    0    0 -.12952595E+04 -.75236648E+03 -.63129131E+03 0.16527419E+04 0.29878856E+03 0.0000E+00 0.0000E+00
       23  2    1    2    0    0 0.12952595E+04 0.75236648E+03 0.22256378E+03 0.15170911E+04 0.90985243E+02 0.0000E+00 0.0000E+00
       24  1    3    3    0    0 -.32408255E+03 -.26487536E+03 -.88098335E+02 0.43522062E+03 0.80419002E+02 0.0000E+00 0.9000E+01
      -11  1    4    4    0    0 0.66269423E+03 0.35923270E+03 0.71821808E+02 0.75721209E+03 0.51099893E-03 0.0000E+00 0.9000E+01
       11  1    4    4    0    0 0.63256531E+03 0.39313378E+03 0.15074197E+03 0.75987906E+03 0.51099893E-03 0.0000E+00 0.9000E+01
      -24  1    3    3    0    0 -.97117699E+03 -.48749112E+03 -.54319297E+03 0.12175213E+04 0.80419002E+02 0.0000E+00 0.9000E+01
#aMCatNLO 1  0  0  1  2 0.10169141D+04 0.00000000D+00  -5  7  0 0.00000000D+00 0.00000000D+00 0.00000000D+00 0.00000000D+00 0.00000000D+00
  <mgrwgt>
 0.8250328099D-03    3    2    0
 0.157168568713496D+04 0.000000000000000D+00 0.000000000000000D+00 0.157168568713496D+04
 0.157168568713496D+04 0.000000000000000D+00 0.000000000000000D+00 -.157168568713496D+04
 0.427429136022326D+03 -.324082552485764D+03 -.264875359358379D+03 -.322489309203112D+02
 0.772925372956382D+03 0.662694234153848D+03 0.359232698655562D+03 0.170885494983185D+03
 0.785876649310348D+03 0.632565306925608D+03 0.393133781975007D+03 0.250816805408648D+03
 0.115714021598086D+04 -.971176988593692D+03 -.487491121272190D+03 -.389453369471521D+03
 0.000000000000000D+00 -.000000000000000D+00 -.000000000000000D+00 -.000000000000000D+00
 0.175396870337338D+04 0.000000000000000D+00 0.000000000000000D+00 0.175396870337338D+04
 0.418440411943896D+04 0.000000000000000D+00 0.000000000000000D+00 -.418440411943896D+04
 0.330429838626759D+03 -.206581921846042D+03 -.242900346482727D+03 -.322489309203112D+02
 0.104446514053249D+04 0.944467675647325D+03 0.411930075436643D+03 0.170885494983185D+03
 0.105051253915791D+04 0.917284357517969D+03 0.446382047696191D+03 0.250816805408648D+03
 0.878362743200984D+03 -.655586767492685D+03 -.428469317437035D+03 -.389453369471521D+03
 0.263460256129421D+04 -.999583343826567D+03 -.186942459213073D+03 -.243043541606558D+04
0.125006526156D-01 0.000000000000D+00 0.000000000000D+00 0.897070176869D-05 0.000000000000D+00  7 2 -2 24 -11 11 -24 21 0 0.21239273D+00 0.27527389D+00 0.22716805D+07 0.22716805D+07 0.22716805D+07 0.10249359D+01  1  2  2  1  7  1        2 0.817411208077D-03 0.100000000000D+01
-.692999078419D-03 0.000000000000D+00 -.480057975411D-04 0.897070176869D-05 0.000000000000D+00  7 2 -2 24 -11 11 -24 21 2 0.21239273D+00 0.27527389D+00 0.22716805D+07 0.22716805D+07 0.22716805D+07 0.10249359D+01  1  2  3  1  7  1        2 -.476029592040D-04 0.100000000000D+01
0.803953588889D-03 0.000000000000D+00 0.000000000000D+00 0.897070176869D-05 0.000000000000D+00  7 2 -2 24 -11 11 -24 21 2 0.21239273D+00 0.27527389D+00 0.22716805D+07 0.22716805D+07 0.22716805D+07 0.10249359D+01  1  2 15  1  7  1        2 0.552245610212D-04 0.100000000000D+01
  </mgrwgt>
  </event>
  <event>
  7     66 0.26993063E-05 0.30463474E+03 0.75467711E-02 0.96014086E-01
        2 -1    0    0  501    0 0.00000000E+00 0.00000000E+00 0.16682618E+04 0.16682618E+04 0.32000000E+00 0.0000E+00 0.9000E+01
       -2 -1    0    0    0  501 0.00000000E+00 0.00000000E+00 -.10502995E+03 0.10503044E+03 0.32000000E+00 0.0000E+00 0.9000E+01
       23  2    1    2    0    0 0.25943127E+03 -.87114639E+02 0.21224048E+03 0.35836889E+03 0.92134121E+02 0.0000E+00 0.0000E+00
       24  1    1    2    0    0 -.40430090E+02 0.20125747E+02 0.83548415E+02 0.12444755E+03 0.80419002E+02 0.0000E+00 0.9000E+01
      -13  1    3    3    0    0 0.15226325E+03 -.41339890E+02 0.17591665E+03 0.23630439E+03 0.10565837E+00 0.0000E+00 0.9000E+01
       13  1    3    3    0    0 0.10716801E+03 -.45774748E+02 0.36323831E+02 0.12206450E+03 0.10565837E+00 0.0000E+00 0.9000E+01
      -24  1    1    2    0    0 -.21900118E+03 0.66988892E+02 0.12674430E+04 0.12904759E+04 0.80419002E+02 0.0000E+00 0.9000E+01
#aMCatNLO 1  0  0  1  1 0.23771887D+03 0.00000000D+00  -5  7  0 0.00000000D+00 0.00000000D+00 0.00000000D+00 0.00000000D+00 0.00000000D+00
  <mgrwgt>
 0.8966543547D-03    7    2    0
 0.418590393644133D+03 0.000000000000000D+00 0.000000000000000D+00 0.418590393644133D+03
 0.418590393644133D+03 0.000000000000000D+00 0.000000000000000D+00 -.418590393644133D+03
 0.107594769255801D+03 -.404301607986892D+02 0.201257617933176D+02 -.554055432864745D+02
 0.172051566825661D+03 0.152263358708385D+03 -.413398995112435D+02 -.686194138011016D+02
 0.190727671894032D+03 0.107168003130242D+03 -.457747707933863D+02 -.150985874471776D+03
 0.366806779312773D+03 -.219001201039938D+03 0.669889085113121D+02 0.275010831559352D+03
 0.000000000000000D+00 -.000000000000000D+00 0.000000000000000D+00 0.000000000000000D+00
 0.554911315986939D+03 0.000000000000000D+00 0.000000000000000D+00 0.554911315986939D+03
 0.553091454043931D+03 0.000000000000000D+00 0.000000000000000D+00 -.553091454043931D+03
 0.104411307825200D+03 -.358219944838453D+02 -.902860630043097D+01 -.554055432864745D+02
 0.197197880590557D+03 0.160289368569923D+03 -.921178510520975D+02 -.686194138011016D+02
 0.215857016481397D+03 0.116005532180823D+03 -.101686940054696D+03 -.150985874471776D+03
 0.352810724577245D+03 -.203359587428405D+03 -.319704887096376D+02 0.275010831559352D+03
 0.237725840556470D+03 -.371133188384954D+02 0.234803886116863D+03 0.181986194300759D+01
0.203780589031D-04 0.000000000000D+00 0.000000000000D+00 0.227508675712D-08 0.000000000000D+00  7 2 -2 24 -13 13 -24 21 0 0.25665570D+00 0.16158494D-01 0.92802322D+05 0.92802322D+05 0.92802322D+05 0.11243940D+01  1  2  2  1  7  1        2 0.781395869495D-03 0.100000000000D+01
-.993111673841D-06 0.000000000000D+00 -.782571118540D-07 0.227508675712D-08 0.000000000000D+00  7 2 -2 24 -13 13 -24 21 2 0.25665570D+00 0.16158494D-01 0.92802322D+05 0.92802322D+05 0.92802322D+05 0.11243940D+01  1  2  3  1  7  1        2 -.481441369193D-04 0.100000000000D+01
0.129167984063D-05 0.000000000000D+00 0.000000000000D+00 0.227508675712D-08 0.000000000000D+00  7 2 -2 24 -13 13 -24 21 2 0.25665570D+00 0.16158494D-01 0.92802322D+05 0.92802322D+05 0.92802322D+05 0.11243940D+01  1  2 15  1  7  1        2 0.626181453118D-04 0.100000000000D+01
-.639613899405D-05 0.000000000000D+00 0.000000000000D+00 0.227508675712D-08 0.000000000000D+00  7 2 -2 24 -13 13 -24 21 2 0.25665570D+00 0.16158494D-01 0.92802322D+05 0.92802322D+05 0.92802322D+05 0.11243940D+01  1  2  4  1  7  1        2 -.310072471803D-03 0.100000000000D+01
-.914571999236D-05 0.000000000000D+00 -.690094863238D-05 0.227508675712D-08 0.000000000000D+00  7 2 -2 24 -13 13 -24 21 2 0.38988774D+00 0.16158494D-01 0.92802322D+05 0.92802322D+05 0.92802322D+05 0.11243940D+01  1  2  5  1  7  1        2 -.149514679094D-03 0.100000000000D+01
0.115674127886D-04 0.000000000000D+00 0.633873729227D-05 0.227508675712D-08 0.000000000000D+00  7 2 -2 24 -13 13 -24 21 2 0.25665570D+00 0.16158494D-01 0.92802322D+05 0.92802322D+05 0.92802322D+05 0.11243940D+01  1  2  6  1  7  1        2 0.560765843121D-03 0.100000000000D+01
-.199877984463D-06 0.000000000000D+00 -.339396981908D-06 0.227508675712D-08 0.000000000000D+00  7 21 -2 24 -13 13 -24 -2 2 0.38988774D+00 0.16158494D-01 0.92802322D+05 0.92802322D+05 0.92802322D+05 0.11243940D+01  1  2  5  3  7  1        2 -.394215407129D-06 0.100000000000D+01
  </mgrwgt>
  </event>
  <event>
  9     66 0.26993063E-05 0.24129719E+03 0.75467711E-02 0.10111306E+00
        2 -1    0    0  501    0 0.00000000E+00 0.00000000E+00 0.34185709E+03 0.34185724E+03 0.32000000E+00 0.0000E+00 0.9000E+01
       -2 -1    0    0    0  502 0.00000000E+00 0.00000000E+00 -.35386143E+03 0.35386158E+03 0.32000000E+00 0.0000E+00 0.9000E+01
       25  2    1    2    0    0 -.57181451E+02 0.97156615E+02 0.14083372E+03 0.35039273E+03 0.30038609E+03 0.0000E+00 0.0000E+00
       23  2    1    2    0    0 -.16895430E+02 -.15264462E+03 -.17527940E+03 0.25008702E+03 0.90745880E+02 0.0000E+00 0.0000E+00
       24  1    3    3    0    0 0.97905744E+02 0.14601004E+02 0.59934308E+02 0.14091863E+03 0.80419002E+02 0.0000E+00 0.9000E+01
      -13  1    4    4    0    0 0.20957828E+02 -.12211898E+03 -.15220617E+03 0.19626259E+03 0.10565837E+00 0.0000E+00 0.9000E+01
       13  1    4    4    0    0 -.37853258E+02 -.30525646E+02 -.23073221E+02 0.53824426E+02 0.10565837E+00 0.0000E+00 0.9000E+01
      -24  1    3    3    0    0 -.15508720E+03 0.82555611E+02 0.80899414E+02 0.20947410E+03 0.80419002E+02 0.0000E+00 0.9000E+01
       21  1    1    2  501  502 0.74076881E+02 0.55488008E+02 0.22441330E+02 0.95239063E+02 0.75000000E+00 0.0000E+00 0.9000E+01
#aMCatNLO 2  0  0  2  1 0.92554326D+02 0.00000000D+00  -5  7  0 0.00000000D+00 0.00000000D+00 0.00000000D+00 0.00000000D+00 0.00000000D+00
  <mgrwgt>
 0.2088614306D-03    1    2    0
 0.296151618893066D+03 0.000000000000000D+00 0.000000000000000D+00 0.296151618893066D+03
 0.296151618893066D+03 0.000000000000000D+00 0.000000000000000D+00 -.296151618893066D+03
 0.159961976708896D+03 0.116835702254307D+03 0.287806727999450D+02 0.681300931319789D+02
 0.181301271610590D+03 0.439022266339163D+02 -.104932435531011D+03 -.141180485753986D+03
 0.456315888509627D+02 -.317484681023096D+02 -.259526103620909D+02 -.200184587222251D+02
 0.205408400615683D+03 -.128989460785914D+03 0.102104373093157D+03 0.930688513442318D+02
 0.000000000000000D+00 0.000000000000000D+00 0.000000000000000D+00 0.000000000000000D+00
 0.362062053961974D+03 0.000000000000000D+00 0.000000000000000D+00 0.362062053961974D+03
 0.334111562512441D+03 0.000000000000000D+00 0.000000000000000D+00 -.334111562512441D+03
 0.144594777318737D+03 0.979057443368992D+02 0.146010037035176D+02 0.681300931319789D+02
 0.187840992153671D+03 0.209579069753207D+02 -.122119101334550D+03 -.141180485753986D+03
 0.525872725612581D+02 -.378533365336969D+02 -.305255214383850D+02 -.200184587222251D+02
 0.214467932661585D+03 -.155087195327481D+03 0.825556112004798D+02 0.930688513442318D+02
 0.966826417791644D+02 0.740768805489578D+02 0.554880078689373D+02 0.279504914495329D+02
0.441028713450D-05 0.000000000000D+00 0.000000000000D+00 0.113928257312D-05 0.923712698363D-09  7 2 -2 24 -13 13 -24 21 2 0.52593199D-01 0.54440013D-01 0.85804061D+05 0.85804061D+05 0.85804061D+05 0.11272197D+01  1  2  1  2  7  2       -2 0.208861430568D-03 0.100000000000D+01
  </mgrwgt>
  </event>
  <event>
  8     66 0.26993063E-05 0.18924234E+03 0.75467711E-02 0.97708849E-01
        2 -1    0    0  501    0 0.00000000E+00 0.00000000E+00 0.18821517E+04 0.18821517E+04 0.32000000E+00 0.0000E+00 0.9000E+01
       -2 -1    0    0    0  501 0.00000000E+00 0.00000000E+00 -.84719479E+02 0.84720083E+02 0.32000000E+00 0.0000E+00 0.9000E+01
       25  2    1    2    0    0 -.25562388E+03 -.21396282E+03 0.11206053E+04 0.12068965E+04 0.29953143E+03 0.0000E+00 0.0000E+00
       23  2    1    2    0    0 0.25562388E+03 0.21396282E+03 0.67682690E+03 0.75997537E+03 0.91346872E+02 0.0000E+00 0.0000E+00
       24  1    3    3    0    0 -.69732588E+02 -.36754473E+02 0.68987022E+03 0.69900048E+03 0.80419002E+02 0.0000E+00 0.9000E+01
      -11  1    4    4    0    0 0.25263615E+03 0.22242196E+03 0.66163144E+03 0.74232925E+03 0.51099893E-03 0.0000E+00 0.9000E+01
       11  1    4    4    0    0 0.29877343E+01 -.84591373E+01 0.15195457E+02 0.17646118E+02 0.51099893E-03 0.0000E+00 0.9000E+01
      -24  1    3    3    0    0 -.18589129E+03 -.17720835E+03 0.43073511E+03 0.50789598E+03 0.80419002E+02 0.0000E+00 0.9000E+01
#aMCatNLO 1  0  0  2  1 0.42751236D+02 0.00000000D+00  -5  7  0 0.00000000D+00 0.00000000D+00 0.00000000D+00 0.00000000D+00 0.00000000D+00
  <mgrwgt>
 0.1199481988D-02    9    2    0
 0.399318836460308D+03 0.000000000000000D+00 0.000000000000000D+00 0.399318836460308D+03
 0.399318836460308D+03 0.000000000000000D+00 0.000000000000000D+00 -.399318836460308D+03
 0.168849240729685D+03 -.697325879866195D+02 -.367544727631353D+02 0.125814645591096D+03
 0.339113486451521D+03 0.252636147782190D+03 0.222421959635284D+03 -.412480957024897D+02
 0.925932741933328D+01 0.298773434222969D+01 -.845913734688153D+01 -.229163328333159D+01
 0.281415618320076D+03 -.185891294137800D+03 -.177208349525267D+03 -.822749166052742D+02
 0.000000000000000D+00 -.000000000000000D+00 -.000000000000000D+00 -.000000000000000D+00
 0.414421548835748D+03 0.000000000000000D+00 0.000000000000000D+00 0.414421548835748D+03
 0.431334840431304D+03 0.000000000000000D+00 0.000000000000000D+00 -.431334840431304D+03
 0.164936382926173D+03 -.626842577889871D+02 -.312754414617824D+02 0.125814645591096D+03
 0.357583400010462D+03 0.267347835031217D+03 0.233858114394351D+03 -.412480957024897D+02
 0.912094524225619D+01 0.337585840048742D+01 -.815742845919115D+01 -.229163328333159D+01
 0.268140367376235D+03 -.174286683948637D+03 -.168187486330211D+03 -.822749166052742D+02
 0.459752937119262D+02 -.337527516940805D+02 -.262377581431669D+02 -.169132915955561D+02
0.252217515825D-04 0.000000000000D+00 0.000000000000D+00 0.207458027212D-05 0.000000000000D+00  7 2 -2 24 -11 11 -24 21 0 0.28956185D+00 0.13033815D-01 0.13223973D+06 0.13223973D+06 0.13223973D+06 0.11118969D+01  1  2  2  2  7  2       -2 0.103821001188D-02 0.100000000000D+01
-.138629085912D-05 0.000000000000D+00 -.968581671166D-07 0.207458027212D-05 0.000000000000D+00  7 2 -2 24 -11 11 -24 21 2 0.28956185D+00 0.13033815D-01 0.13223973D+06 0.13223973D+06 0.13223973D+06 0.11118969D+01  1  2  3  2  7  2       -2 -.705494051025D-04 0.100000000000D+01
0.161944403471D-05 0.000000000000D+00 0.000000000000D+00 0.207458027212D-05 0.000000000000D+00  7 2 -2 24 -11 11 -24 21 2 0.28956185D+00 0.13033815D-01 0.13223973D+06 0.13223973D+06 0.13223973D+06 0.11118969D+01  1  2 15  2  7  2       -2 0.824147490361D-04 0.100000000000D+01
0.516901997868D-04 0.000000000000D+00 0.000000000000D+00 0.207458027212D-05 0.000000000000D+00  7 2 -2 24 -11 11 -24 21 2 0.28956185D+00 0.14310348D-01 0.14769962D+06 0.14769962D+06 0.14769962D+06 0.11080820D+01  1  2 12  2  7  2       -2 0.224509883711D-02 0.100000000000D+01
-.489330117727D-04 0.000000000000D+00 0.000000000000D+00 0.207458027212D-05 0.000000000000D+00  7 2 -2 24 -11 11 -24 21 2 0.28956185D+00 0.13033815D-01 0.13223973D+06 0.13223973D+06 0.13223973D+06 0.11118969D+01  1  2  4  2  7  2       -2 -.249023850062D-02 0.100000000000D+01
-.141922874110D-03 0.000000000000D+00 -.288201107781D-04 0.207458027212D-05 0.000000000000D+00  7 2 -2 24 -11 11 -24 21 2 0.28956185D+00 0.14666971D-01 0.13223973D+06 0.13223973D+06 0.13223973D+06 0.11118969D+01  1  2  5  2  7  2       -2 -.598508246343D-02 0.100000000000D+01
0.144516612247D-03 0.000000000000D+00 0.286204511623D-04 0.207458027212D-05 0.000000000000D+00  7 2 -2 24 -11 11 -24 21 2 0.28956185D+00 0.13033815D-01 0.13223973D+06 0.13223973D+06 0.13223973D+06 0.11118969D+01  1  2  6  2  7  2       -2 0.735456124117D-02 0.100000000000D+01
0.791527400723D-06 0.000000000000D+00 0.000000000000D+00 0.207458027212D-05 0.000000000000D+00  7 2 21 24 -11 11 -24 2 2 0.28956185D+00 0.14310348D-01 0.14769962D+06 0.14769962D+06 0.14769962D+06 0.11080820D+01  1  2 12  4  7  2       -2 0.465911856308D-03 0.100000000000D+01
-.252660820361D-05 0.000000000000D+00 -.539339117745D-06 0.207458027212D-05 0.000000000000D+00  7 2 21 24 -11 11 -24 2 2 0.28956185D+00 0.14666971D-01 0.13223973D+06 0.13223973D+06 0.13223973D+06 0.11118969D+01  1  2  5  4  7  2       -2 -.144084433797D-02 0.100000000000D+01
  </mgrwgt>
  </event>
  <event>
  8     66 0.26993063E-05 0.34372924E+03 0.75467711E-02 0.96871723E-01
        2 -1    0    0  501    0 0.00000000E+00 0.00000000E+00 0.72762302E+02 0.72763005E+02 0.32000000E+00 0.0000E+00 0.9000E+01
       -2 -1    0    0    0  501 0.00000000E+00 0.00000000E+00 -.18971931E+04 0.18971931E+04 0.32000000E+00 0.0000E+00 0.9000E+01
       25  2    1    2    0    0 0.25614688E+03 0.16060127E+03 -.11213414E+04 0.11988130E+04 0.29722400E+03 0.0000E+00 0.0000E+00
       23  2    1    2    0    0 -.25614688E+03 -.16060127E+03 -.70308937E+03 0.77114309E+03 0.94461749E+02 0.0000E+00 0.0000E+00
       24  1    3    3    0    0 0.92347559E+02 0.14410579E+03 -.85416855E+03 0.87485180E+03 0.80419002E+02 0.0000E+00 0.9000E+01
      -11  1    4    4    0    0 -.25279364E+03 -.17034168E+03 -.69106746E+03 0.75531129E+03 0.51099893E-03 0.0000E+00 0.9000E+01
       11  1    4    4    0    0 -.33532359E+01 0.97404073E+01 -.12021908E+02 0.15831804E+02 0.51099893E-03 0.0000E+00 0.9000E+01
      -24  1    3    3    0    0 0.16379932E+03 0.16495481E+02 -.26717289E+03 0.32396124E+03 0.80419002E+02 0.0000E+00 0.9000E+01
#aMCatNLO 1  0  0  2  2 0.12063077D+03 0.00000000D+00  -5  7  0 0.00000000D+00 0.00000000D+00 0.00000000D+00 0.00000000D+00 0.00000000D+00
  <mgrwgt>
 0.1277158277D-02    3    2    0
 0.371543881904766D+03 0.000000000000000D+00 0.000000000000000D+00 0.371543881904766D+03
 0.371543881904766D+03 0.000000000000000D+00 0.000000000000000D+00 -.371543881904766D+03
 0.222111402078886D+03 0.923475587761210D+02 0.144105789861008D+03 -.116497676782431D+03
 0.305650776771951D+03 -.252793641603787D+03 -.170341677836976D+03 0.223938584812291D+02
 0.124545433345762D+02 -.335323589321395D+01 0.974040730169333D+01 0.699970887354738D+01
 0.202871041624119D+03 0.163799318720880D+03 0.164954806742750D+02 0.871041094276544D+02
 0.000000000000000D+00 -.000000000000000D+00 -.000000000000000D+00 0.000000000000000D+00
 0.825746167585767D+03 0.000000000000000D+00 0.000000000000000D+00 0.825746167585767D+03
 0.384503986659673D+03 0.000000000000000D+00 0.000000000000000D+00 -.384503986659673D+03
 0.252686182776902D+03 0.109951083738938D+03 0.178107106823172D+03 -.116497676782431D+03
 0.266227485461535D+03 -.231590767819209D+03 -.129388196441577D+03 0.223938584812291D+02
 0.137715060787249D+02 -.238088276790613D+01 0.116185133561668D+02 0.699970887354738D+01
 0.220130345661943D+03 0.179482455530976D+03 0.467875560834557D+02 0.871041094276544D+02
 0.457434634266334D+03 -.554618886827995D+02 -.107124979821218D+03 0.441242180926094D+03
0.536219515362D-03 0.000000000000D+00 0.000000000000D+00 0.126636245415D-07 0.000000000000D+00  7 2 -2 24 -11 11 -24 21 0 0.11194256D-01 0.29187592D+00 0.11814979D+06 0.11814979D+06 0.11814979D+06 0.11158261D+01  1  2  2  2  7  2       -2 0.126273745858D-02 0.100000000000D+01
-.295706659097D-04 0.000000000000D+00 -.205922412883D-05 0.126636245415D-07 0.000000000000D+00  7 2 -2 24 -11 11 -24 21 2 0.11194256D-01 0.29187592D+00 0.11814979D+06 0.11814979D+06 0.11814979D+06 0.11158261D+01  1  2  3  2  7  2       -2 -.867010963149D-04 0.100000000000D+01
0.344890950721D-04 0.000000000000D+00 0.000000000000D+00 0.126636245415D-07 0.000000000000D+00  7 2 -2 24 -11 11 -24 21 2 0.11194256D-01 0.29187592D+00 0.11814979D+06 0.11814979D+06 0.11814979D+06 0.11158261D+01  1  2 15  2  7  2       -2 0.101121914630D-03 0.100000000000D+01
  </mgrwgt>
  </event>
  <event>
  8     66 0.26993063E-05 0.71794073E+03 0.75467711E-02 0.84347809E-01
        2 -1    0    0  501    0 0.00000000E+00 0.00000000E+00 0.75894839E+03 0.75894845E+03 0.32000000E+00 0.0000E+00 0.9000E+01
       -2 -1    0    0    0  501 0.00000000E+00 0.00000000E+00 -.13165220E+04 0.13165220E+04 0.32000000E+00 0.0000E+00 0.9000E+01
       25  2    1    2    0    0 -.16094856E+03 0.67350575E+03 0.42784481E+03 0.86746725E+03 0.29988969E+03 0.0000E+00 0.0000E+00
       23  2    1    2    0    0 0.16094856E+03 -.67350575E+03 -.98541838E+03 0.12080032E+04 0.93316153E+02 0.0000E+00 0.0000E+00
       24  1    3    3    0    0 -.78997473E+02 0.58953753E+03 0.40327939E+03 0.72311588E+03 0.80419002E+02 0.0000E+00 0.9000E+01
      -11  1    4    4    0    0 0.74122286E+01 -.10416580E+02 -.35009133E+01 0.13255288E+02 0.51099893E-03 0.0000E+00 0.9000E+01
       11  1    4    4    0    0 0.15353633E+03 -.66308916E+03 -.98191746E+03 0.11947479E+04 0.51099893E-03 0.0000E+00 0.9000E+01
      -24  1    3    3    0    0 -.81951089E+02 0.83968219E+02 0.24565423E+02 0.14435137E+03 0.80419002E+02 0.0000E+00 0.9000E+01
#aMCatNLO 1  0  0  2  1 0.10768873D+04 0.00000000D+00  -5  7  0 0.00000000D+00 0.00000000D+00 0.00000000D+00 0.00000000D+00 0.00000000D+00
  <mgrwgt>
 0.8911046383D-03    5    2    0
 0.999586075195230D+03 0.000000000000000D+00 0.000000000000000D+00 0.999586075195230D+03
 0.999586075195230D+03 0.000000000000000D+00 0.000000000000000D+00 -.999586075195230D+03
 0.863189078212505D+03 -.789974731915512D+02 0.589537526410022D+03 0.620349154085574D+03
 0.127847632538460D+02 0.741222863022518D+01 -.104165802416251D+02 0.624040058601096D-01
 0.966486423152594D+03 0.153536333789720D+03 -.663089164788928D+03 -.686174438378631D+03
 0.156711885771515D+03 -.819510892283935D+02 0.839682186205312D+02 0.657628802871972D+02
 0.000000000000000D+00 -.000000000000000D+00 -.000000000000000D+00 -.000000000000000D+00
 0.126497418493847D+04 0.000000000000000D+00 0.000000000000000D+00 0.126497418493847D+04
 0.337257856674357D+04 0.000000000000000D+00 0.000000000000000D+00 -.337257856674357D+04
 0.126927424104958D+04 0.873921775237637D+02 0.110096295004445D+04 0.620349154085574D+03
 0.104211166339310D+02 0.922291311618620D+01 -.485114948123911D+01 0.624040058601096D-01
 0.783714138390278D+03 0.290099179905937D+03 -.243341234990063D+03 -.686174438378631D+03
 0.207355895617705D+03 -.535439834953795D+02 0.171282039049132D+03 0.657628802871972D+02
 0.236678735999056D+04 -.333170287050508D+03 -.102405260462228D+04 -.210760438180510D+04
0.162293283958D-02 0.000000000000D+00 0.000000000000D+00 0.898348110856D-05 0.000000000000D+00  7 2 -2 24 -11 11 -24 21 0 0.11676130D+00 0.20254185D+00 0.51543890D+06 0.51543890D+06 0.51543890D+06 0.10675782D+01  1  2  2  2  7  2       -2 0.876183766053D-03 0.100000000000D+01
-.781556328028D-04 0.000000000000D+00 -.623248943201D-05 0.898348110856D-05 0.000000000000D+00  7 2 -2 24 -11 11 -24 21 2 0.11676130D+00 0.20254185D+00 0.51543890D+06 0.51543890D+06 0.51543890D+06 0.10675782D+01  1  2  3  2  7  2       -2 -.480899537305D-04 0.100000000000D+01
0.102879334194D-03 0.000000000000D+00 0.000000000000D+00 0.898348110856D-05 0.000000000000D+00  7 2 -2 24 -11 11 -24 21 2 0.11676130D+00 0.20254185D+00 0.51543890D+06 0.51543890D+06 0.51543890D+06 0.10675782D+01  1  2 15  2  7  2       -2 0.633026980116D-04 0.100000000000D+01
-.591628838828D-03 0.000000000000D+00 -.437138733962D-03 0.898348110856D-05 0.000000000000D+00  7 2 -2 24 -11 11 -24 21 2 0.11676130D+00 0.70188128D+00 0.51543890D+06 0.51543890D+06 0.51543890D+06 0.10675782D+01  1  2  5  2  7  2       -2 -.240664060081D-06 0.100000000000D+01
-.713230893842D-04 0.000000000000D+00 -.634540073706D-04 0.898348110856D-05 0.000000000000D+00  7 2 21 24 -11 11 -24 2 2 0.11676130D+00 0.70188128D+00 0.51543890D+06 0.51543890D+06 0.51543890D+06 0.10675782D+01  1  2  5  4  7  2       -2 -.512079909723D-07 0.100000000000D+01
  </mgrwgt>
  </event>
  <event>
  8     66 0.26993063E-05 0.23395796E+03 0.75467711E-02 0.92882010E-01
        2 -1    0    0  501    0 0.00000000E+00 0.00000000E+00 0.36272960E+03 0.36272974E+03 0.32000000E+00 0.0000E+00 0.9000E+01
       -2 -1    0    0    0  501 0.00000000E+00 0.00000000E+00 -.33642067E+03 0.33642082E+03 0.32000000E+00 0.0000E+00 0.9000E+01
       25  2    1    2    0    0 0.13409475E+03 -.35373959E+02 0.25432118E+03 0.41735529E+03 0.30045541E+03 0.0000E+00 0.0000E+00
       23  2    1    2    0    0 -.13409475E+03 0.35373959E+02 -.22801225E+03 0.28179527E+03 0.90477997E+02 0.0000E+00 0.0000E+00
       24  1    3    3    0    0 0.15293866E+03 -.11534579E+03 0.20623026E+03 0.29273370E+03 0.80419002E+02 0.0000E+00 0.9000E+01
      -13  1    4    4    0    0 -.96355133E+02 0.45465898E+01 -.20768873E+03 0.22899695E+03 0.10565837E+00 0.0000E+00 0.9000E+01
       13  1    4    4    0    0 -.37739621E+02 0.30827370E+02 -.20323514E+02 0.52798315E+02 0.10565837E+00 0.0000E+00 0.9000E+01
      -24  1    3    3    0    0 -.18843906E+02 0.79971833E+02 0.48090919E+02 0.12462158E+03 0.80419002E+02 0.0000E+00 0.9000E+01
#aMCatNLO 1  0  0  2  1 0.48241354D+03 0.00000000D+00  -5  7  0 0.00000000D+00 0.00000000D+00 0.00000000D+00 0.00000000D+00 0.00000000D+00
  <mgrwgt>
 0.7177990947D-03    5    2    0
 0.349327689778367D+03 0.000000000000000D+00 0.000000000000000D+00 0.349327689778367D+03
 0.349327689778367D+03 0.000000000000000D+00 0.000000000000000D+00 -.349327689778367D+03
 0.285175266324400D+03 0.152938660449409D+03 -.115345792724781D+03 0.195353092653928D+03
 0.236980340148503D+03 -.963552136102966D+02 0.454655420401366D+01 -.216459426387220D+03
 0.536007989870946D+02 -.377395409303651D+02 0.308274053172077D+02 -.223258546046687D+02
 0.122898974096737D+03 -.188439059087470D+02 0.799718332035598D+02 0.434321883379607D+02
 0.000000000000000D+00 0.000000000000000D+00 0.000000000000000D+00 -.000000000000000D+00
 0.529373305964307D+03 0.000000000000000D+00 0.000000000000000D+00 0.529373305964307D+03
 0.979347591546429D+03 0.000000000000000D+00 0.000000000000000D+00 -.979347591546429D+03
 0.292201038446896D+03 -.489885049246300D+01 -.201810310364640D+03 0.195353092653928D+03
 0.344826914161614D+03 -.255404014382626D+03 -.825815166703551D+02 -.216459426387220D+03
 0.777646202357587D+02 -.736509398267638D+02 0.111548840969943D+02 -.223258546046687D+02
 0.134231667660027D+03 -.891357764728667D+02 0.414654436510264D+02 0.434321883379607D+02
 0.659696657006440D+03 0.423089581174719D+03 0.231771499286974D+03 -.449974285582122D+03
0.174695519124D-04 0.000000000000D+00 0.000000000000D+00 0.175498492285D-05 0.000000000000D+00  7 2 -2 24 -13 13 -24 21 0 0.55804576D-01 0.51757048D-01 0.54736327D+05 0.54736327D+05 0.54736327D+05 0.11438540D+01  1  2  2  2  7  2       -2 0.677683973323D-03 0.100000000000D+01
-.780905627108D-06 0.000000000000D+00 -.670876791821D-07 0.175498492285D-05 0.000000000000D+00  7 2 -2 24 -13 13 -24 21 2 0.55804576D-01 0.51757048D-01 0.54736327D+05 0.54736327D+05 0.54736327D+05 0.11438540D+01  1  2  3  2  7  2       -2 -.396355810505D-04 0.100000000000D+01
0.109365829881D-05 0.000000000000D+00 0.000000000000D+00 0.175498492285D-05 0.000000000000D+00  7 2 -2 24 -13 13 -24 21 2 0.55804576D-01 0.51757048D-01 0.54736327D+05 0.54736327D+05 0.54736327D+05 0.11438540D+01  1  2 15  2  7  2       -2 0.555096296396D-04 0.100000000000D+01
0.430914988030D-05 0.000000000000D+00 -.577778102922D-05 0.175498492285D-05 0.000000000000D+00  7 2 -2 24 -13 13 -24 21 2 0.55804576D-01 0.19207719D+00 0.54736327D+05 0.54736327D+05 0.54736327D+05 0.11438540D+01  1  2  5  2  7  2       -2 0.935485233169D-05 0.100000000000D+01
0.803095784248D-06 0.000000000000D+00 -.894707910305D-06 0.175498492285D-05 0.000000000000D+00  7 2 21 24 -13 13 -24 2 2 0.55804576D-01 0.19207719D+00 0.54736327D+05 0.54736327D+05 0.54736327D+05 0.11438540D+01  1  2  5  4  7  2       -2 0.148862204776D-04 0.100000000000D+01
  </mgrwgt>
  </event>
  <event>
  9     66 0.26993063E-05 0.17610384E+03 0.75467711E-02 0.10579559E+00
        2 -1    0    0  501    0 0.00000000E+00 0.00000000E+00 0.75759600E+03 0.75759607E+03 0.32000000E+00 0.0000E+00 0.9000E+01
       -2 -1    0    0    0  502 0.00000000E+00 0.00000000E+00 -.88131424E+02 0.88132005E+02 0.32000000E+00 0.0000E+00 0.9000E+01
       25  2    1    2    0    0 -.15286975E+02 -.41954058E+00 0.23114519E+03 0.37913131E+03 0.30013094E+03 0.0000E+00 0.0000E+00
       23  2    1    2    0    0 0.24458150E+02 -.50694803E+02 0.31295729E+03 0.33090224E+03 0.91574359E+02 0.0000E+00 0.0000E+00
       24  1    3    3    0    0 0.82327986E+01 0.12427010E+03 0.92745530E+02 0.17487077E+03 0.80419002E+02 0.0000E+00 0.9000E+01
      -11  1    4    4    0    0 0.83673416E+00 -.37822915E+02 0.29746116E+03 0.29985733E+03 0.51099893E-03 0.0000E+00 0.9000E+01
       11  1    4    4    0    0 0.23621416E+02 -.12871888E+02 0.15496129E+02 0.31044916E+02 0.51099893E-03 0.0000E+00 0.9000E+01
      -24  1    3    3    0    0 -.23519773E+02 -.12468964E+03 0.13839966E+03 0.20426054E+03 0.80419002E+02 0.0000E+00 0.9000E+01
       21  1    1    2  501  502 -.91711749E+01 0.51114343E+02 0.12536210E+03 0.13569453E+03 0.75000000E+00 0.0000E+00 0.9000E+01
#aMCatNLO 2  0  0  2  2 0.51930593D+02 0.00000000D+00  -5  7  0 0.00000000D+00 0.00000000D+00 0.00000000D+00 0.00000000D+00 0.00000000D+00
  <mgrwgt>
 0.1483673178D-03    1    2    0
 0.226607228388692D+03 0.000000000000000D+00 0.000000000000000D+00 0.226607228388692D+03
 0.226607228388692D+03 0.000000000000000D+00 0.000000000000000D+00 -.226607228388692D+03
 0.176467272630879D+03 0.482380515024528D+01 0.143269677166462D+03 -.642184775894036D+02
 0.108377914965671D+03 -.138503679473972D+01 -.254401653898015D+02 0.105340647949037D+03
 0.281034173505770D+02 0.230370817774009D+02 -.961517934018785D+01 -.129090377727421D+02
 0.140265851830257D+03 -.264758501329065D+02 -.108214332436473D+03 -.282131325868910D+02
 0.000000000000000D+00 -.000000000000000D+00 0.000000000000000D+00 0.000000000000000D+00
 0.275565872793380D+03 0.000000000000000D+00 0.000000000000000D+00 0.275565872793380D+03
 0.242290782323003D+03 0.000000000000000D+00 0.000000000000000D+00 -.242290782323003D+03
 0.161561335586019D+03 0.823279858055756D+01 0.124270098437231D+03 -.642184775894036D+02
 0.111928214227214D+03 0.836734170261488D+00 -.378229150872666D+02 0.105340647949037D+03
 0.298378957183180D+02 0.236214156201412D+02 -.128718875375636D+02 -.129090377727421D+02
 0.152852486469470D+03 -.235197734421234D+02 -.124689638993761D+03 -.282131325868910D+02
 0.616767231153621D+02 -.917117492883686D+01 0.511143431813608D+02 0.332750904703772D+02
0.651546770528D-06 0.000000000000D+00 0.000000000000D+00 0.724600786991D-06 0.193004978471D-08  7 2 -2 24 -11 11 -24 21 2 0.11655222D+00 0.13558607D-01 0.43085256D+05 0.43085256D+05 0.43085256D+05 0.11530250D+01  1  2  1  2  7  2       -2 0.148367317754D-03 0.100000000000D+01
  </mgrwgt>
  </event>
  <event>
  8     66 0.26993063E-05 0.14931156E+03 0.75467711E-02 0.10226772E+00
        2 -1    0    0  501    0 0.00000000E+00 0.00000000E+00 0.16815828E+04 0.16815828E+04 0.32000000E+00 0.0000E+00 0.9000E+01
       -2 -1    0    0    0  501 0.00000000E+00 0.00000000E+00 -.60513687E+02 0.60514533E+02 0.32000000E+00 0.0000E+00 0.9000E+01
       25  2    1    2    0    0 -.90873627E+02 -.13589268E+03 0.49713617E+03 0.60360314E+03 0.30077822E+03 0.0000E+00 0.0000E+00
       23  2    1    2    0    0 0.90873627E+02 0.13589268E+03 0.11239330E+04 0.11384942E+04 0.78860694E+02 0.0000E+00 0.0000E+00
       24  1    3    3    0    0 -.11965475E+03 -.18091358E+03 0.42205052E+03 0.48129081E+03 0.80419002E+02 0.0000E+00 0.9000E+01
      -11  1    4    4    0    0 0.81817532E+02 0.14257079E+03 0.10978473E+04 0.11100853E+04 0.51099893E-03 0.0000E+00 0.9000E+01
       11  1    4    4    0    0 0.90560945E+01 -.66781067E+01 0.26085631E+02 0.28408979E+02 0.51099893E-03 0.0000E+00 0.9000E+01
      -24  1    3    3    0    0 0.28781128E+02 0.45020899E+02 0.75085647E+02 0.12231233E+03 0.80419002E+02 0.0000E+00 0.9000E+01
#aMCatNLO 1  0  0  2  1 0.35706584D+02 0.00000000D+00  -5  7  0 0.00000000D+00 0.00000000D+00 0.00000000D+00 0.00000000D+00 0.00000000D+00
  <mgrwgt>
 0.6656744943D-02    9    2    0
 0.318997710303135D+03 0.000000000000000D+00 0.000000000000000D+00 0.318997710303135D+03
 0.318997710303135D+03 0.000000000000000D+00 0.000000000000000D+00 -.318997710303135D+03
 0.241823655772807D+03 -.119654754726403D+03 -.180913580772926D+03 -.704590696804672D+02
 0.241679190895678D+03 0.818175320037143D+02 0.142570788139947D+03 0.177167415564954D+03
 0.112925530780970D+02 0.905609451727951D+01 -.667810669994524D+01 -.954881154848060D+00
 0.143200020859688D+03 0.287811282054094D+02 0.450208993329242D+02 -.105753464729639D+03
 0.000000000000000D+00 -.000000000000000D+00 0.000000000000000D+00 -.000000000000000D+00
 0.325662910478309D+03 0.000000000000000D+00 0.000000000000000D+00 0.325662910478309D+03
 0.371190122406421D+03 0.000000000000000D+00 0.000000000000000D+00 -.371190122406421D+03
 0.250554783291003D+03 -.116547757182225D+03 -.194326074604483D+03 -.704590696804672D+02
 0.235317379130888D+03 0.848274671553666D+02 0.129577299705889D+03 0.177167415564954D+03
 0.117887164278451D+02 0.920174152775345D+01 -.730684541048172D+01 -.954881154848060D+00
 0.141332952778307D+03 0.305765830429766D+02 0.372701603666724D+02 -.105753464729639D+03
 0.578592012566878D+02 -.805803454387129D+01 0.347854599424030D+02 -.455272119281113D+02
0.746930317760D-04 0.000000000000D+00 0.000000000000D+00 0.652675855597D-08 0.000000000000D+00  7 2 -2 24 -11 11 -24 21 0 0.25870511D+00 0.93098654D-02 0.63381981D+05 0.63381981D+05 0.63381981D+05 0.11383446D+01  1  2  2  2  7  2       -2 0.672873215456D-02 0.100000000000D+01
-.386689967508D-05 0.000000000000D+00 -.286840909147D-06 0.652675855597D-08 0.000000000000D+00  7 2 -2 24 -11 11 -24 21 2 0.25870511D+00 0.93098654D-02 0.63381981D+05 0.63381981D+05 0.63381981D+05 0.11383446D+01  1  2  3  2  7  2       -2 -.451402111917D-03 0.100000000000D+01
0.475842277582D-05 0.000000000000D+00 0.000000000000D+00 0.652675855597D-08 0.000000000000D+00  7 2 -2 24 -11 11 -24 21 2 0.25870511D+00 0.93098654D-02 0.63381981D+05 0.63381981D+05 0.63381981D+05 0.11383446D+01  1  2 15  2  7  2       -2 0.555473963868D-03 0.100000000000D+01
0.265989063749D-03 0.000000000000D+00 0.000000000000D+00 0.652675855597D-08 0.000000000000D+00  7 2 -2 24 -11 11 -24 21 2 0.25870511D+00 0.10919865D-01 0.71967684D+05 0.71967684D+05 0.71967684D+05 0.11336376D+01  1  2 12  2  7  2       -2 0.240512196520D-01 0.100000000000D+01
-.270501759167D-03 0.000000000000D+00 0.000000000000D+00 0.652675855597D-08 0.000000000000D+00  7 2 -2 24 -11 11 -24 21 2 0.25870511D+00 0.93098654D-02 0.63381981D+05 0.63381981D+05 0.63381981D+05 0.11383446D+01  1  2  4  2  7  2       -2 -.315769933603D-01 0.100000000000D+01
-.395536265870D-03 0.000000000000D+00 -.607480281979D-04 0.652675855597D-08 0.000000000000D+00  7 2 -2 24 -11 11 -24 21 2 0.25870511D+00 0.11060335D-01 0.63381981D+05 0.63381981D+05 0.63381981D+05 0.11383446D+01  1  2  5  2  7  2       -2 -.354289281276D-01 0.100000000000D+01
0.400927869388D-03 0.000000000000D+00 0.598574224616D-04 0.652675855597D-08 0.000000000000D+00  7 2 -2 24 -11 11 -24 21 2 0.25870511D+00 0.93098654D-02 0.63381981D+05 0.63381981D+05 0.63381981D+05 0.11383446D+01  1  2  6  2  7  2       -2 0.468022711151D-01 0.100000000000D+01
0.637522828366D-05 0.000000000000D+00 0.000000000000D+00 0.652675855597D-08 0.000000000000D+00  7 2 21 24 -11 11 -24 2 2 0.25870511D+00 0.10919865D-01 0.71967684D+05 0.71967684D+05 0.71967684D+05 0.11336376D+01  1  2 12  4  7  2       -2 0.833152992492D-02 0.100000000000D+01
-.953958647574D-05 0.000000000000D+00 -.154799306985D-05 0.652675855597D-08 0.000000000000D+00  7 2 21 24 -11 11 -24 2 2 0.25870511D+00 0.11060335D-01 0.63381981D+05 0.63381981D+05 0.63381981D+05 0.11383446D+01  1  2  5  4  7  2       -2 -.123551582679D-01 0.100000000000D+01
  </mgrwgt>
  </event>
  <event>
  8     66 0.26993063E-05 0.11650977E+03 0.75467711E-02 0.10547213E+00
        2 -1    0    0  501    0 0.00000000E+00 0.00000000E+00 0.85885168E+03 0.85885174E+03 0.32000000E+00 0.0000E+00 0.9000E+01
       -2 -1    0    0    0  501 0.00000000E+00 0.00000000E+00 -.21590505E+03 0.21590528E+03 0.32000000E+00 0.0000E+00 0.9000E+01
       25  2    1    2    0    0 -.52267509E+02 -.75853699E+02 -.93156804E+02 0.32735694E+03 0.29999783E+03 0.0000E+00 0.0000E+00
       23  2    1    2    0    0 0.52267509E+02 0.75853699E+02 0.73610343E+03 0.74740008E+03 0.90955723E+02 0.0000E+00 0.0000E+00
       24  1    3    3    0    0 -.12668683E+03 -.51749367E+02 0.29156257E+02 0.16138418E+03 0.80419002E+02 0.0000E+00 0.9000E+01
      -13  1    4    4    0    0 0.76551180E+01 0.82454492E+02 0.52910035E+03 0.53554135E+03 0.10565837E+00 0.0000E+00 0.9000E+01
       13  1    4    4    0    0 0.44612391E+02 -.66007929E+01 0.20700308E+03 0.21185873E+03 0.10565837E+00 0.0000E+00 0.9000E+01
      -24  1    3    3    0    0 0.74419325E+02 -.24104332E+02 -.12231306E+03 0.16597276E+03 0.80419002E+02 0.0000E+00 0.9000E+01
#aMCatNLO 1  0  0  1  2 0.25076536D+02 0.00000000D+00  -5  7  0 0.00000000D+00 0.00000000D+00 0.00000000D+00 0.00000000D+00 0.00000000D+00
  <mgrwgt>
 0.1187393952D-02    9    2    0
 0.430616501910544D+03 0.000000000000000D+00 0.000000000000000D+00 0.430616501910544D+03
 0.430616501910544D+03 0.000000000000000D+00 0.000000000000000D+00 -.430616501910544D+03
 0.179629513830484D+03 -.126686834389130D+03 -.517493668414269D+02 -.840951562729867D+02
 0.273321768995922D+03 0.765506827348188D+01 0.824546120258531D+02 0.260475385194945D+03
 0.109847785041895D+03 0.446124411494889D+02 -.660091301018409D+01 0.100163336210041D+03
 0.298433935952786D+03 0.744193249661588D+02 -.241043321742421D+02 -.276543565131999D+03
 0.000000000000000D+00 -.000000000000000D+00 0.000000000000000D+00 0.000000000000000D+00
 0.444853107137138D+03 0.000000000000000D+00 0.000000000000000D+00 0.444853107137138D+03
 0.441984926544215D+03 0.000000000000000D+00 0.000000000000000D+00 -.441984926544215D+03
 0.178678170850611D+03 -.123536395458711D+03 -.559056032311671D+02 -.840951562729867D+02
 0.271658958087313D+03 0.124468396262479D+02 0.761330375063827D+02 0.260475385194945D+03
 0.110832189086932D+03 0.465527812855872D+02 -.916071894841703D+01 0.100163336210041D+03
 0.300428685418284D+03 0.796848556734309D+02 -.310509167042752D+02 -.276543565131999D+03
 0.252400302382119D+02 -.151480811265551D+02 0.199842013774766D+02 0.286818059292282D+01
0.144785643739D-04 0.000000000000D+00 0.000000000000D+00 0.430475588699D-05 0.000000000000D+00  7 2 -2 24 -13 13 -24 21 0 0.13213105D+00 0.33216184D-01 0.39765419D+05 0.39765419D+05 0.39765419D+05 0.11561484D+01  1  2  2  1  7  1        2 0.482135912822D-03 0.100000000000D+01
-.224753096830D-06 0.000000000000D+00 -.556014994893D-07 0.430475588699D-05 0.000000000000D+00  7 2 -2 24 -13 13 -24 21 2 0.13213105D+00 0.33216184D-01 0.39765419D+05 0.39765419D+05 0.39765419D+05 0.11561484D+01  1  2  3  1  7  1        2 -.100040720253D-04 0.100000000000D+01
0.886432900403D-06 0.000000000000D+00 0.000000000000D+00 0.430475588699D-05 0.000000000000D+00  7 2 -2 24 -13 13 -24 21 2 0.13213105D+00 0.33216184D-01 0.39765419D+05 0.39765419D+05 0.39765419D+05 0.11561484D+01  1  2 15  1  7  1        2 0.394563576934D-04 0.100000000000D+01
0.321709586360D-04 0.000000000000D+00 0.000000000000D+00 0.430475588699D-05 0.000000000000D+00  7 2 -2 24 -13 13 -24 21 2 0.13819204D+00 0.33216184D-01 0.45094597D+05 0.45094597D+05 0.45094597D+05 0.11512610D+01  1  2 12  1  7  1        2 0.133726339894D-02 0.100000000000D+01
-.266754345784D-04 0.000000000000D+00 0.000000000000D+00 0.430475588699D-05 0.000000000000D+00  7 2 -2 24 -13 13 -24 21 2 0.13213105D+00 0.33216184D-01 0.39765419D+05 0.39765419D+05 0.39765419D+05 0.11561484D+01  1  2  4  1  7  1        2 -.118736058632D-02 0.100000000000D+01
-.171494384192D-03 0.000000000000D+00 -.356473820472D-04 0.430475588699D-05 0.000000000000D+00  7 2 -2 24 -13 13 -24 21 2 0.13915450D+00 0.33216184D-01 0.39765419D+05 0.39765419D+05 0.39765419D+05 0.11561484D+01  1  2  5  1  7  1        2 -.714018506041D-02 0.100000000000D+01
0.173156060499D-03 0.000000000000D+00 0.355996275522D-04 0.430475588699D-05 0.000000000000D+00  7 2 -2 24 -13 13 -24 21 2 0.13213105D+00 0.33216184D-01 0.39765419D+05 0.39765419D+05 0.39765419D+05 0.11561484D+01  1  2  6  1  7  1        2 0.770741638395D-02 0.100000000000D+01
0.398518548092D-06 0.000000000000D+00 0.000000000000D+00 0.430475588699D-05 0.000000000000D+00  7 21 -2 24 -13 13 -24 -2 2 0.13819204D+00 0.33216184D-01 0.45094597D+05 0.45094597D+05 0.45094597D+05 0.11512610D+01  1  2 12  3  7  1        2 0.148785624779D-04 0.100000000000D+01
-.150973878238D-05 0.000000000000D+00 -.320798944852D-06 0.430475588699D-05 0.000000000000D+00  7 21 -2 24 -13 13 -24 -2 2 0.13915450D+00 0.33216184D-01 0.39765419D+05 0.39765419D+05 0.39765419D+05 0.11561484D+01  1  2  5  3  7  1        2 -.562069454900D-04 0.100000000000D+01
  </mgrwgt>
  </event>
  <event>
  8     66 0.26993063E-05 0.25552208E+03 0.75467711E-02 0.10284854E+00
        2 -1    0    0  501    0 0.00000000E+00 0.00000000E+00 0.87028608E+03 0.87028613E+03 0.32000000E+00 0.0000E+00 0.9000E+01
       -2 -1    0    0    0  501 0.00000000E+00 0.00000000E+00 -.10747779E+03 0.10747827E+03 0.32000000E+00 0.0000E+00 0.9000E+01
       25  2    1    2    0    0 0.17593022E+03 -.69528049E+02 0.28124581E+03 0.45206131E+03 0.29912310E+03 0.0000E+00 0.0000E+00
       23  2    1    2    0    0 -.17593022E+03 0.69528049E+02 0.48156247E+03 0.52570310E+03 0.93143649E+02 0.0000E+00 0.0000E+00
       24  1    3    3    0    0 -.13155443E+02 0.12955798E+02 -.13299523E+02 0.83576382E+02 0.80419002E+02 0.0000E+00 0.9000E+01
      -13  1    4    4    0    0 -.73952375E+01 -.16364736E+02 0.19980746E+02 0.26865136E+02 0.10565837E+00 0.0000E+00 0.9000E+01
       13  1    4    4    0    0 -.16853498E+03 0.85892785E+02 0.46158173E+03 0.49883796E+03 0.10565837E+00 0.0000E+00 0.9000E+01
      -24  1    3    3    0    0 0.18908566E+03 -.82483847E+02 0.29454533E+03 0.36848493E+03 0.80419002E+02 0.0000E+00 0.9000E+01
#aMCatNLO 1  0  0  2  1 0.24858847D+01 0.00000000D+00  -5  7  0 0.00000000D+00 0.00000000D+00 0.00000000D+00 0.00000000D+00 0.00000000D+00
  <mgrwgt>
 0.1010892356D-02    6    2    0
 0.305837684686605D+03 0.000000000000000D+00 0.000000000000000D+00 0.305837684686605D+03
 0.305837684686605D+03 0.000000000000000D+00 0.000000000000000D+00 -.305837684686605D+03
 0.150182601115098D+03 -.131554426254964D+02 0.129557975898482D+02 -.125485773542120D+03
 0.180261199810251D+02 -.739503052306281D+01 -.163648664432059D+02 -.156386426179307D+01
 0.221764364143648D+03 -.168535188824188D+03 0.858929159264249D+02 0.115748565112869D+03
 0.221702284133439D+03 0.189085661972747D+03 -.824838470730672D+02 0.113010726910446D+02
 0.000000000000000D+00 0.000000000000000D+00 -.000000000000000D+00 0.000000000000000D+00
 0.308350960134426D+03 0.000000000000000D+00 0.000000000000000D+00 0.308350960134426D+03
 0.306455526836396D+03 0.000000000000000D+00 0.000000000000000D+00 -.306455526836396D+03
 0.150257945320277D+03 -.135175985700094D+02 0.134472802059194D+02 -.125485773542120D+03
 0.179905551886334D+02 -.743844561190166D+01 -.163059477321844D+02 -.156386426179307D+01
 0.222453528335478D+03 -.169070656331251D+03 0.866196000391108D+02 0.115748565112869D+03
 0.220978391898769D+03 0.188552047451511D+03 -.817596776514566D+02 0.113010726910446D+02
 0.312606622766531D+01 0.147465306165077D+01 -.200125486138910D+01 0.189543329802980D+01
0.817119178848D-05 0.000000000000D+00 0.000000000000D+00 0.174221874619D-06 0.000000000000D+00  7 2 -2 24 -13 13 -24 21 0 0.13389021D+00 0.16535086D-01 0.65291534D+05 0.65291534D+05 0.65291534D+05 0.11372394D+01  1  2  2  2  7  2       -2 0.859236639996D-03 0.100000000000D+01
-.436122634507D-06 0.000000000000D+00 -.313795279920D-07 0.174221874619D-06 0.000000000000D+00  7 2 -2 24 -13 13 -24 21 2 0.13389021D+00 0.16535086D-01 0.65291534D+05 0.65291534D+05 0.65291534D+05 0.11372394D+01  1  2  3  2  7  2       -2 -.593116250727D-04 0.100000000000D+01
0.513491425451D-06 0.000000000000D+00 0.000000000000D+00 0.174221874619D-06 0.000000000000D+00  7 2 -2 24 -13 13 -24 21 2 0.13389021D+00 0.16535086D-01 0.65291534D+05 0.65291534D+05 0.65291534D+05 0.11372394D+01  1  2 15  2  7  2       -2 0.698335937983D-04 0.100000000000D+01
-.331609562626D-04 0.000000000000D+00 0.000000000000D+00 0.174221874619D-06 0.000000000000D+00  7 2 -2 24 -13 13 -24 21 2 0.13389021D+00 0.16535086D-01 0.65291534D+05 0.65291534D+05 0.65291534D+05 0.11372394D+01  1  2  4  2  7  2       -2 -.450980996921D-02 0.100000000000D+01
0.331595428298D-04 0.000000000000D+00 0.000000000000D+00 0.174221874619D-06 0.194337060575D-06  7 2 -2 24 -13 13 -24 21 2 0.13499047D+00 0.16568490D-01 0.65975531D+05 0.65975531D+05 0.65975531D+05 0.11368522D+01  1  2 11  2  7  2       -2 0.444436869003D-02 0.100000000000D+01
0.114768962543D-06 0.000000000000D+00 0.000000000000D+00 0.174221874619D-06 0.733776681384D-10  7 2 21 24 -13 13 -24 2 2 0.13499047D+00 0.16568490D-01 0.65975531D+05 0.65975531D+05 0.65975531D+05 0.11368522D+01  1  2 11  4  7  2       -2 0.206575026522D-03 0.100000000000D+01
  </mgrwgt>
  </event>
  <event>
  8     66 0.26993063E-05 0.29722185E+03 0.75467711E-02 0.89638456E-01
        2 -1    0    0  501    0 0.00000000E+00 0.00000000E+00 0.45825777E+03 0.45825788E+03 0.32000000E+00 0.0000E+00 0.9000E+01
       -2 -1    0    0    0  501 0.00000000E+00 0.00000000E+00 -.86591339E+03 0.86591345E+03 0.32000000E+00 0.0000E+00 0.9000E+01
       25  2    1    2    0    0 -.14608926E+03 -.18859615E+03 0.35371501E+03 0.52138570E+03 0.29969679E+03 0.0000E+00 0.0000E+00
       23  2    1    2    0    0 0.14608926E+03 0.18859615E+03 -.76137063E+03 0.80278562E+03 0.88707068E+02 0.0000E+00 0.0000E+00
       24  1    3    3    0    0 -.17947277E+03 -.13450338E+03 0.12128503E+03 0.26735540E+03 0.80419002E+02 0.0000E+00 0.9000E+01
      -13  1    4    4    0    0 0.12519480E+02 0.81542423E+02 -.27909780E+03 0.29103521E+03 0.10565837E+00 0.0000E+00 0.9000E+01
       13  1    4    4    0    0 0.13356978E+03 0.10705372E+03 -.48227283E+03 0.51175041E+03 0.10565837E+00 0.0000E+00 0.9000E+01
      -24  1    3    3    0    0 0.33383506E+02 -.54092771E+02 0.23242998E+03 0.25403031E+03 0.80419002E+02 0.0000E+00 0.9000E+01
#aMCatNLO 1  0  0  2  1 0.67235764D+03 0.00000000D+00  -5  7  0 0.00000000D+00 0.00000000D+00 0.00000000D+00 0.00000000D+00 0.00000000D+00
  <mgrwgt>
 0.8894984518D-03    5    2    0
 0.629929876918023D+03 0.000000000000000D+00 0.000000000000000D+00 0.629929876918023D+03
 0.629929876918023D+03 0.000000000000000D+00 0.000000000000000D+00 -.629929876918023D+03
 0.320247453166398D+03 -.179472770248082D+03 -.134503375713643D+03 0.213985004068761D+03
 0.215583045705341D+03 0.125193084252911D+02 0.815423865619408D+02 -.199173682262308D+03
 0.381823679663926D+03 0.133569956176389D+03 0.107053760034832D+03 -.341303210681561D+03
 0.342205575300381D+03 0.333835056464017D+02 -.540927708831301D+02 0.326491888875108D+03
 0.000000000000000D+00 -.000000000000000D+00 0.000000000000000D+00 -.000000000000000D+00
 0.919615223274562D+03 0.000000000000000D+00 0.000000000000000D+00 0.919615223274562D+03
 0.126373090328054D+04 0.000000000000000D+00 0.000000000000000D+00 -.126373090328054D+04
 0.324400866269649D+03 -.463219793500197D+02 -.225462631814935D+03 0.213985004068761D+03
 0.225332116912913D+03 0.103589432788490D+03 0.193296823845348D+02 -.199173682262308D+03
 0.459428503135589D+03 0.307328872638729D+03 -.116461115602313D+02 -.341303210681561D+03
 0.418883117010948D+03 0.190584817228939D+03 -.161481651288971D+03 0.326491888875108D+03
 0.755301523226003D+03 -.555181143306139D+03 0.379260712279602D+03 -.344115680005979D+03
0.232988649236D-03 0.000000000000D+00 0.000000000000D+00 0.130838872749D-05 0.000000000000D+00  7 2 -2 24 -13 13 -24 21 0 0.70501208D-01 0.13321746D+00 0.88340830D+05 0.88340830D+05 0.88340830D+05 0.11261671D+01  1  2  2  2  7  2       -2 0.817894576649D-03 0.100000000000D+01
-.406461891920D-05 0.000000000000D+00 -.894737760386D-06 0.130838872749D-05 0.000000000000D+00  7 2 -2 24 -13 13 -24 21 2 0.70501208D-01 0.13321746D+00 0.88340830D+05 0.88340830D+05 0.88340830D+05 0.11261671D+01  1  2  3  2  7  2       -2 -.180962276183D-04 0.100000000000D+01
0.140150844367D-04 0.000000000000D+00 0.000000000000D+00 0.130838872749D-05 0.000000000000D+00  7 2 -2 24 -13 13 -24 21 2 0.70501208D-01 0.13321746D+00 0.88340830D+05 0.88340830D+05 0.88340830D+05 0.11261671D+01  1  2 15  2  7  2       -2 0.623970323166D-04 0.100000000000D+01
0.536228394654D-04 0.000000000000D+00 -.624239361346D-04 0.130838872749D-05 0.000000000000D+00  7 2 -2 24 -13 13 -24 21 2 0.70501208D-01 0.32515876D+00 0.88340830D+05 0.88340830D+05 0.88340830D+05 0.11261671D+01  1  2  5  2  7  2       -2 0.119484584099D-04 0.100000000000D+01
0.914814711098D-05 0.000000000000D+00 -.610908236494D-05 0.130838872749D-05 0.000000000000D+00  7 2 21 24 -13 13 -24 2 2 0.70501208D-01 0.32515876D+00 0.88340830D+05 0.88340830D+05 0.88340830D+05 0.11261671D+01  1  2  5  4  7  2       -2 0.153546120915D-04 0.100000000000D+01
  </mgrwgt>
  </event>
  <event>
  8     66 0.26993063E-05 0.18376360E+03 0.75467711E-02 0.98062850E-01
        2 -1    0    0  501    0 0.00000000E+00 0.00000000E+00 0.14016891E+04 0.14016891E+04 0.32000000E+00 0.0000E+00 0.9000E+01
       -2 -1    0    0    0  501 0.00000000E+00 0.00000000E+00 -.39142487E+02 0.39143795E+02 0.32000000E+00 0.0000E+00 0.9000E+01
       25  2    1    2    0    0 -.46134463E+01 0.65227939E+02 0.64713667E+03 0.71655539E+03 0.30064894E+03 0.0000E+00 0.0000E+00
       23  2    1    2    0    0 0.46134463E+01 -.65227939E+02 0.71540993E+03 0.72427753E+03 0.92144495E+02 0.0000E+00 0.0000E+00
       24  1    3    3    0    0 0.29832184E+01 0.12871399E+03 0.56494678E+03 0.58498570E+03 0.80419002E+02 0.0000E+00 0.9000E+01
      -13  1    4    4    0    0 0.24290665E+02 0.16211787E+02 0.18299024E+03 0.18530596E+03 0.10565837E+00 0.0000E+00 0.9000E+01
       13  1    4    4    0    0 -.19677219E+02 -.81439726E+02 0.53241968E+03 0.53897157E+03 0.10565837E+00 0.0000E+00 0.9000E+01
      -24  1    3    3    0    0 -.75966647E+01 -.63486053E+02 0.82189893E+02 0.13156969E+03 0.80419002E+02 0.0000E+00 0.9000E+01
#aMCatNLO 1  0  0  1  1 0.28394515D+03 0.00000000D+00  -5  7  0 0.00000000D+00 0.00000000D+00 0.00000000D+00 0.00000000D+00 0.00000000D+00
  <mgrwgt>
 0.8475725938D-03    5    2    0
 0.234236132259653D+03 0.000000000000000D+00 0.000000000000000D+00 0.234236132259653D+03
 0.234236132259653D+03 0.000000000000000D+00 0.000000000000000D+00 -.234236132259653D+03
 0.156039854453546D+03 0.298321782504108D+01 0.128714000261322D+03 0.361251542785629D+02
 0.377015749423884D+02 0.242907094678692D+02 0.162118911507201D+02 0.238441768992202D+02
 0.109123633722267D+03 -.196772619747623D+02 -.814398478709426D+02 0.699165500914189D+02
 0.165607201401105D+03 -.759666531814793D+01 -.634860435410991D+02 -.129885881269202D+03
 0.000000000000000D+00 0.000000000000000D+00 -.000000000000000D+00 0.000000000000000D+00
 0.582863763123844D+03 0.000000000000000D+00 0.000000000000000D+00 0.582863763123844D+03
 0.339141573608786D+03 0.000000000000000D+00 0.000000000000000D+00 -.339141573608786D+03
 0.192860934688377D+03 -.933027878965737D+02 0.143936399752046D+03 0.361251542785629D+02
 0.310783691643007D+02 0.530953688847684D+01 0.192127321310935D+02 0.238441768992202D+02
 0.131675341344025D+03 -.861304550099916D+02 -.709338865504450D+02 0.699165500914189D+02
 0.192191076571162D+03 -.106338107333081D+03 -.478754502323759D+02 -.129885881269202D+03
 0.374199614964765D+03 0.280461813351170D+03 -.443397951003189D+02 0.243722189515058D+03
0.343367225075D-05 0.000000000000D+00 0.000000000000D+00 0.191864463335D-06 0.000000000000D+00  7 2 -2 24 -13 13 -24 21 0 0.21564458D+00 0.60220245D-02 0.33769060D+05 0.33769060D+05 0.33769060D+05 0.11625970D+01  1  2  2  1  7  1        2 0.838968786467D-03 0.100000000000D+01
-.177100085262D-06 0.000000000000D+00 -.131862055495D-07 0.191864463335D-06 0.000000000000D+00  7 2 -2 24 -13 13 -24 21 2 0.21564458D+00 0.60220245D-02 0.33769060D+05 0.33769060D+05 0.33769060D+05 0.11625970D+01  1  2  3  1  7  1        2 -.584876426941D-04 0.100000000000D+01
0.212554222147D-06 0.000000000000D+00 0.000000000000D+00 0.191864463335D-06 0.000000000000D+00  7 2 -2 24 -13 13 -24 21 2 0.21564458D+00 0.60220245D-02 0.33769060D+05 0.33769060D+05 0.33769060D+05 0.11625970D+01  1  2 15  1  7  1        2 0.701964393730D-04 0.100000000000D+01
-.249386761374D-06 0.000000000000D+00 -.940073696153D-06 0.191864463335D-06 0.000000000000D+00  7 2 -2 24 -13 13 -24 21 2 0.58605066D+00 0.60220245D-02 0.33769060D+05 0.33769060D+05 0.33769060D+05 0.11625970D+01  1  2  5  1  7  1        2 -.311367591930D-05 0.100000000000D+01
0.265032828149D-07 0.000000000000D+00 -.104962741147D-06 0.191864463335D-06 0.000000000000D+00  7 21 -2 24 -13 13 -24 -2 2 0.58605066D+00 0.60220245D-02 0.33769060D+05 0.33769060D+05 0.33769060D+05 0.11625970D+01  1  2  5  3  7  1        2 0.868660019916D-08 0.100000000000D+01
  </mgrwgt>
  </event>
  <event>
  8     66 0.26993063E-05 0.51511085E+03 0.75467711E-02 0.88208350E-01
        2 -1    0    0  501    0 0.00000000E+00 0.00000000E+00 0.13421349E+04 0.13421349E+04 0.32000000E+00 0.0000E+00 0.9000E+01
       -2 -1    0    0    0  501 0.00000000E+00 0.00000000E+00 -.32219602E+03 0.32219618E+03 0.32000000E+00 0.0000E+00 0.9000E+01
       25  2    1    2    0    0 -.30723149E+02 0.48684720E+03 0.49235512E+02 0.57452701E+03 0.29948797E+03 0.0000E+00 0.0000E+00
       23  2    1    2    0    0 0.30723149E+02 -.48684720E+03 0.97070335E+03 0.10898041E+04 0.86277751E+02 0.0000E+00 0.0000E+00
       24  1    3    3    0    0 -.50431602E+02 0.42367421E+03 -.41821534E+02 0.43618739E+03 0.80419002E+02 0.0000E+00 0.9000E+01
      -13  1    4    4    0    0 -.18017509E+02 -.73031355E+02 0.10639648E+03 0.13030131E+03 0.10565837E+00 0.0000E+00 0.9000E+01
       13  1    4    4    0    0 0.48740658E+02 -.41381584E+03 0.86430687E+03 0.95950277E+03 0.10565837E+00 0.0000E+00 0.9000E+01
      -24  1    3    3    0    0 0.19708453E+02 0.63172992E+02 0.91057046E+02 0.13833962E+03 0.80419002E+02 0.0000E+00 0.9000E+01
#aMCatNLO 1  0  0  2  2 0.64817228D+03 0.00000000D+00  -5  7  0 0.00000000D+00 0.00000000D+00 0.00000000D+00 0.00000000D+00 0.00000000D+00
  <mgrwgt>
 0.1667982475D-02    3    2    0
 0.657594619110962D+03 0.000000000000000D+00 0.000000000000000D+00 0.657594619110962D+03
 0.657594619110962D+03 0.000000000000000D+00 0.000000000000000D+00 -.657594619110962D+03
 0.584414487341688D+03 -.504316020033594D+02 0.423674208339414D+03 -.391190357457623D+03
 0.823803199393272D+02 -.180176091202689D+02 -.730308438990114D+02 0.335913488013406D+02
 0.543945341138027D+03 0.487407581325630D+02 -.413816356011500D+03 0.349652536298239D+03
 0.104449089802882D+03 0.197084529910652D+02 0.631729915710968D+02 0.794647235804278D+01
 0.000000000000000D+00 0.000000000000000D+00 -.000000000000000D+00 0.000000000000000D+00
 0.177650692097312D+04 0.000000000000000D+00 0.000000000000000D+00 0.177650692097312D+04
 0.833782498852174D+03 0.000000000000000D+00 0.000000000000000D+00 -.833782498852174D+03
 0.817046391121249D+03 -.280844887551512D+03 0.655128874846960D+03 -.391190357457623D+03
 0.725986561271682D+02 -.434976033285510D+02 -.474356897477996D+02 0.335913488013406D+02
 0.444934805603145D+03 -.113840393525320D+03 -.250500399000315D+03 0.349652536298239D+03
 0.131656839789916D+03 -.191095716936788D+02 0.102166459055034D+03 0.794647235804278D+01
 0.114405272718381D+04 0.457292456099061D+03 -.459359245153879D+03 0.942724422120942D+03
0.212529365366D-03 0.000000000000D+00 0.000000000000D+00 0.414378162220D-06 0.000000000000D+00  7 2 -2 24 -13 13 -24 21 0 0.20648230D+00 0.49568634D-01 0.26533919D+06 0.26533919D+06 0.26533919D+06 0.10885189D+01  1  2  2  2  7  2       -2 0.164448618003D-02 0.100000000000D+01
-.109510514641D-04 0.000000000000D+00 -.816168723274D-06 0.414378162220D-06 0.000000000000D+00  7 2 -2 24 -13 13 -24 21 2 0.20648230D+00 0.49568634D-01 0.26533919D+06 0.26533919D+06 0.26533919D+06 0.10885189D+01  1  2  3  2  7  2       -2 -.100401230860D-03 0.100000000000D+01
0.135138600465D-04 0.000000000000D+00 0.000000000000D+00 0.414378162220D-06 0.000000000000D+00  7 2 -2 24 -13 13 -24 21 2 0.20648230D+00 0.49568634D-01 0.26533919D+06 0.26533919D+06 0.26533919D+06 0.10885189D+01  1  2 15  2  7  2       -2 0.123897525894D-03 0.100000000000D+01
  </mgrwgt>
  </event>
  <event>
  8     66 0.26993063E-05 0.58161051E+03 0.75467711E-02 0.92601667E-01
        2 -1    0    0  501    0 0.00000000E+00 0.00000000E+00 0.33150712E+04 0.33150712E+04 0.32000000E+00 0.0000E+00 0.9000E+01
       -2 -1    0    0    0  501 0.00000000E+00 0.00000000E+00 -.13878210E+03 0.13878247E+03 0.32000000E+00 0.0000E+00 0.9000E+01
       25  2    1    2    0    0 -.54483021E+03 -.48624735E+02 0.80334434E+03 0.10169223E+04 0.29927347E+03 0.0000E+00 0.0000E+00
       23  2    1    2    0    0 0.54483021E+03 0.48624735E+02 0.23729448E+04 0.24369314E+04 0.92537662E+02 0.0000E+00 0.0000E+00
       24  1    3    3    0    0 -.38604819E+03 -.12660136E+03 0.64374292E+03 0.76546279E+03 0.80419002E+02 0.0000E+00 0.9000E+01
      -11  1    4    4    0    0 0.15876849E+02 0.19281622E+02 0.11166465E+03 0.11442399E+03 0.51099893E-03 0.0000E+00 0.9000E+01
       11  1    4    4    0    0 0.52895336E+03 0.29343113E+02 0.22612801E+04 0.23225074E+04 0.51099893E-03 0.0000E+00 0.9000E+01
      -24  1    3    3    0    0 -.15878202E+03 0.77976622E+02 0.15960141E+03 0.25145956E+03 0.80419002E+02 0.0000E+00 0.9000E+01
#aMCatNLO 1  0  0  2  2 0.37108277D+02 0.00000000D+00  -5  7  0 0.00000000D+00 0.00000000D+00 0.00000000D+00 0.00000000D+00 0.00000000D+00
  <mgrwgt>
 0.9865862465D-03    4    2    0
 0.678286979135595D+03 0.000000000000000D+00 0.000000000000000D+00 0.678286979135595D+03
 0.678286979135595D+03 0.000000000000000D+00 0.000000000000000D+00 -.678286979135595D+03
 0.441614586377845D+03 -.386048193631770D+03 -.126601357276016D+03 -.153281164781662D+03
 0.298726864608702D+02 0.158768491037239D+02 0.192816223025631D+02 0.163866439611148D+02
 0.618559159561956D+03 0.528953363471362D+03 0.293431127164212D+02 0.319316073642461D+03
 0.266527525870520D+03 -.158782018943317D+03 0.779766222570322D+02 -.182421552821914D+03
 0.000000000000000D+00 0.000000000000000D+00 0.000000000000000D+00 0.000000000000000D+00
 0.813175373692274D+03 0.000000000000000D+00 0.000000000000000D+00 0.813175373692274D+03
 0.681097664805915D+03 0.000000000000000D+00 0.000000000000000D+00 -.681097664805915D+03
 0.451625306451820D+03 -.394564979462512D+03 -.135357168182017D+03 -.153281164781662D+03
 0.292029622454981D+02 0.153135797604231D+02 0.187025447071998D+02 0.163866439611148D+02
 0.608126447658181D+03 0.517257268522835D+03 0.173187648294192D+02 0.319316073642461D+03
 0.268126684488641D+03 -.163879793281080D+03 0.727357779960664D+02 -.182421552821914D+03
 0.137191637654048D+03 0.258739244603328D+02 0.266000806493318D+02 0.132077708886358D+03
0.405244244658D-03 0.000000000000D+00 0.000000000000D+00 0.253901309975D-05 0.000000000000D+00  7 2 -2 24 -11 11 -24 21 0 0.51001099D+00 0.21351123D-01 0.33827079D+06 0.33827079D+06 0.33827079D+06 0.10807150D+01  1  2  2  2  7  2       -2 0.101069664340D-02 0.100000000000D+01
-.218663280734D-04 0.000000000000D+00 -.155624460275D-05 0.253901309975D-05 0.000000000000D+00  7 2 -2 24 -11 11 -24 21 2 0.51001099D+00 0.21351123D-01 0.33827079D+06 0.33827079D+06 0.33827079D+06 0.10807150D+01  1  2  3  2  7  2       -2 -.636945411340D-04 0.100000000000D+01
0.255849728187D-04 0.000000000000D+00 0.000000000000D+00 0.253901309975D-05 0.000000000000D+00  7 2 -2 24 -11 11 -24 21 2 0.51001099D+00 0.21351123D-01 0.33827079D+06 0.33827079D+06 0.33827079D+06 0.10807150D+01  1  2 15  2  7  2       -2 0.745266008149D-04 0.100000000000D+01
-.119957409966D-04 0.000000000000D+00 0.000000000000D+00 0.253901309975D-05 0.000000000000D+00  7 2 -2 24 -11 11 -24 21 2 0.51001099D+00 0.21351123D-01 0.33827079D+06 0.33827079D+06 0.33827079D+06 0.10807150D+01  1  2  4  2  7  2       -2 -.349424565375D-04 0.100000000000D+01
  </mgrwgt>
  </event>
  <event>
  8     66 0.26993063E-05 0.57708084E+03 0.75467711E-02 0.91068659E-01
        2 -1    0    0  501    0 0.00000000E+00 0.00000000E+00 0.15287916E+04 0.15287916E+04 0.32000000E+00 0.0000E+00 0.9000E+01
       -2 -1    0    0    0  501 0.00000000E+00 0.00000000E+00 -.33350090E+03 0.33350105E+03 0.32000000E+00 0.0000E+00 0.9000E+01
       25  2    1    2    0    0 0.36499605E+03 -.56548476E+03 0.75499555E+03 0.10531646E+04 0.29350002E+03 0.0000E+00 0.0000E+00
       23  2    1    2    0    0 -.36499605E+03 0.56548476E+03 0.44029511E+03 0.80912804E+03 0.88505783E+02 0.0000E+00 0.0000E+00
       24  1    3    3    0    0 0.72610945E+02 -.65743852E+02 0.25167359E+03 0.28178257E+03 0.80419002E+02 0.0000E+00 0.9000E+01
      -11  1    4    4    0    0 -.28246209E+03 0.41212626E+03 0.28167263E+03 0.57356112E+03 0.51099893E-03 0.0000E+00 0.9000E+01
       11  1    4    4    0    0 -.82533961E+02 0.15335850E+03 0.15862248E+03 0.23556692E+03 0.51099893E-03 0.0000E+00 0.9000E+01
      -24  1    3    3    0    0 0.29238510E+03 -.49974091E+03 0.50332196E+03 0.77138203E+03 0.80419002E+02 0.0000E+00 0.9000E+01
#aMCatNLO 1  0  0  1  2 0.52350961D+00 0.00000000D+00  -5  7  0 0.00000000D+00 0.00000000D+00 0.00000000D+00 0.00000000D+00 0.00000000D+00
  <mgrwgt>
 0.2868106967D-02   10    2    0
 0.714040285755809D+03 0.000000000000000D+00 0.000000000000000D+00 0.714040285755809D+03
 0.714040285755809D+03 0.000000000000000D+00 0.000000000000000D+00 -.714040285755809D+03
 0.156810838348578D+03 0.726109445807188D+02 -.657438518330927D+02 0.923461950621546D+02
 0.512196582079716D+03 -.282462086795016D+03 0.412126262678313D+03 -.112749509215579D+03
 0.174426137542330D+03 -.825339612417021D+02 0.153358499134662D+03 0.968470148496651D+01
 0.584647013540994D+03 0.292385103455999D+03 -.499740909979882D+03 0.107186126684584D+02
 0.000000000000000D+00 0.000000000000000D+00 0.000000000000000D+00 0.000000000000000D+00
 0.715659251485081D+03 0.000000000000000D+00 0.000000000000000D+00 0.715659251485081D+03
 0.714082655573329D+03 0.000000000000000D+00 0.000000000000000D+00 -.714082655573329D+03
 0.156828006000256D+03 0.725974114982540D+02 -.657997235020136D+02 0.923461950621546D+02
 0.512074159724168D+03 -.282506282661264D+03 0.411943798940793D+03 -.112749509215579D+03
 0.174378633103028D+03 -.825490116852627D+02 0.153296363002564D+03 0.968470148496651D+01
 0.584799868638942D+03 0.292334643440029D+03 -.499949235415966D+03 0.107186126684584D+02
 0.166123959201585D+01 0.123239408244042D+00 0.508796974622159D+00 0.157659591175164D+01
0.145119176135D-03 0.000000000000D+00 0.000000000000D+00 0.142894172664D-07 0.000000000000D+00  7 2 -2 24 -11 11 -24 21 0 0.23519872D+00 0.51307845D-01 0.47960736D+06 0.47960736D+06 0.47960736D+06 0.10697908D+01  1  2  2  1  7  1        2 0.805381109100D-03 0.100000000000D+01
-.805301112494D-05 0.000000000000D+00 -.557295847116D-06 0.142894172664D-07 0.000000000000D+00  7 2 -2 24 -11 11 -24 21 2 0.23519872D+00 0.51307845D-01 0.47960736D+06 0.47960736D+06 0.47960736D+06 0.10697908D+01  1  2  3  1  7  1        2 -.511484741137D-04 0.100000000000D+01
0.911246837332D-05 0.000000000000D+00 0.000000000000D+00 0.142894172664D-07 0.000000000000D+00  7 2 -2 24 -11 11 -24 21 2 0.23519872D+00 0.51307845D-01 0.47960736D+06 0.47960736D+06 0.47960736D+06 0.10697908D+01  1  2 15  1  7  1        2 0.578775870880D-04 0.100000000000D+01
-.138972749093D+00 0.000000000000D+00 0.000000000000D+00 0.142894172664D-07 0.000000000000D+00  7 2 -2 24 -11 11 -24 21 2 0.23519872D+00 0.51307845D-01 0.47960736D+06 0.47960736D+06 0.47960736D+06 0.10697908D+01  1  2  4  1  7  1        2 -.882681514930D+00 0.100000000000D+01
-.215205598912D+00 0.000000000000D+00 -.694436227094D-02 0.142894172664D-07 0.000000000000D+00  7 2 -2 24 -11 11 -24 21 2 0.23573747D+00 0.51307845D-01 0.47960736D+06 0.47960736D+06 0.47960736D+06 0.10697908D+01  1  2  5  1  7  1        2 -.136078415433D+01 0.100000000000D+01
0.215220942520D+00 0.000000000000D+00 0.694434409415D-02 0.142894172664D-07 0.000000000000D+00  7 2 -2 24 -11 11 -24 21 2 0.23519872D+00 0.51307845D-01 0.47960736D+06 0.47960736D+06 0.47960736D+06 0.10697908D+01  1  2  6  1  7  1        2 0.136696977521D+01 0.100000000000D+01
0.138973119090D+00 0.000000000000D+00 0.000000000000D+00 0.142894172664D-07 0.318232031119D-06  7 2 -2 24 -11 11 -24 21 2 0.23573199D+00 0.51310889D-01 0.47997070D+06 0.47997070D+06 0.47997070D+06 0.10697675D+01  1  2 11  1  7  1        2 0.878620424048D+00 0.100000000000D+01
0.223696879851D-14 0.000000000000D+00 0.000000000000D+00 0.142894172664D-07 0.000000000000D+00  7 21 -2 24 -11 11 -24 -2 2 0.23573896D+00 0.51307845D-01 0.47997070D+06 0.47997070D+06 0.47997070D+06 0.10697675D+01  1  2 12  3  7  1        2 0.465344927455D-14 0.100000000000D+01
-.919939651763D-04 0.000000000000D+00 -.296894608463D-05 0.142894172664D-07 0.000000000000D+00  7 21 -2 24 -11 11 -24 -2 2 0.23573747D+00 0.51307845D-01 0.47960736D+06 0.47960736D+06 0.47960736D+06 0.10697908D+01  1  2  5  3  7  1        2 -.191396142014D-03 0.100000000000D+01
0.590620375877D-04 0.000000000000D+00 0.000000000000D+00 0.142894172664D-07 0.134673967870D-09  7 21 -2 24 -11 11 -24 -2 2 0.23573199D+00 0.51310889D-01 0.47997070D+06 0.47997070D+06 0.47997070D+06 0.10697675D+01  1  2 11  3  7  1        2 0.122862891602D-03 0.100000000000D+01
  </mgrwgt>
  </event>
  <event>
  8     66 0.26993063E-05 0.68745806E+03 0.75467711E-02 0.90403771E-01
        2 -1    0    0  501    0 0.00000000E+00 0.00000000E+00 0.24118609E+04 0.24118610E+04 0.32000000E+00 0.0000E+00 0.9000E+01
       -2 -1    0    0    0  501 0.00000000E+00 0.00000000E+00 -.49553194E+03 0.49553204E+03 0.32000000E+00 0.0000E+00 0.9000E+01
       25  2    1    2    0    0 -.37385704E+03 0.56251470E+03 0.20791566E+04 0.22066580E+04 0.30042583E+03 0.0000E+00 0.0000E+00
       23  2    1    2    0    0 0.37385704E+03 -.56251470E+03 -.16282761E+03 0.70073496E+03 0.91240239E+02 0.0000E+00 0.0000E+00
       24  1    3    3    0    0 -.24046406E+03 0.31122935E+03 0.81647249E+03 0.90982482E+03 0.80419002E+02 0.0000E+00 0.9000E+01
      -13  1    4    4    0    0 0.36877883E+03 -.53458625E+03 -.17025676E+03 0.67139233E+03 0.10565837E+00 0.0000E+00 0.9000E+01
       13  1    4    4    0    0 0.50782155E+01 -.27928448E+02 0.74291574E+01 0.29342632E+02 0.10565837E+00 0.0000E+00 0.9000E+01
      -24  1    3    3    0    0 -.13339298E+03 0.25128535E+03 0.12626841E+04 0.12968332E+04 0.80419002E+02 0.0000E+00 0.9000E+01
#aMCatNLO 1  0  0  1  2 0.99857776D+02 0.00000000D+00  -5  7  0 0.00000000D+00 0.00000000D+00 0.00000000D+00 0.00000000D+00 0.00000000D+00
  <mgrwgt>
 0.2770956270D-03    4    2    0
 0.109323113337260D+04 0.000000000000000D+00 0.000000000000000D+00 0.109323113337260D+04
 0.109323113337260D+04 0.000000000000000D+00 0.000000000000000D+00 -.109323113337260D+04
 0.494217733264215D+03 -.240464060574406D+03 0.311229349547065D+03 0.288265987364148D+03
 0.104199021114400D+04 0.368779312887623D+03 -.534586926600980D+03 -.814838779399562D+03
 0.325049711862414D+02 0.507772773272230D+01 -.279277690016597D+02 -.158375992966310D+02
 0.617749351150738D+03 -.133392980045940D+03 0.251285346055575D+03 0.542410391332044D+03
 0.000000000000000D+00 0.000000000000000D+00 0.000000000000000D+00 -.000000000000000D+00
 0.112272935664604D+04 0.000000000000000D+00 0.000000000000000D+00 0.112272935664604D+04
 0.118227657650565D+04 0.000000000000000D+00 0.000000000000000D+00 -.118227657650565D+04
 0.490288452302980D+03 -.254292978780210D+03 0.293518912473016D+03 0.288265987364148D+03
 0.105195436006796D+04 0.339366609719999D+03 -.572255225803826D+03 -.814838779399562D+03
 0.334014477995956D+02 0.415196973266717D+01 -.291133699692677D+02 -.158375992966310D+02
 0.613097117725947D+03 -.150682130070114D+03 0.229143454765884D+03 0.542410391332044D+03
 0.116264555255206D+03 0.614565293976570D+02 0.787062285341933D+02 -.595472198596129D+02
0.103876787334D-02 0.000000000000D+00 0.000000000000D+00 0.374435293314D-04 0.000000000000D+00  7 2 -2 24 -13 13 -24 21 0 0.37105554D+00 0.76235693D-01 0.47259858D+06 0.47259858D+06 0.47259858D+06 0.10702447D+01  1  2  2  1  7  1        2 0.807108973095D-03 0.100000000000D+01
-.426098638914D-04 0.000000000000D+00 -.398914214748D-05 0.374435293314D-04 0.000000000000D+00  7 2 -2 24 -13 13 -24 21 2 0.37105554D+00 0.76235693D-01 0.47259858D+06 0.47259858D+06 0.47259858D+06 0.10702447D+01  1  2  3  1  7  1        2 -.379218874661D-04 0.100000000000D+01
0.635333296893D-04 0.000000000000D+00 0.000000000000D+00 0.374435293314D-04 0.000000000000D+00  7 2 -2 24 -13 13 -24 21 2 0.37105554D+00 0.76235693D-01 0.47259858D+06 0.47259858D+06 0.47259858D+06 0.10702447D+01  1  2 15  1  7  1        2 0.565433343080D-04 0.100000000000D+01
-.616458077824D-03 0.000000000000D+00 0.000000000000D+00 0.374435293314D-04 0.000000000000D+00  7 2 -2 24 -13 13 -24 21 2 0.37105554D+00 0.76235693D-01 0.47259858D+06 0.47259858D+06 0.47259858D+06 0.10702447D+01  1  2  4  1  7  1        2 -.548634792977D-03 0.100000000000D+01
  </mgrwgt>
  </event>
  <event>
  8     66 0.26993063E-05 0.24390340E+03 0.75467711E-02 0.10076178E+00
        2 -1    0    0  501    0 0.00000000E+00 0.00000000E+00 0.93731844E+03 0.93731850E+03 0.32000000E+00 0.0000E+00 0.9000E+01
       -2 -1    0    0    0  501 0.00000000E+00 0.00000000E+00 -.11252252E+03 0.11252297E+03 0.32000000E+00 0.0000E+00 0.9000E+01
       25  2    1    2    0    0 -.22652304E+03 0.95385733E+02 0.49555438E+03 0.62916677E+03 0.29977585E+03 0.0000E+00 0.0000E+00
       23  2    1    2    0    0 0.22652304E+03 -.95385733E+02 0.32924155E+03 0.42067470E+03 0.90310990E+02 0.0000E+00 0.0000E+00
       24  1    3    3    0    0 -.15719723E+03 -.28787521E+02 0.10897525E+03 0.20948153E+03 0.80419002E+02 0.0000E+00 0.9000E+01
      -11  1    4    4    0    0 0.21793490E+03 -.10711022E+03 0.28670181E+03 0.37572084E+03 0.51099893E-03 0.0000E+00 0.9000E+01
       11  1    4    4    0    0 0.85881422E+01 0.11724490E+02 0.42539738E+02 0.44953856E+02 0.51099893E-03 0.0000E+00 0.9000E+01
      -24  1    3    3    0    0 -.69325812E+02 0.12417325E+03 0.38657912E+03 0.41968524E+03 0.80419002E+02 0.0000E+00 0.9000E+01
#aMCatNLO 1  0  0  1  1 0.22301440D+01 0.00000000D+00  -5  7  0 0.00000000D+00 0.00000000D+00 0.00000000D+00 0.00000000D+00 0.00000000D+00
  <mgrwgt>
 0.1492407589D-02   10    2    0
 0.324760984079498D+03 0.000000000000000D+00 0.000000000000000D+00 0.324760984079498D+03
 0.324760984079498D+03 0.000000000000000D+00 0.000000000000000D+00 -.324760984079498D+03
 0.200208862936505D+03 -.157197230510387D+03 -.287875207477110D+02 -.898703633742638D+02
 0.243220152106119D+03 0.217934900652768D+03 -.107110223614904D+03 -.137047971585692D+02
 0.186411239586521D+02 0.858814218925058D+01 0.117244901734533D+02 0.116735447209340D+02
 0.187451829157720D+03 -.693258123316314D+02 0.124173254189161D+03 0.919016158118991D+02
 0.000000000000000D+00 0.000000000000000D+00 -.000000000000000D+00 0.000000000000000D+00
 0.326561917963133D+03 0.000000000000000D+00 0.000000000000000D+00 0.326561917963133D+03
 0.325454044606861D+03 0.000000000000000D+00 0.000000000000000D+00 -.325454044606861D+03
 0.200319281902655D+03 -.157453263473510D+03 -.281493580058999D+02 -.898703633742638D+02
 0.242601641126993D+03 0.217624344715878D+03 -.106336162237205D+03 -.137047971585692D+02
 0.186676155097405D+02 0.856429301101042D+01 0.117839343043576D+02 0.116735447209340D+02
 0.187937258225835D+03 -.695657754443493D+02 0.124771362792358D+03 0.919016158118991D+02
 0.249016580476957D+01 0.830401190970201D+00 -.206977685361049D+01 0.110787335627192D+01
0.619902032640D-05 0.000000000000D+00 0.000000000000D+00 0.109294699698D-05 0.000000000000D+00  7 2 -2 24 -11 11 -24 21 0 0.14420288D+00 0.17311195D-01 0.89894912D+05 0.89894912D+05 0.89894912D+05 0.11255385D+01  1  2  2  1  7  1        2 0.547939263599D-03 0.100000000000D+01
-.341717444962D-06 0.000000000000D+00 -.238058702929D-07 0.109294699698D-05 0.000000000000D+00  7 2 -2 24 -11 11 -24 21 2 0.14420288D+00 0.17311195D-01 0.89894912D+05 0.89894912D+05 0.89894912D+05 0.11255385D+01  1  2  3  1  7  1        2 -.382646038305D-04 0.100000000000D+01
0.386716171048D-06 0.000000000000D+00 0.000000000000D+00 0.109294699698D-05 0.000000000000D+00  7 2 -2 24 -11 11 -24 21 2 0.14420288D+00 0.17311195D-01 0.89894912D+05 0.89894912D+05 0.89894912D+05 0.11255385D+01  1  2 15  1  7  1        2 0.433034406003D-04 0.100000000000D+01
-.221389298430D-03 0.000000000000D+00 0.000000000000D+00 0.109294699698D-05 0.000000000000D+00  7 2 -2 24 -11 11 -24 21 2 0.14420288D+00 0.17311195D-01 0.89894912D+05 0.89894912D+05 0.89894912D+05 0.11255385D+01  1  2  4  1  7  1        2 -.247905804097D-01 0.100000000000D+01
-.120408345757D-02 0.000000000000D+00 -.110473634348D-03 0.109294699698D-05 0.000000000000D+00  7 2 -2 24 -11 11 -24 21 2 0.14519996D+00 0.17311195D-01 0.89894912D+05 0.89894912D+05 0.89894912D+05 0.11255385D+01  1  2  5  1  7  1        2 -.133578222904D+00 0.100000000000D+01
0.120481871190D-02 0.000000000000D+00 0.110471011700D-03 0.109294699698D-05 0.000000000000D+00  7 2 -2 24 -11 11 -24 21 2 0.14420288D+00 0.17311195D-01 0.89894912D+05 0.89894912D+05 0.89894912D+05 0.11255385D+01  1  2  6  1  7  1        2 0.134912370961D+00 0.100000000000D+01
0.221393455594D-03 0.000000000000D+00 0.000000000000D+00 0.109294699698D-05 0.148404079913D-05  7 2 -2 24 -11 11 -24 21 2 0.14500254D+00 0.17348139D-01 0.90593326D+05 0.90593326D+05 0.90593326D+05 0.11252599D+01  1  2 11  1  7  1        2 0.245079098750D-01 0.100000000000D+01
0.690767559512D-09 0.000000000000D+00 0.000000000000D+00 0.109294699698D-05 0.000000000000D+00  7 21 -2 24 -11 11 -24 -2 2 0.14515582D+00 0.17311195D-01 0.90593326D+05 0.90593326D+05 0.90593326D+05 0.11252599D+01  1  2 12  3  7  1        2 0.617076076036D-07 0.100000000000D+01
-.153776477839D-05 0.000000000000D+00 -.141267534402D-06 0.109294699698D-05 0.000000000000D+00  7 21 -2 24 -11 11 -24 -2 2 0.14519996D+00 0.17311195D-01 0.89894912D+05 0.89894912D+05 0.89894912D+05 0.11255385D+01  1  2  5  3  7  1        2 -.137375175677D-03 0.100000000000D+01
0.282935776977D-06 0.000000000000D+00 0.000000000000D+00 0.109294699698D-05 0.153030691981D-08  7 21 -2 24 -11 11 -24 -2 2 0.14500254D+00 0.17348139D-01 0.90593326D+05 0.90593326D+05 0.90593326D+05 0.11252599D+01  1  2 11  3  7  1        2 0.252654346316D-04 0.100000000000D+01
  </mgrwgt>
  </event>
  <event>
  8     66 0.26993063E-05 0.79536021E+02 0.75467711E-02 0.10366581E+00
        2 -1    0    0  501    0 0.00000000E+00 0.00000000E+00 0.20523806E+03 0.20523831E+03 0.32000000E+00 0.0000E+00 0.9000E+01
       -2 -1    0    0    0  501 0.00000000E+00 0.00000000E+00 -.78739245E+03 0.78739252E+03 0.32000000E+00 0.0000E+00 0.9000E+01
       25  2    1    2    0    0 0.11965579E+03 -.31489627E+02 -.71777190E+03 0.78768493E+03 0.29990323E+03 0.0000E+00 0.0000E+00
       23  2    1    2    0    0 -.11965579E+03 0.31489627E+02 0.13561750E+03 0.20494589E+03 0.91113142E+02 0.0000E+00 0.0000E+00
       24  1    3    3    0    0 -.66562191E+02 -.21568037E+00 -.36416748E+03 0.37883472E+03 0.80419002E+02 0.0000E+00 0.9000E+01
      -11  1    4    4    0    0 -.11857267E+03 0.44473694E+02 0.14214349E+03 0.19037374E+03 0.51099893E-03 0.0000E+00 0.9000E+01
       11  1    4    4    0    0 -.10831239E+01 -.12984067E+02 -.65259864E+01 0.14572153E+02 0.51099893E-03 0.0000E+00 0.9000E+01
      -24  1    3    3    0    0 0.18621799E+03 -.31273947E+02 -.35360442E+03 0.40885022E+03 0.80419002E+02 0.0000E+00 0.9000E+01
#aMCatNLO 1  0  0  2  1 0.36225496D+02 0.00000000D+00  -5  7  0 0.00000000D+00 0.00000000D+00 0.00000000D+00 0.00000000D+00 0.00000000D+00
  <mgrwgt>
 0.8820129255D-03    9    2    0
 0.401998820639925D+03 0.000000000000000D+00 0.000000000000000D+00 0.401998820639925D+03
 0.401998820639925D+03 0.000000000000000D+00 0.000000000000000D+00 -.401998820639925D+03
 0.204032085216386D+03 -.665621909374599D+02 -.215680372965755D+00 -.175303462780853D+03
 0.337961559063166D+03 -.118572671029071D+03 0.444736943759542D+02 0.313337880885780D+03
 0.132657563034679D+02 -.108312389769184D+01 -.129840669498705D+02 0.249422099392346D+01
 0.248738240696831D+03 0.186217985864222D+03 -.312739470531179D+02 -.140528639098851D+03
 0.000000000000000D+00 -.000000000000000D+00 -.000000000000000D+00 -.000000000000000D+00
 0.415467075925121D+03 0.000000000000000D+00 0.000000000000000D+00 0.415467075925121D+03
 0.427526212475068D+03 0.000000000000000D+00 0.000000000000000D+00 -.427526212475068D+03
 0.202467750228279D+03 -.611800955665011D+02 0.718789062564905D+01 -.175303462780853D+03
 0.336783833652031D+03 -.109638979701162D+03 0.567628147774191D+02 0.313337880885780D+03
 0.127773221965338D+02 -.738311132670542D+00 -.125097450341277D+02 0.249422099392346D+01
 0.252784422432624D+03 0.192858192251286D+03 -.221397277493595D+02 -.140528639098851D+03
 0.381799598907204D+02 -.213008058509526D+02 -.293012326195811D+02 -.120591365499461D+02
0.428796546813D-04 0.000000000000D+00 0.000000000000D+00 0.544375313838D-05 0.000000000000D+00  7 2 -2 24 -11 11 -24 21 0 0.31575110D-01 0.12113732D+00 0.50467151D+05 0.50467151D+05 0.50467151D+05 0.11469403D+01  1  2  2  2  7  2       -2 0.470059655116D-03 0.100000000000D+01
-.140142168423D-05 0.000000000000D+00 -.164669164449D-06 0.544375313838D-05 0.000000000000D+00  7 2 -2 24 -11 11 -24 21 2 0.31575110D-01 0.12113732D+00 0.50467151D+05 0.50467151D+05 0.50467151D+05 0.11469403D+01  1  2  3  2  7  2       -2 -.202093415213D-04 0.100000000000D+01
0.266603090082D-05 0.000000000000D+00 0.000000000000D+00 0.544375313838D-05 0.000000000000D+00  7 2 -2 24 -11 11 -24 21 2 0.31575110D-01 0.12113732D+00 0.50467151D+05 0.50467151D+05 0.50467151D+05 0.11469403D+01  1  2 15  2  7  2       -2 0.384457651735D-04 0.100000000000D+01
0.995352924755D-04 0.000000000000D+00 0.000000000000D+00 0.544375313838D-05 0.000000000000D+00  7 2 -2 24 -11 11 -24 21 2 0.31575110D-01 0.13075890D+00 0.58477487D+05 0.58477487D+05 0.58477487D+05 0.11413601D+01  1  2 12  2  7  2       -2 0.116514487769D-02 0.100000000000D+01
-.926820321458D-04 0.000000000000D+00 0.000000000000D+00 0.544375313838D-05 0.000000000000D+00  7 2 -2 24 -11 11 -24 21 2 0.31575110D-01 0.12113732D+00 0.50467151D+05 0.50467151D+05 0.50467151D+05 0.11469403D+01  1  2  4  2  7  2       -2 -.133653051155D-02 0.100000000000D+01
-.267910623774D-03 0.000000000000D+00 -.594665855326D-04 0.544375313838D-05 0.000000000000D+00  7 2 -2 24 -11 11 -24 21 2 0.31575110D-01 0.13187506D+00 0.50467151D+05 0.50467151D+05 0.50467151D+05 0.11469403D+01  1  2  5  2  7  2       -2 -.310793217355D-02 0.100000000000D+01
0.272192686750D-03 0.000000000000D+00 0.592527580626D-04 0.544375313838D-05 0.000000000000D+00  7 2 -2 24 -11 11 -24 21 2 0.31575110D-01 0.12113732D+00 0.50467151D+05 0.50467151D+05 0.50467151D+05 0.11469403D+01  1  2  6  2  7  2       -2 0.392518185499D-02 0.100000000000D+01
0.129160824021D-05 0.000000000000D+00 0.000000000000D+00 0.544375313838D-05 0.000000000000D+00  7 2 21 24 -11 11 -24 2 2 0.31575110D-01 0.13075890D+00 0.58477487D+05 0.58477487D+05 0.58477487D+05 0.11413601D+01  1  2 12  4  7  2       -2 0.140447717547D-03 0.100000000000D+01
-.362873692971D-05 0.000000000000D+00 -.837479665301D-06 0.544375313838D-05 0.000000000000D+00  7 2 21 24 -11 11 -24 2 2 0.31575110D-01 0.13187506D+00 0.50467151D+05 0.50467151D+05 0.50467151D+05 0.11469403D+01  1  2  5  4  7  2       -2 -.392594918440D-03 0.100000000000D+01
  </mgrwgt>
  </event>
  <event>
  8     66 0.26993063E-05 0.14930075E+03 0.75467711E-02 0.10508777E+00
        2 -1    0    0  501    0 0.00000000E+00 0.00000000E+00 0.56530191E+03 0.56530200E+03 0.32000000E+00 0.0000E+00 0.9000E+01
       -2 -1    0    0    0  501 0.00000000E+00 0.00000000E+00 -.18659242E+03 0.18659270E+03 0.32000000E+00 0.0000E+00 0.9000E+01
       25  2    1    2    0    0 0.11619014E+03 -.60193449E+01 0.47464452E+03 0.57374974E+03 0.30060764E+03 0.0000E+00 0.0000E+00
       23  2    1    2    0    0 -.11619014E+03 0.60193449E+01 -.95935042E+02 0.17814496E+03 0.94845724E+02 0.0000E+00 0.0000E+00
       24  1    3    3    0    0 -.63346460E+02 0.23948178E+02 0.26305417E+03 0.28328608E+03 0.80419002E+02 0.0000E+00 0.9000E+01
      -11  1    4    4    0    0 -.14977716E+02 -.45072343E+01 0.19017528E+02 0.24623435E+02 0.51099893E-03 0.0000E+00 0.9000E+01
       11  1    4    4    0    0 -.10121243E+03 0.10526579E+02 -.11495257E+03 0.15352152E+03 0.51099893E-03 0.0000E+00 0.9000E+01
      -24  1    3    3    0    0 0.17953660E+03 -.29967523E+02 0.21159035E+03 0.29046366E+03 0.80419002E+02 0.0000E+00 0.9000E+01
#aMCatNLO 1  0  0  2  1 0.11966500D+02 0.00000000D+00  -5  7  0 0.00000000D+00 0.00000000D+00 0.00000000D+00 0.00000000D+00 0.00000000D+00
  <mgrwgt>
 0.3693465509D-03    9    2    0
 0.324778677821191D+03 0.000000000000000D+00 0.000000000000000D+00 0.324778677821191D+03
 0.324778677821191D+03 0.000000000000000D+00 0.000000000000000D+00 -.324778677821191D+03
 0.174549929794737D+03 -.633464603437794D+02 0.239481780248304D+02 0.139334750755804D+03
 0.174151079364679D+02 -.149777161711736D+02 -.450723432829923D+01 0.765760024057105D+01
 0.244729189638400D+03 -.101212425739513D+03 0.105265792321989D+02 -.222570465845448D+03
 0.212863128272777D+03 0.179536602254466D+03 -.299675229287301D+02 0.755781148490735D+02
 0.000000000000000D+00 0.000000000000000D+00 0.000000000000000D+00 -.000000000000000D+00
 0.325254276586284D+03 0.000000000000000D+00 0.000000000000000D+00 0.325254276586284D+03
 0.409970829341244D+03 0.000000000000000D+00 0.000000000000000D+00 -.409970829341244D+03
 0.175536225028282D+03 -.663911438441765D+02 0.228865373896766D+02 0.139334750755804D+03
 0.177059448991420D+02 -.152831623838043D+02 -.461373935949225D+01 0.765760024057105D+01
 0.246467495242187D+03 -.105484341156053D+03 0.903701915295011D+01 -.222570465845448D+03
 0.209957907824523D+03 0.175859346771806D+03 -.312497329994073D+02 0.755781148490735D+02
 0.855575329333944D+02 0.112993006122277D+02 0.393991581627286D+01 -.847165527549608D+02
0.629634897022D-05 0.000000000000D+00 0.000000000000D+00 0.143370811198D-06 0.000000000000D+00  7 2 -2 24 -11 11 -24 21 0 0.86969552D-01 0.28706555D-01 0.44421745D+05 0.44421745D+05 0.44421745D+05 0.11518419D+01  1  2  2  2  7  2       -2 0.443807557958D-03 0.100000000000D+01
-.270277833952D-06 0.000000000000D+00 -.241796379124D-07 0.143370811198D-06 0.000000000000D+00  7 2 -2 24 -11 11 -24 21 2 0.86969552D-01 0.28706555D-01 0.44421745D+05 0.44421745D+05 0.44421745D+05 0.11518419D+01  1  2  3  2  7  2       -2 -.252756333166D-04 0.100000000000D+01
0.390530935295D-06 0.000000000000D+00 0.000000000000D+00 0.143370811198D-06 0.000000000000D+00  7 2 -2 24 -11 11 -24 21 2 0.86969552D-01 0.28706555D-01 0.44421745D+05 0.44421745D+05 0.44421745D+05 0.11518419D+01  1  2 15  2  7  2       -2 0.365213697882D-04 0.100000000000D+01
0.312798864626D-03 0.000000000000D+00 0.000000000000D+00 0.143370811198D-06 0.000000000000D+00  7 2 -2 24 -11 11 -24 21 2 0.86969552D-01 0.36253818D-01 0.47622166D+05 0.47622166D+05 0.47622166D+05 0.11491614D+01  1  2 12  2  7  2       -2 0.192844586345D-01 0.100000000000D+01
-.305462868173D-03 0.000000000000D+00 0.000000000000D+00 0.143370811198D-06 0.000000000000D+00  7 2 -2 24 -11 11 -24 21 2 0.86969552D-01 0.28706555D-01 0.44421745D+05 0.44421745D+05 0.44421745D+05 0.11518419D+01  1  2  4  2  7  2       -2 -.285660401184D-01 0.100000000000D+01
-.317140440921D-03 0.000000000000D+00 -.386120043785D-05 0.143370811198D-06 0.000000000000D+00  7 2 -2 24 -11 11 -24 21 2 0.86969552D-01 0.36260660D-01 0.44421745D+05 0.44421745D+05 0.44421745D+05 0.11518419D+01  1  2  5  2  7  2       -2 -.196482656214D-01 0.100000000000D+01
0.309657547647D-03 0.000000000000D+00 0.375818611371D-05 0.143370811198D-06 0.000000000000D+00  7 2 -2 24 -11 11 -24 21 2 0.86969552D-01 0.28706555D-01 0.44421745D+05 0.44421745D+05 0.44421745D+05 0.11518419D+01  1  2  6  2  7  2       -2 0.289583149073D-01 0.100000000000D+01
0.100607775938D-04 0.000000000000D+00 0.000000000000D+00 0.143370811198D-06 0.000000000000D+00  7 2 21 24 -11 11 -24 2 2 0.86969552D-01 0.36253818D-01 0.47622166D+05 0.47622166D+05 0.47622166D+05 0.11491614D+01  1  2 12  4  7  2       -2 0.724618029769D-02 0.100000000000D+01
-.101487192261D-04 0.000000000000D+00 -.124265479650D-06 0.143370811198D-06 0.000000000000D+00  7 2 21 24 -11 11 -24 2 2 0.86969552D-01 0.36260660D-01 0.44421745D+05 0.44421745D+05 0.44421745D+05 0.11518419D+01  1  2  5  4  7  2       -2 -.736035484332D-02 0.100000000000D+01
  </mgrwgt>
  </event>
  <event>
  8     66 0.26993063E-05 0.14736699E+03 0.75467711E-02 0.98987530E-01
        2 -1    0    0  501    0 0.00000000E+00 0.00000000E+00 0.15652275E+04 0.15652276E+04 0.32000000E+00 0.0000E+00 0.9000E+01
       -2 -1    0    0    0  501 0.00000000E+00 0.00000000E+00 -.69821190E+02 0.69821923E+02 0.32000000E+00 0.0000E+00 0.9000E+01
       25  2    1    2    0    0 0.25343316E+02 -.14430228E+03 0.14010008E+04 0.14389231E+04 0.29365127E+03 0.0000E+00 0.0000E+00
       23  2    1    2    0    0 -.25343316E+02 0.14430228E+03 0.94405539E+02 0.19612637E+03 0.89931725E+02 0.0000E+00 0.0000E+00
       24  1    3    3    0    0 0.59409706E+02 0.15554555E+01 0.97707999E+03 0.98218351E+03 0.80419002E+02 0.0000E+00 0.9000E+01
      -13  1    4    4    0    0 -.36770616E+02 0.75537484E+02 0.94464924E+02 0.12641844E+03 0.10565837E+00 0.0000E+00 0.9000E+01
       13  1    4    4    0    0 0.11427300E+02 0.68764792E+02 -.59385654E-01 0.69707923E+02 0.10565837E+00 0.0000E+00 0.9000E+01
      -24  1    3    3    0    0 -.34066391E+02 -.14585773E+03 0.42392081E+03 0.45673961E+03 0.80419002E+02 0.0000E+00 0.9000E+01
#aMCatNLO 1  0  0  1  2 0.20037109D+03 0.00000000D+00  -5  7  0 0.00000000D+00 0.00000000D+00 0.00000000D+00 0.00000000D+00 0.00000000D+00
  <mgrwgt>
 0.1323105856D-02    9    2    0
 0.330585352059712D+03 0.000000000000000D+00 0.000000000000000D+00 0.330585352059712D+03
 0.330585352059712D+03 0.000000000000000D+00 0.000000000000000D+00 -.330585352059712D+03
 0.218985864213296D+03 0.594097063490738D+02 0.155545543761689D+01 0.194822124310284D+03
 0.989712591179008D+02 -.367706821575468D+02 0.755374935213253D+02 -.523193476408783D+02
 0.172519404985409D+03 0.114273665963712D+02 0.687647832656010D+02 -.157809267698785D+03
 0.170694175802818D+03 -.340663907878982D+02 -.145857732224543D+03 0.153064910293788D+02
 0.000000000000000D+00 -.000000000000000D+00 -.000000000000000D+00 0.000000000000000D+00
 0.515848813547255D+03 0.000000000000000D+00 0.000000000000000D+00 0.515848813547255D+03
 0.404330688338519D+03 0.000000000000000D+00 0.000000000000000D+00 -.404330688338519D+03
 0.246715717362004D+03 0.127753992325185D+03 0.111663137732547D+02 0.194822124310284D+03
 0.955691563477701D+02 -.822079889641939D+01 0.795522970941888D+02 -.523193476408783D+02
 0.186599063850031D+03 0.641299905607775D+02 0.761760458986666D+02 -.157809267698785D+03
 0.161981660304971D+03 0.147556303943858D+02 -.138992176128069D+03 0.153064910293788D+02
 0.229313904020998D+03 -.198418814383929D+03 -.279024806380407D+02 0.111518125208737D+03
0.173890979372D-04 0.000000000000D+00 0.000000000000D+00 0.655120468326D-08 0.000000000000D+00  7 2 -2 24 -13 13 -24 21 0 0.24080429D+00 0.10741780D-01 0.44885073D+05 0.44885073D+05 0.44885073D+05 0.11514408D+01  1  2  2  1  7  1        2 0.145565456527D-02 0.100000000000D+01
-.733531316304D-06 0.000000000000D+00 -.667787147333D-07 0.655120468326D-08 0.000000000000D+00  7 2 -2 24 -13 13 -24 21 2 0.24080429D+00 0.10741780D-01 0.44885073D+05 0.44885073D+05 0.44885073D+05 0.11514408D+01  1  2  3  1  7  1        2 -.814110190098D-04 0.100000000000D+01
0.107858644643D-05 0.000000000000D+00 0.000000000000D+00 0.655120468326D-08 0.000000000000D+00  7 2 -2 24 -13 13 -24 21 2 0.24080429D+00 0.10741780D-01 0.44885073D+05 0.44885073D+05 0.44885073D+05 0.11514408D+01  1  2 15  1  7  1        2 0.119706984204D-03 0.100000000000D+01
0.368960687995D-07 0.000000000000D+00 0.000000000000D+00 0.655120468326D-08 0.000000000000D+00  7 2 -2 24 -13 13 -24 21 2 0.39043232D+00 0.10741780D-01 0.11990657D+06 0.11990657D+06 0.11990657D+06 0.11153089D+01  1  2 12  1  7  1        2 0.111527122744D-05 0.100000000000D+01
-.846364495407D-05 0.000000000000D+00 0.000000000000D+00 0.655120468326D-08 0.000000000000D+00  7 2 -2 24 -13 13 -24 21 2 0.24080429D+00 0.10741780D-01 0.44885073D+05 0.44885073D+05 0.44885073D+05 0.11514408D+01  1  2  4  1  7  1        2 -.939338164484D-03 0.100000000000D+01
-.640195619141D-05 0.000000000000D+00 -.529302371298D-05 0.655120468326D-08 0.000000000000D+00  7 2 -2 24 -13 13 -24 21 2 0.40553549D+00 0.10741780D-01 0.44885073D+05 0.44885073D+05 0.44885073D+05 0.11514408D+01  1  2  5  1  7  1        2 -.187822435846D-03 0.100000000000D+01
0.861020219824D-05 0.000000000000D+00 0.464732275022D-05 0.655120468326D-08 0.000000000000D+00  7 2 -2 24 -13 13 -24 21 2 0.24080429D+00 0.10741780D-01 0.44885073D+05 0.44885073D+05 0.44885073D+05 0.11514408D+01  1  2  6  1  7  1        2 0.955603829393D-03 0.100000000000D+01
0.202537491894D-08 0.000000000000D+00 0.000000000000D+00 0.655120468326D-08 0.000000000000D+00  7 21 -2 24 -13 13 -24 -2 2 0.39043232D+00 0.10741780D-01 0.11990657D+06 0.11990657D+06 0.11990657D+06 0.11153089D+01  1  2 12  3  7  1        2 0.724313701771D-08 0.100000000000D+01
-.123255208076D-06 0.000000000000D+00 -.308535608265D-06 0.655120468326D-08 0.000000000000D+00  7 21 -2 24 -13 13 -24 -2 2 0.40553549D+00 0.10741780D-01 0.44885073D+05 0.44885073D+05 0.44885073D+05 0.11514408D+01  1  2  5  3  7  1        2 -.410418217829D-06 0.100000000000D+01
  </mgrwgt>
  </event>
  <event>
  8     66 0.26993063E-05 0.62248612E+03 0.75467711E-02 0.86472677E-01
        2 -1    0    0  501    0 0.00000000E+00 0.00000000E+00 0.10290015E+04 0.10290015E+04 0.32000000E+00 0.0000E+00 0.9000E+01
       -2 -1    0    0    0  501 0.00000000E+00 0.00000000E+00 -.59165273E+03 0.59165281E+03 0.32000000E+00 0.0000E+00 0.9000E+01
       25  2    1    2    0    0 0.28646080E+03 0.51002512E+03 -.25874210E+03 0.70614877E+03 0.29918756E+03 0.0000E+00 0.0000E+00
       23  2    1    2    0    0 -.28646080E+03 -.51002512E+03 0.69609086E+03 0.91450558E+03 0.97941596E+02 0.0000E+00 0.0000E+00
       24  1    3    3    0    0 0.10898718E+03 0.29774703E+02 -.49931273E+02 0.14739433E+03 0.80419002E+02 0.0000E+00 0.9000E+01
      -13  1    4    4    0    0 -.36483547E+01 -.34946532E+02 0.17677492E+02 0.39332881E+02 0.10565837E+00 0.0000E+00 0.9000E+01
       13  1    4    4    0    0 -.28281244E+03 -.47507859E+03 0.67841336E+03 0.87517269E+03 0.10565837E+00 0.0000E+00 0.9000E+01
      -24  1    3    3    0    0 0.17747361E+03 0.48025042E+03 -.20881083E+03 0.55875444E+03 0.80419002E+02 0.0000E+00 0.9000E+01
#aMCatNLO 1  0  0  2  1 0.78036825D+03 0.00000000D+00  -5  7  0 0.00000000D+00 0.00000000D+00 0.00000000D+00 0.00000000D+00 0.00000000D+00
  <mgrwgt>
 0.1633068252D-02    3    2    0
 0.780263827759013D+03 0.000000000000000D+00 0.000000000000000D+00 0.780263827759013D+03
 0.780263827759013D+03 0.000000000000000D+00 0.000000000000000D+00 -.780263827759013D+03
 0.167066975082535D+03 0.108987184746864D+03 0.297747032646476D+02 -.931633984744696D+02
 0.358933303233860D+02 -.364803002442167D+01 -.349460199890740D+02 0.733476145268926D+01
 0.718763569858824D+03 -.282812766275939D+03 -.475079099579208D+03 0.459279716219387D+03
 0.638803780253282D+03 0.177473611553496D+03 0.480250416303635D+03 -.373451079197606D+03
 0.000000000000000D+00 0.000000000000000D+00 -.000000000000000D+00 0.000000000000000D+00
 0.203554031318497D+04 0.000000000000000D+00 0.000000000000000D+00 0.203554031318497D+04
 0.100327331110449D+04 0.000000000000000D+00 0.000000000000000D+00 -.100327331110449D+04
 0.195852785877820D+03 0.999548908341957D+02 0.114981297456343D+03 -.931633984744696D+02
 0.229453567796731D+02 -.511239866046416D+01 -.211318255745953D+02 0.733476145268926D+01
 0.582284129365203D+03 -.315193051060367D+03 -.169618071393613D+03 0.459279716219387D+03
 0.943687390463446D+03 0.138088802828027D+03 0.851788969724898D+03 -.373451079197606D+03
 0.129404396180332D+04 0.822617560586090D+02 -.776020370213033D+03 0.103226700208048D+04
0.512032147726D-03 0.000000000000D+00 0.000000000000D+00 0.258462966777D-06 0.000000000000D+00  7 2 -2 24 -13 13 -24 21 0 0.15830793D+00 0.91023507D-01 0.38748897D+06 0.38748897D+06 0.38748897D+06 0.10764239D+01  1  2  2  2  7  2       -2 0.161113838321D-02 0.100000000000D+01
-.266810865259D-04 0.000000000000D+00 -.196633826843D-05 0.258462966777D-06 0.000000000000D+00  7 2 -2 24 -13 13 -24 21 2 0.15830793D+00 0.91023507D-01 0.38748897D+06 0.38748897D+06 0.38748897D+06 0.10764239D+01  1  2  3  2  7  2       -2 -.972760216803D-04 0.100000000000D+01
0.326960602573D-04 0.000000000000D+00 0.000000000000D+00 0.258462966777D-06 0.000000000000D+00  7 2 -2 24 -13 13 -24 21 2 0.15830793D+00 0.91023507D-01 0.38748897D+06 0.38748897D+06 0.38748897D+06 0.10764239D+01  1  2 15  2  7  2       -2 0.119205890036D-03 0.100000000000D+01
  </mgrwgt>
  </event>
  <event>
  8     66 0.26993063E-05 0.13785927E+03 0.75467711E-02 0.98248699E-01
        2 -1    0    0  501    0 0.00000000E+00 0.00000000E+00 0.68011482E+03 0.68011489E+03 0.32000000E+00 0.0000E+00 0.9000E+01
       -2 -1    0    0    0  501 0.00000000E+00 0.00000000E+00 -.20965343E+03 0.20965367E+03 0.32000000E+00 0.0000E+00 0.9000E+01
       25  2    1    2    0    0 -.13693350E+02 0.30156196E+03 0.18457729E+03 0.46379944E+03 0.29985666E+03 0.0000E+00 0.0000E+00
       23  2    1    2    0    0 0.13693350E+02 -.30156196E+03 0.28588410E+03 0.42596913E+03 0.92697665E+02 0.0000E+00 0.0000E+00
       24  1    3    3    0    0 -.54564664E+02 0.85367883E+02 -.43870643E+02 0.13659000E+03 0.80419002E+02 0.0000E+00 0.9000E+01
      -13  1    4    4    0    0 0.18909863E+02 -.65226705E+02 0.11757893E+03 0.13578263E+03 0.10565837E+00 0.0000E+00 0.9000E+01
       13  1    4    4    0    0 -.52165131E+01 -.23633526E+03 0.16830517E+03 0.29018651E+03 0.10565837E+00 0.0000E+00 0.9000E+01
      -24  1    3    3    0    0 0.40871314E+02 0.21619408E+03 0.22844793E+03 0.32720944E+03 0.80419002E+02 0.0000E+00 0.9000E+01
#aMCatNLO 1  0  0  2  1 0.62184733D+02 0.00000000D+00  -5  7  0 0.00000000D+00 0.00000000D+00 0.00000000D+00 0.00000000D+00 0.00000000D+00
  <mgrwgt>
 0.9171341933D-03    9    2    0
 0.377608985935773D+03 0.000000000000000D+00 0.000000000000000D+00 0.377608985935773D+03
 0.377608985935773D+03 0.000000000000000D+00 0.000000000000000D+00 -.377608985935773D+03
 0.188254166177820D+03 -.545646641374566D+02 0.853678833276172D+02 -.136775133166320D+03
 0.867280987568638D+02 0.189098943101984D+02 -.652264824590377D+02 0.539414960598823D+02
 0.237041358010639D+03 -.521654420585590D+01 -.236335479443824D+03 0.175195385251438D+02
 0.243194348926224D+03 0.408713140331141D+02 0.216194078575244D+03 0.653140985812936D+02
 0.000000000000000D+00 0.000000000000000D+00 -.000000000000000D+00 -.000000000000000D+00
 0.402889366467769D+03 0.000000000000000D+00 0.000000000000000D+00 0.402889366467769D+03
 0.419163391017461D+03 0.000000000000000D+00 0.000000000000000D+00 -.419163391017461D+03
 0.197092122829588D+03 -.605019336391672D+02 0.100050826585093D+03 -.136775133166320D+03
 0.814588148464066D+02 0.163185341201322D+02 -.588180156344376D+02 0.539414960598823D+02
 0.219963807558331D+03 -.122579065053244D+02 -.218922100605515D+03 0.175195385251438D+02
 0.259259050855751D+03 0.331297025743905D+02 0.235339182521951D+03 0.653140985812936D+02
 0.642789613951530D+02 0.233116034499689D+02 -.576498928670905D+02 -.162740245496915D+02
0.134291608481D-04 0.000000000000D+00 0.000000000000D+00 0.105635654287D-05 0.000000000000D+00  7 2 -2 24 -13 13 -24 21 0 0.10463307D+00 0.32254398D-01 0.11152858D+06 0.11152858D+06 0.11152858D+06 0.11178541D+01  1  2  2  2  7  2       -2 0.618850414057D-03 0.100000000000D+01
-.732376316985D-06 0.000000000000D+00 -.515715136359D-07 0.105635654287D-05 0.000000000000D+00  7 2 -2 24 -13 13 -24 21 2 0.10463307D+00 0.32254398D-01 0.11152858D+06 0.11152858D+06 0.11152858D+06 0.11178541D+01  1  2  3  2  7  2       -2 -.421736640339D-04 0.100000000000D+01
0.842009975022D-06 0.000000000000D+00 0.000000000000D+00 0.105635654287D-05 0.000000000000D+00  7 2 -2 24 -13 13 -24 21 2 0.10463307D+00 0.32254398D-01 0.11152858D+06 0.11152858D+06 0.11152858D+06 0.11178541D+01  1  2 15  2  7  2       -2 0.484868843738D-04 0.100000000000D+01
0.170070080537D-04 0.000000000000D+00 0.000000000000D+00 0.105635654287D-05 0.000000000000D+00  7 2 -2 24 -13 13 -24 21 2 0.10463307D+00 0.36786892D-01 0.13516450D+06 0.13516450D+06 0.13516450D+06 0.11111389D+01  1  2 12  2  7  2       -2 0.761114242573D-03 0.100000000000D+01
-.155995850455D-04 0.000000000000D+00 0.000000000000D+00 0.105635654287D-05 0.000000000000D+00  7 2 -2 24 -13 13 -24 21 2 0.10463307D+00 0.32254398D-01 0.11152858D+06 0.11152858D+06 0.11152858D+06 0.11178541D+01  1  2  4  2  7  2       -2 -.898297287226D-03 0.100000000000D+01
-.440454649741D-04 0.000000000000D+00 -.111178163274D-04 0.105635654287D-05 0.000000000000D+00  7 2 -2 24 -13 13 -24 21 2 0.10463307D+00 0.38021470D-01 0.11152858D+06 0.11152858D+06 0.11152858D+06 0.11178541D+01  1  2  5  2  7  2       -2 -.188318723963D-02 0.100000000000D+01
0.454073218127D-04 0.000000000000D+00 0.109690745707D-04 0.105635654287D-05 0.000000000000D+00  7 2 -2 24 -13 13 -24 21 2 0.10463307D+00 0.32254398D-01 0.11152858D+06 0.11152858D+06 0.11152858D+06 0.11178541D+01  1  2  6  2  7  2       -2 0.261476660345D-02 0.100000000000D+01
0.348271572063D-06 0.000000000000D+00 0.000000000000D+00 0.105635654287D-05 0.000000000000D+00  7 2 21 24 -13 13 -24 2 2 0.10463307D+00 0.36786892D-01 0.13516450D+06 0.13516450D+06 0.13516450D+06 0.11111389D+01  1  2 12  4  7  2       -2 0.176297256663D-03 0.100000000000D+01
-.990965859586D-06 0.000000000000D+00 -.273101786767D-06 0.105635654287D-05 0.000000000000D+00  7 2 21 24 -13 13 -24 2 2 0.10463307D+00 0.38021470D-01 0.11152858D+06 0.11152858D+06 0.11152858D+06 0.11178541D+01  1  2  5  4  7  2       -2 -.478723016959D-03 0.100000000000D+01
  </mgrwgt>
  </event>
  <event>
  8     66 -.26993063E-05 0.13895561E+03 0.75467711E-02 0.99755874E-01
        2 -1    0    0  501    0 0.00000000E+00 0.00000000E+00 0.11462861E+04 0.11462862E+04 0.32000000E+00 0.0000E+00 0.9000E+01
       -2 -1    0    0    0  501 0.00000000E+00 0.00000000E+00 -.57745342E+02 0.57746229E+02 0.32000000E+00 0.0000E+00 0.9000E+01
       25  2    1    2    0    0 -.10619312E+03 -.56527887E+02 0.93277107E+03 0.98717831E+03 0.29997794E+03 0.0000E+00 0.0000E+00
       23  2    1    2    0    0 0.10619312E+03 0.56527887E+02 0.15576972E+03 0.21685409E+03 0.91044560E+02 0.0000E+00 0.0000E+00
       24  1    3    3    0    0 -.14820174E+03 -.12314867E+03 0.55423969E+03 0.59226532E+03 0.80419002E+02 0.0000E+00 0.9000E+01
      -13  1    4    4    0    0 -.14816638E+02 -.24439713E+01 0.25098284E+02 0.29247919E+02 0.10565837E+00 0.0000E+00 0.9000E+01
       13  1    4    4    0    0 0.12100976E+03 0.58971858E+02 0.13067143E+03 0.18760617E+03 0.10565837E+00 0.0000E+00 0.9000E+01
      -24  1    3    3    0    0 0.42008622E+02 0.66620784E+02 0.37853138E+03 0.39491300E+03 0.80419002E+02 0.0000E+00 0.9000E+01
#aMCatNLO 1  0  0  2  1 0.15295679D+03 0.00000000D+00  -5  7  0 0.00000000D+00 0.00000000D+00 0.00000000D+00 0.00000000D+00 0.00000000D+00
  <mgrwgt>
 -.7008873399D-03    7    2    0
 0.257280480209010D+03 0.000000000000000D+00 0.000000000000000D+00 0.257280480209010D+03
 0.257280480209010D+03 0.000000000000000D+00 0.000000000000000D+00 -.257280480209010D+03
 0.213374369243327D+03 -.148201742796213D+03 -.123148670856191D+03 0.439551338768933D+02
 0.153428553912299D+02 -.148168203872628D+02 -.244405380526048D+01 -.314509875278608D+01
 0.162551838342488D+03 0.121009942582097D+03 0.589719415625386D+02 -.911153337981289D+02
 0.123291897440976D+03 0.420086206013795D+02 0.666207830989132D+02 0.503052986740217D+02
 0.000000000000000D+00 0.000000000000000D+00 -.000000000000000D+00 -.000000000000000D+00
 0.272057513461133D+03 0.000000000000000D+00 0.000000000000000D+00 0.272057513461133D+03
 0.187052827532039D+04 0.000000000000000D+00 0.000000000000000D+00 -.187052827532039D+04
 0.189270334324778D+03 -.152429795746645D+03 -.647236206924725D+02 0.439551338768933D+02
 0.155996540954767D+02 -.151417385281688D+02 0.204580450637728D+01 -.314509875278608D+01
 0.184469274683765D+03 0.117365976505328D+03 0.109325828641545D+03 -.911153337981289D+02
 0.147474263756937D+03 0.391653852214408D+02 0.105909829770677D+03 0.503052986740217D+02
 0.160577226192057D+04 0.110401725480445D+02 -.152557842226126D+03 -.159847076185926D+04
0.591505428242D-05 0.000000000000D+00 0.000000000000D+00 0.104314175243D-05 0.000000000000D+00  7 2 -2 24 -13 13 -24 21 0 0.17635178D+00 0.88839704D-02 0.55458334D+05 0.55458334D+05 0.55458334D+05 0.11433584D+01  1  2  2  2  7  2       -2 0.111762839328D-02 0.100000000000D+01
-.325486669806D-06 0.000000000000D+00 -.227153659141D-07 0.104314175243D-05 0.000000000000D+00  7 2 -2 24 -13 13 -24 21 2 0.17635178D+00 0.88839704D-02 0.55458334D+05 0.55458334D+05 0.55458334D+05 0.11433584D+01  1  2  3  2  7  2       -2 -.803964127702D-04 0.100000000000D+01
0.382773522427D-06 0.000000000000D+00 0.000000000000D+00 0.104314175243D-05 0.000000000000D+00  7 2 -2 24 -13 13 -24 21 2 0.17635178D+00 0.88839704D-02 0.55458334D+05 0.55458334D+05 0.55458334D+05 0.11433584D+01  1  2 15  2  7  2       -2 0.945464775097D-04 0.100000000000D+01
0.290965871404D-04 0.000000000000D+00 0.000000000000D+00 0.104314175243D-05 0.000000000000D+00  7 2 -2 24 -13 13 -24 21 2 0.17635178D+00 0.62367356D-01 0.10606648D+06 0.10606648D+06 0.10606648D+06 0.11196291D+01  1  2 12  2  7  2       -2 0.237419536040D-03 0.100000000000D+01
-.955667783038D-04 0.000000000000D+00 -.328535276508D-05 0.104314175243D-05 0.000000000000D+00  7 2 -2 24 -13 13 -24 21 2 0.17635178D+00 0.66135602D-01 0.55458334D+05 0.55458334D+05 0.55458334D+05 0.11433584D+01  1  2  5  2  7  2       -2 -.738507563101D-03 0.100000000000D+01
0.693034011461D-05 0.000000000000D+00 0.000000000000D+00 0.104314175243D-05 0.000000000000D+00  7 2 21 24 -13 13 -24 2 2 0.17635178D+00 0.62367356D-01 0.10606648D+06 0.10606648D+06 0.10606648D+06 0.11196291D+01  1  2 12  4  7  2       -2 0.584432890874D-03 0.100000000000D+01
-.237345173275D-04 0.000000000000D+00 -.803965972043D-06 0.104314175243D-05 0.000000000000D+00  7 2 21 24 -13 13 -24 2 2 0.17635178D+00 0.66135602D-01 0.55458334D+05 0.55458334D+05 0.55458334D+05 0.11433584D+01  1  2  5  4  7  2       -2 -.191601066169D-02 0.100000000000D+01
  </mgrwgt>
  </event>
  <event>
  8     66 0.26993063E-05 0.19832414E+03 0.75467711E-02 0.98114440E-01
        2 -1    0    0  501    0 0.00000000E+00 0.00000000E+00 0.51159573E+03 0.51159583E+03 0.32000000E+00 0.0000E+00 0.9000E+01
       -2 -1    0    0    0  501 0.00000000E+00 0.00000000E+00 -.29950661E+03 0.29950678E+03 0.32000000E+00 0.0000E+00 0.9000E+01
       25  2    1    2    0    0 -.11238074E+03 0.29972370E+03 0.18654819E+03 0.47701406E+03 0.30046373E+03 0.0000E+00 0.0000E+00
       23  2    1    2    0    0 0.11238074E+03 -.29972370E+03 0.25540932E+02 0.33408855E+03 0.92190516E+02 0.0000E+00 0.0000E+00
       24  1    3    3    0    0 -.12247024E+03 0.84134108E+02 -.16781365E+02 0.16978321E+03 0.80419002E+02 0.0000E+00 0.9000E+01
      -13  1    4    4    0    0 0.12369725E+03 -.28709336E+03 0.12787057E+02 0.31286919E+03 0.10565837E+00 0.0000E+00 0.9000E+01
       13  1    4    4    0    0 -.11316510E+02 -.12630346E+02 0.12753875E+02 0.21219367E+02 0.10565837E+00 0.0000E+00 0.9000E+01
      -24  1    3    3    0    0 0.10089496E+02 0.21558960E+03 0.20332955E+03 0.30723085E+03 0.80419002E+02 0.0000E+00 0.9000E+01
#aMCatNLO 1  0  0  2  1 0.14236559D+02 0.00000000D+00  -5  7  0 0.00000000D+00 0.00000000D+00 0.00000000D+00 0.00000000D+00 0.00000000D+00
  <mgrwgt>
 0.9223097160D-03    9    2    0
 0.391441454576945D+03 0.000000000000000D+00 0.000000000000000D+00 0.391441454576945D+03
 0.391441454576945D+03 0.000000000000000D+00 0.000000000000000D+00 -.391441454576945D+03
 0.180449396138240D+03 -.122470239166482D+03 0.841341080969223D+02 -.633818663777350D+02
 0.320683112395690D+03 0.123697430901075D+03 -.287093719157664D+03 -.715108424260336D+02
 0.185287159716229D+02 -.113166876075753D+02 -.126299853186982D+02 0.746521051271114D+01
 0.263221684648337D+03 0.100894958729826D+02 0.215589596379440D+03 0.127427498291057D+03
 0.000000000000000D+00 -.000000000000000D+00 -.000000000000000D+00 -.000000000000000D+00
 0.394593596988635D+03 0.000000000000000D+00 0.000000000000000D+00 0.394593596988635D+03
 0.407917870803981D+03 0.000000000000000D+00 0.000000000000000D+00 -.407917870803981D+03
 0.179437540893812D+03 -.119721032217254D+03 0.859082568031631D+02 -.633818663777350D+02
 0.319795329173021D+03 0.128590100240264D+03 -.283936327539465D+03 -.715108424260336D+02
 0.182343313846753D+02 -.110358515591756D+02 -.124487530865907D+02 0.746521051271114D+01
 0.265545141392657D+03 0.141287906711253D+02 0.218196278878283D+03 0.127427498291057D+03
 0.194991249484513D+02 -.119620071349592D+02 -.771945505539014D+01 -.133242738153459D+02
0.166313785001D-04 0.000000000000D+00 0.000000000000D+00 0.124950696881D-05 0.000000000000D+00  7 2 -2 24 -13 13 -24 21 0 0.78707056D-01 0.46077961D-01 0.13280178D+06 0.13280178D+06 0.13280178D+06 0.11117498D+01  1  2  2  2  7  2       -2 0.549054593686D-03 0.100000000000D+01
-.918217591051D-06 0.000000000000D+00 -.638688725827D-07 0.124950696881D-05 0.000000000000D+00  7 2 -2 24 -13 13 -24 21 2 0.78707056D-01 0.46077961D-01 0.13280178D+06 0.13280178D+06 0.13280178D+06 0.11117498D+01  1  2  3  2  7  2       -2 -.374668352220D-04 0.100000000000D+01
0.104652913977D-05 0.000000000000D+00 0.000000000000D+00 0.124950696881D-05 0.000000000000D+00  7 2 -2 24 -13 13 -24 21 2 0.78707056D-01 0.46077961D-01 0.13280178D+06 0.13280178D+06 0.13280178D+06 0.11117498D+01  1  2 15  2  7  2       -2 0.427024435350D-04 0.100000000000D+01
0.673830605991D-04 0.000000000000D+00 0.000000000000D+00 0.124950696881D-05 0.000000000000D+00  7 2 -2 24 -13 13 -24 21 2 0.78707056D-01 0.48198144D-01 0.13816604D+06 0.13816604D+06 0.13816604D+06 0.11103794D+01  1  2 12  2  7  2       -2 0.251226792230D-02 0.100000000000D+01
-.683184602884D-04 0.000000000000D+00 0.000000000000D+00 0.124950696881D-05 0.000000000000D+00  7 2 -2 24 -13 13 -24 21 2 0.78707056D-01 0.46077961D-01 0.13280178D+06 0.13280178D+06 0.13280178D+06 0.11117498D+01  1  2  4  2  7  2       -2 -.278765787020D-02 0.100000000000D+01
-.365661683461D-03 0.000000000000D+00 -.438945976944D-04 0.124950696881D-05 0.000000000000D+00  7 2 -2 24 -13 13 -24 21 2 0.78707056D-01 0.48316152D-01 0.13280178D+06 0.13280178D+06 0.13280178D+06 0.11117498D+01  1  2  5  2  7  2       -2 -.136097316437D-01 0.100000000000D+01
0.367379656411D-03 0.000000000000D+00 0.438452688007D-04 0.124950696881D-05 0.000000000000D+00  7 2 -2 24 -13 13 -24 21 2 0.78707056D-01 0.46077961D-01 0.13280178D+06 0.13280178D+06 0.13280178D+06 0.11117498D+01  1  2  6  2  7  2       -2 0.149905133433D-01 0.100000000000D+01
0.115331019914D-05 0.000000000000D+00 0.000000000000D+00 0.124950696881D-05 0.000000000000D+00  7 2 21 24 -13 13 -24 2 2 0.78707056D-01 0.48198144D-01 0.13816604D+06 0.13816604D+06 0.13816604D+06 0.11103794D+01  1  2 12  4  7  2       -2 0.461821971363D-03 0.100000000000D+01
-.299777118679D-05 0.000000000000D+00 -.364043416420D-06 0.124950696881D-05 0.000000000000D+00  7 2 21 24 -13 13 -24 2 2 0.78707056D-01 0.48316152D-01 0.13280178D+06 0.13280178D+06 0.13280178D+06 0.11117498D+01  1  2  5  4  7  2       -2 -.119919420895D-02 0.100000000000D+01
  </mgrwgt>
  </event>
  <event>
  8     66 0.26993063E-05 0.22190210E+03 0.75467711E-02 0.93609610E-01
        2 -1    0    0  501    0 0.00000000E+00 0.00000000E+00 0.11206440E+04 0.11206440E+04 0.32000000E+00 0.0000E+00 0.9000E+01
       -2 -1    0    0    0  501 0.00000000E+00 0.00000000E+00 -.23135073E+03 0.23135096E+03 0.32000000E+00 0.0000E+00 0.9000E+01
       25  2    1    2    0    0 -.41386472E+03 0.18250635E+03 0.35211610E+03 0.64402985E+03 0.29359177E+03 0.0000E+00 0.0000E+00
       23  2    1    2    0    0 0.41386472E+03 -.18250635E+03 0.53717716E+03 0.70796515E+03 0.89792945E+02 0.0000E+00 0.0000E+00
       24  1    3    3    0    0 -.15159600E+02 -.20632406E+02 0.48674131E+02 0.97426365E+02 0.80419002E+02 0.0000E+00 0.9000E+01
      -11  1    4    4    0    0 0.32038989E+03 -.16593218E+03 0.46577749E+03 0.58917896E+03 0.51099893E-03 0.0000E+00 0.9000E+01
       11  1    4    4    0    0 0.93474823E+02 -.16574172E+02 0.71399669E+02 0.11878619E+03 0.51099893E-03 0.0000E+00 0.9000E+01
      -24  1    3    3    0    0 -.39870512E+03 0.20313876E+03 0.30344197E+03 0.54660348E+03 0.80419002E+02 0.0000E+00 0.9000E+01
#aMCatNLO 1  0  0  2  1 0.95316436D+02 0.00000000D+00  -5  7  0 0.00000000D+00 0.00000000D+00 0.00000000D+00 0.00000000D+00 0.00000000D+00
  <mgrwgt>
 0.2424244605D-02    9    2    0
 0.509177760237256D+03 0.000000000000000D+00 0.000000000000000D+00 0.509177760237256D+03
 0.509177760237256D+03 0.000000000000000D+00 0.000000000000000D+00 -.509177760237256D+03
 0.868403813139115D+02 -.151596004053085D+02 -.206324061930755D+02 -.204579129583232D+02
 0.375462410379834D+03 0.320389894144422D+03 -.165932179422545D+03 0.103869385145213D+03
 0.953528365460252D+02 0.934748231668725D+02 -.165741724220121D+02 -.893966888762365D+01
 0.460699892234742D+03 -.398705116905986D+03 0.203138758037633D+03 -.744718032992662D+02
 0.000000000000000D+00 0.000000000000000D+00 0.000000000000000D+00 -.000000000000000D+00
 0.552155721832388D+03 0.000000000000000D+00 0.000000000000000D+00 0.552155721832388D+03
 0.567137464441270D+03 0.000000000000000D+00 0.000000000000000D+00 -.567137464441270D+03
 0.895196712648111D+02 -.179732758193940D+02 -.283723587792587D+02 -.204579129583232D+02
 0.381454465961195D+03 0.308313925837957D+03 -.199151157580574D+03 0.103869385145213D+03
 0.942384289656930D+02 0.904500549458630D+02 -.248948061730150D+02 -.893966888762365D+01
 0.457593959563455D+03 -.413355718308802D+03 0.162837392908878D+03 -.744718032992662D+02
 0.964866605185032D+02 0.325650133443755D+02 0.895809296239704D+02 -.149817426088824D+02
0.799343883232D-04 0.000000000000D+00 0.000000000000D+00 0.134979789108D-07 0.000000000000D+00  7 2 -2 24 -11 11 -24 21 0 0.17240679D+00 0.35592441D-01 0.24739633D+06 0.24739633D+06 0.24739633D+06 0.10908013D+01  1  2  2  2  7  2       -2 0.155991830874D-02 0.100000000000D+01
-.443783687518D-05 0.000000000000D+00 -.306969098369D-06 0.134979789108D-07 0.000000000000D+00  7 2 -2 24 -11 11 -24 21 2 0.17240679D+00 0.35592441D-01 0.24739633D+06 0.24739633D+06 0.24739633D+06 0.10908013D+01  1  2  3  2  7  2       -2 -.103045930619D-03 0.100000000000D+01
0.507007779799D-05 0.000000000000D+00 0.000000000000D+00 0.134979789108D-07 0.000000000000D+00  7 2 -2 24 -11 11 -24 21 2 0.17240679D+00 0.35592441D-01 0.24739633D+06 0.24739633D+06 0.24739633D+06 0.10908013D+01  1  2 15  2  7  2       -2 0.117726473437D-03 0.100000000000D+01
0.818408582996D-04 0.000000000000D+00 0.000000000000D+00 0.134979789108D-07 0.000000000000D+00  7 2 -2 24 -11 11 -24 21 2 0.17240679D+00 0.40998773D-01 0.29965458D+06 0.29965458D+06 0.29965458D+06 0.10845889D+01  1  2 12  2  7  2       -2 0.143612180063D-02 0.100000000000D+01
-.718701584552D-04 0.000000000000D+00 0.000000000000D+00 0.134979789108D-07 0.000000000000D+00  7 2 -2 24 -11 11 -24 21 2 0.17240679D+00 0.35592441D-01 0.24739633D+06 0.24739633D+06 0.24739633D+06 0.10908013D+01  1  2  4  2  7  2       -2 -.166881468834D-02 0.100000000000D+01
-.222872216113D-03 0.000000000000D+00 -.591337439326D-04 0.134979789108D-07 0.000000000000D+00  7 2 -2 24 -11 11 -24 21 2 0.17240679D+00 0.42871796D-01 0.24739633D+06 0.24739633D+06 0.24739633D+06 0.10908013D+01  1  2  5  2  7  2       -2 -.365491508817D-02 0.100000000000D+01
0.230876374613D-03 0.000000000000D+00 0.581245240753D-04 0.134979789108D-07 0.000000000000D+00  7 2 -2 24 -11 11 -24 21 2 0.17240679D+00 0.35592441D-01 0.24739633D+06 0.24739633D+06 0.24739633D+06 0.10908013D+01  1  2  6  2  7  2       -2 0.536091603840D-02 0.100000000000D+01
0.177938008031D-05 0.000000000000D+00 0.000000000000D+00 0.134979789108D-07 0.000000000000D+00  7 2 21 24 -11 11 -24 2 2 0.17240679D+00 0.40998773D-01 0.29965458D+06 0.29965458D+06 0.29965458D+06 0.10845889D+01  1  2 12  4  7  2       -2 0.338447505352D-03 0.100000000000D+01
-.543124502910D-05 0.000000000000D+00 -.160053126558D-05 0.134979789108D-07 0.000000000000D+00  7 2 21 24 -11 11 -24 2 2 0.17240679D+00 0.42871796D-01 0.24739633D+06 0.24739633D+06 0.24739633D+06 0.10908013D+01  1  2  5  4  7  2       -2 -.962109814656D-03 0.100000000000D+01
  </mgrwgt>
  </event>
  <event>
  8     66 0.26993063E-05 0.73359729E+03 0.75467711E-02 0.86734601E-01
        2 -1    0    0  501    0 0.00000000E+00 0.00000000E+00 0.81320793E+03 0.81320800E+03 0.32000000E+00 0.0000E+00 0.9000E+01
       -2 -1    0    0    0  501 0.00000000E+00 0.00000000E+00 -.13222859E+04 0.13222859E+04 0.32000000E+00 0.0000E+00 0.9000E+01
       25  2    1    2    0    0 0.46307057E+02 -.10106077E+04 -.20535030E+03 0.10752862E+04 0.30099744E+03 0.0000E+00 0.0000E+00
       23  2    1    2    0    0 -.46307057E+02 0.10106077E+04 -.30372764E+03 0.10602077E+04 0.91201118E+02 0.0000E+00 0.0000E+00
       24  1    3    3    0    0 -.37818602E+02 -.80665153E+03 -.99159840E+02 0.81756763E+03 0.80419002E+02 0.0000E+00 0.9000E+01
      -13  1    4    4    0    0 -.64559580E+02 0.61232400E+03 -.21096510E+03 0.65085705E+03 0.10565837E+00 0.0000E+00 0.9000E+01
       13  1    4    4    0    0 0.18252523E+02 0.39828369E+03 -.92762542E+02 0.40935065E+03 0.10565837E+00 0.0000E+00 0.9000E+01
      -24  1    3    3    0    0 0.84125658E+02 -.20395616E+03 -.10619046E+03 0.25771859E+03 0.80419002E+02 0.0000E+00 0.9000E+01
#aMCatNLO 1  0  0  2  1 0.76534650D+02 0.00000000D+00  -5  7  0 0.00000000D+00 0.00000000D+00 0.00000000D+00 0.00000000D+00 0.00000000D+00
  <mgrwgt>
 0.5601553227D-03    9    2    0
 0.103696358289234D+04 0.000000000000000D+00 0.000000000000000D+00 0.103696358289234D+04
 0.103696358289234D+04 0.000000000000000D+00 0.000000000000000D+00 -.103696358289234D+04
 0.817497658807998D+03 -.378186018112525D+02 -.806651528952624D+03 0.985812882732953D+02
 0.618394041501530D+03 -.645596910332819D+02 0.612324284096703D+03 -.574648411095238D+02
 0.398732341512567D+03 0.182526344874958D+02 0.398283400466859D+03 0.496532122983289D+01
 0.239303123962582D+03 0.841256583570386D+02 -.203956155610938D+03 -.460817683936043D+02
 0.000000000000000D+00 -.000000000000000D+00 0.000000000000000D+00 -.000000000000000D+00
 0.105892985823211D+04 0.000000000000000D+00 0.000000000000000D+00 0.105892985823211D+04
 0.110654804307522D+04 0.000000000000000D+00 0.000000000000000D+00 -.110654804307522D+04
 0.847547009143754D+03 -.348436101904859D+02 -.837219427142862D+03 0.985812882732953D+02
 0.596093705755603D+03 -.623897247007520D+02 0.590027982666474D+03 -.574648411095238D+02
 0.384440170483464D+03 0.196519553019152D+02 0.383905445284710D+03 0.496532122983289D+01
 0.247257988561817D+03 0.849950135524951D+02 -.212888739124911D+03 -.460817683936043D+02
 0.901390273626977D+02 -.741363396317232D+01 0.761747383165901D+02 -.476181848431069D+02
0.564414070977D-03 0.000000000000D+00 0.000000000000D+00 0.269735633055D-05 0.000000000000D+00  7 2 -2 24 -13 13 -24 21 0 0.12510892D+00 0.20342860D+00 0.10616994D+07 0.10616994D+07 0.10616994D+07 0.10461375D+01  1  2  2  2  7  2       -2 0.263759235290D-03 0.100000000000D+01
-.313547944711D-04 0.000000000000D+00 -.216749864619D-05 0.269735633055D-05 0.000000000000D+00  7 2 -2 24 -13 13 -24 21 2 0.12510892D+00 0.20342860D+00 0.10616994D+07 0.10616994D+07 0.10616994D+07 0.10461375D+01  1  2  3  2  7  2       -2 -.160358260282D-04 0.100000000000D+01
0.355090873067D-04 0.000000000000D+00 0.000000000000D+00 0.269735633055D-05 0.000000000000D+00  7 2 -2 24 -13 13 -24 21 2 0.12510892D+00 0.20342860D+00 0.10616994D+07 0.10616994D+07 0.10616994D+07 0.10461375D+01  1  2 15  2  7  2       -2 0.181604617755D-04 0.100000000000D+01
0.174586795809D-02 0.000000000000D+00 0.000000000000D+00 0.269735633055D-05 0.000000000000D+00  7 2 -2 24 -13 13 -24 21 2 0.12510892D+00 0.21913480D+00 0.11438092D+07 0.11438092D+07 0.11438092D+07 0.10440015D+01  1  2 12  2  7  2       -2 0.692541954931D-03 0.100000000000D+01
-.172876969399D-02 0.000000000000D+00 0.000000000000D+00 0.269735633055D-05 0.000000000000D+00  7 2 -2 24 -13 13 -24 21 2 0.12510892D+00 0.20342860D+00 0.10616994D+07 0.10616994D+07 0.10616994D+07 0.10461375D+01  1  2  4  2  7  2       -2 -.884147082552D-03 0.100000000000D+01
-.514584957845D-02 0.000000000000D+00 -.791421296535D-03 0.269735633055D-05 0.000000000000D+00  7 2 -2 24 -13 13 -24 21 2 0.12510892D+00 0.21943332D+00 0.10616994D+07 0.10616994D+07 0.10616994D+07 0.10461375D+01  1  2  5  2  7  2       -2 -.204919442630D-02 0.100000000000D+01
0.519315086776D-02 0.000000000000D+00 0.789157095730D-03 0.269735633055D-05 0.000000000000D+00  7 2 -2 24 -13 13 -24 21 2 0.12510892D+00 0.20342860D+00 0.10616994D+07 0.10616994D+07 0.10616994D+07 0.10461375D+01  1  2  6  2  7  2       -2 0.265594035165D-02 0.100000000000D+01
0.228575050675D-04 0.000000000000D+00 0.000000000000D+00 0.269735633055D-05 0.000000000000D+00  7 2 21 24 -13 13 -24 2 2 0.12510892D+00 0.21913480D+00 0.11438092D+07 0.11438092D+07 0.11438092D+07 0.10440015D+01  1  2 12  4  7  2       -2 0.666737545469D-04 0.100000000000D+01
-.639104184246D-04 0.000000000000D+00 -.100669871860D-04 0.269735633055D-05 0.000000000000D+00  7 2 21 24 -13 13 -24 2 2 0.12510892D+00 0.21943332D+00 0.10616994D+07 0.10616994D+07 0.10616994D+07 0.10461375D+01  1  2  5  4  7  2       -2 -.187543100620D-03 0.100000000000D+01
  </mgrwgt>
  </event>
  <event>
  8     66 0.26993063E-05 0.30384539E+03 0.75467711E-02 0.92976437E-01
        2 -1    0    0  501    0 0.00000000E+00 0.00000000E+00 0.27136860E+04 0.27136860E+04 0.32000000E+00 0.0000E+00 0.9000E+01
       -2 -1    0    0    0  501 0.00000000E+00 0.00000000E+00 -.19857460E+03 0.19857486E+03 0.32000000E+00 0.0000E+00 0.9000E+01
       25  2    1    2    0    0 -.48057488E+03 0.10595139E+03 0.22938756E+04 0.23651387E+04 0.29972913E+03 0.0000E+00 0.0000E+00
       23  2    1    2    0    0 0.48057488E+03 -.10595139E+03 0.22123577E+03 0.54712222E+03 0.90661711E+02 0.0000E+00 0.0000E+00
       24  1    3    3    0    0 -.18299699E+02 0.64625639E+02 0.45219695E+03 0.46417739E+03 0.80419002E+02 0.0000E+00 0.9000E+01
      -13  1    4    4    0    0 0.36944875E+03 -.84600403E+02 0.12656781E+03 0.39958607E+03 0.10565837E+00 0.0000E+00 0.9000E+01
       13  1    4    4    0    0 0.11112613E+03 -.21350985E+02 0.94667959E+02 0.14753615E+03 0.10565837E+00 0.0000E+00 0.9000E+01
      -24  1    3    3    0    0 -.46227518E+03 0.41325749E+02 0.18416787E+04 0.19009613E+04 0.80419002E+02 0.0000E+00 0.9000E+01
#aMCatNLO 1  0  0  2  1 0.91871044D+02 0.00000000D+00  -5  7  0 0.00000000D+00 0.00000000D+00 0.00000000D+00 0.00000000D+00 0.00000000D+00
  <mgrwgt>
 0.7746182338D-03    9    2    0
 0.734077324556330D+03 0.000000000000000D+00 0.000000000000000D+00 0.734077324556330D+03
 0.734077324556330D+03 0.000000000000000D+00 0.000000000000000D+00 -.734077324556330D+03
 0.146088119489547D+03 -.182996988950206D+02 0.646256392649638D+02 0.101799658504182D+03
 0.575802851771985D+03 0.369449103485541D+03 -.846004888102975D+02 -.433473230240968D+03
 0.130478353487182D+03 0.111125779421763D+03 -.213508989657581D+02 -.649599953046915D+02
 0.615785324363945D+03 -.462275184012284D+03 0.413257485110918D+02 0.396633567041477D+03
 0.000000000000000D+00 0.000000000000000D+00 0.000000000000000D+00 -.000000000000000D+00
 0.759890539812842D+03 0.000000000000000D+00 0.000000000000000D+00 0.759890539812842D+03
 0.822071718275666D+03 0.000000000000000D+00 0.000000000000000D+00 -.822071718275666D+03
 0.145712588523018D+03 -.265752941541814D+02 0.607908362235497D+02 0.101799658504182D+03
 0.558178917496907D+03 0.337288886268617D+03 -.995031145349519D+02 -.433473230240968D+03
 0.124985977767685D+03 0.103880699644485D+03 -.247081745568330D+02 -.649599953046915D+02
 0.642148811870130D+03 -.497950744380379D+03 0.247941585626491D+02 0.396633567041477D+03
 0.110935962430768D+03 0.833564526214585D+02 0.386262943055860D+02 -.621811784628247D+02
0.184455738196D-03 0.000000000000D+00 0.000000000000D+00 0.141442500619D-04 0.000000000000D+00  7 2 -2 24 -13 13 -24 21 0 0.41749017D+00 0.30549960D-01 0.28514695D+06 0.28514695D+06 0.28514695D+06 0.10861872D+01  1  2  2  2  7  2       -2 0.602787107836D-03 0.100000000000D+01
-.898572677472D-05 0.000000000000D+00 -.708358602986D-06 0.141442500619D-04 0.000000000000D+00  7 2 -2 24 -13 13 -24 21 2 0.41749017D+00 0.30549960D-01 0.28514695D+06 0.28514695D+06 0.28514695D+06 0.10861872D+01  1  2  3  2  7  2       -2 -.346445038359D-04 0.100000000000D+01
0.116234201765D-04 0.000000000000D+00 0.000000000000D+00 0.141442500619D-04 0.000000000000D+00  7 2 -2 24 -13 13 -24 21 2 0.41749017D+00 0.30549960D-01 0.28514695D+06 0.28514695D+06 0.28514695D+06 0.10861872D+01  1  2 15  2  7  2       -2 0.448141408021D-04 0.100000000000D+01
0.383506063497D-03 0.000000000000D+00 0.000000000000D+00 0.141442500619D-04 0.000000000000D+00  7 2 -2 24 -13 13 -24 21 2 0.41749017D+00 0.34704131D-01 0.33615404D+06 0.33615404D+06 0.33615404D+06 0.10809146D+01  1  2 12  2  7  2       -2 0.115172471858D-02 0.100000000000D+01
-.385224540892D-03 0.000000000000D+00 0.000000000000D+00 0.141442500619D-04 0.000000000000D+00  7 2 -2 24 -13 13 -24 21 2 0.41749017D+00 0.30549960D-01 0.28514695D+06 0.28514695D+06 0.28514695D+06 0.10861872D+01  1  2  4  2  7  2       -2 -.148523468598D-02 0.100000000000D+01
-.741429271776D-03 0.000000000000D+00 -.162991219775D-03 0.141442500619D-04 0.000000000000D+00  7 2 -2 24 -13 13 -24 21 2 0.41749017D+00 0.35610539D-01 0.28514695D+06 0.28514695D+06 0.28514695D+06 0.10861872D+01  1  2  5  2  7  2       -2 -.216649089322D-02 0.100000000000D+01
0.759370502284D-03 0.000000000000D+00 0.161095109847D-03 0.141442500619D-04 0.000000000000D+00  7 2 -2 24 -13 13 -24 21 2 0.41749017D+00 0.30549960D-01 0.28514695D+06 0.28514695D+06 0.28514695D+06 0.10861872D+01  1  2  6  2  7  2       -2 0.292775586647D-02 0.100000000000D+01
0.765495964506D-05 0.000000000000D+00 0.000000000000D+00 0.141442500619D-04 0.000000000000D+00  7 2 21 24 -13 13 -24 2 2 0.41749017D+00 0.34704131D-01 0.33615404D+06 0.33615404D+06 0.33615404D+06 0.10809146D+01  1  2 12  4  7  2       -2 0.256792869871D-03 0.100000000000D+01
-.160347494294D-04 0.000000000000D+00 -.378349962825D-05 0.141442500619D-04 0.000000000000D+00  7 2 21 24 -13 13 -24 2 2 0.41749017D+00 0.35610539D-01 0.28514695D+06 0.28514695D+06 0.28514695D+06 0.10861872D+01  1  2  5  4  7  2       -2 -.522886386726D-03 0.100000000000D+01
  </mgrwgt>
  </event>
  <event>
  8     66 0.26993063E-05 0.63015001E+03 0.75467711E-02 0.90663080E-01
        2 -1    0    0  501    0 0.00000000E+00 0.00000000E+00 0.13317714E+04 0.13317715E+04 0.32000000E+00 0.0000E+00 0.9000E+01
       -2 -1    0    0    0  501 0.00000000E+00 0.00000000E+00 -.30914572E+03 0.30914588E+03 0.32000000E+00 0.0000E+00 0.9000E+01
       25  2    1    2    0    0 0.36409762E+03 -.48057161E+03 0.51263979E+03 0.84617573E+03 0.29949569E+03 0.0000E+00 0.0000E+00
       23  2    1    2    0    0 -.36409762E+03 0.48057161E+03 0.50998592E+03 0.79474162E+03 0.89512303E+02 0.0000E+00 0.0000E+00
       24  1    3    3    0    0 0.19941824E+03 -.11983082E+03 0.30325175E+03 0.39058405E+03 0.80419002E+02 0.0000E+00 0.9000E+01
      -13  1    4    4    0    0 -.34950974E+03 0.41608106E+03 0.45296039E+03 0.70742747E+03 0.10565837E+00 0.0000E+00 0.9000E+01
       13  1    4    4    0    0 -.14587880E+02 0.64490554E+02 0.57025523E+02 0.87314141E+02 0.10565837E+00 0.0000E+00 0.9000E+01
      -24  1    3    3    0    0 0.16467938E+03 -.36074079E+03 0.20938804E+03 0.45559168E+03 0.80419002E+02 0.0000E+00 0.9000E+01
#aMCatNLO 1  0  0  2  1 0.16869018D+03 0.00000000D+00  -5  7  0 0.00000000D+00 0.00000000D+00 0.00000000D+00 0.00000000D+00 0.00000000D+00
  <mgrwgt>
 0.8469771035D-03    4    2    0
 0.641647568922744D+03 0.000000000000000D+00 0.000000000000000D+00 0.641647568922744D+03
 0.641647568922744D+03 0.000000000000000D+00 0.000000000000000D+00 -.641647568922744D+03
 0.257776326502943D+03 0.199418235621539D+03 -.119830822043893D+03 0.765137892203662D+02
 0.543617681522006D+03 -.349510204621823D+03 0.416081546540129D+03 0.154579156857087D+02
 0.662035309929172D+02 -.145874134041713D+02 0.644900640042514D+02 0.333864206430338D+01
 0.415697598827622D+03 0.164679382404455D+03 -.360740788500488D+03 -.953103469703783D+02
 0.000000000000000D+00 -.000000000000000D+00 -.000000000000000D+00 0.000000000000000D+00
 0.790342535473670D+03 0.000000000000000D+00 0.000000000000000D+00 0.790342535473670D+03
 0.696855511728336D+03 0.000000000000000D+00 0.000000000000000D+00 -.696855511728336D+03
 0.271925285681790D+03 0.227450950459232D+03 -.994376700907947D+02 0.765137892203662D+02
 0.543317278998705D+03 -.291987748404020D+03 0.457927803570783D+03 0.154579156857087D+02
 0.702094403209056D+02 -.736820576530696D+01 0.697418706598940D+02 0.333864206430338D+01
 0.408882877314258D+03 0.208317590815935D+03 -.328995000757529D+03 -.953103469703783D+02
 0.192863164886348D+03 -.136412587105841D+03 -.992370033823526D+02 0.934870237453345D+02
0.135112535193D-03 0.000000000000D+00 0.000000000000D+00 0.125044765257D-05 0.000000000000D+00  7 2 -2 24 -13 13 -24 21 0 0.20488793D+00 0.47560896D-01 0.39708903D+06 0.39708903D+06 0.39708903D+06 0.10756564D+01  1  2  2  2  7  2       -2 0.113188712201D-02 0.100000000000D+01
-.750326819550D-05 0.000000000000D+00 -.518867711088D-06 0.125044765257D-05 0.000000000000D+00  7 2 -2 24 -13 13 -24 21 2 0.20488793D+00 0.47560896D-01 0.39708903D+06 0.39708903D+06 0.39708903D+06 0.10756564D+01  1  2  3  2  7  2       -2 -.727285708087D-04 0.100000000000D+01
0.857554023339D-05 0.000000000000D+00 0.000000000000D+00 0.125044765257D-05 0.000000000000D+00  7 2 -2 24 -13 13 -24 21 2 0.20488793D+00 0.47560896D-01 0.39708903D+06 0.39708903D+06 0.39708903D+06 0.10756564D+01  1  2 15  2  7  2       -2 0.831220168115D-04 0.100000000000D+01
-.304658962631D-04 0.000000000000D+00 0.000000000000D+00 0.125044765257D-05 0.000000000000D+00  7 2 -2 24 -13 13 -24 21 2 0.20488793D+00 0.47560896D-01 0.39708903D+06 0.39708903D+06 0.39708903D+06 0.10756564D+01  1  2  4  2  7  2       -2 -.295303464556D-03 0.100000000000D+01
  </mgrwgt>
  </event>
  <event>
  8     66 0.26993063E-05 0.37948630E+03 0.75467711E-02 0.88825033E-01
        2 -1    0    0  501    0 0.00000000E+00 0.00000000E+00 0.95956901E+03 0.95956907E+03 0.32000000E+00 0.0000E+00 0.9000E+01
       -2 -1    0    0    0  501 0.00000000E+00 0.00000000E+00 -.38356701E+03 0.38356715E+03 0.32000000E+00 0.0000E+00 0.9000E+01
       25  2    1    2    0    0 -.86098534E+02 -.33884917E+03 0.79611901E+03 0.91987315E+03 0.30021560E+03 0.0000E+00 0.0000E+00
       23  2    1    2    0    0 0.86098534E+02 0.33884917E+03 -.22011701E+03 0.42326307E+03 0.92023945E+02 0.0000E+00 0.0000E+00
       24  1    3    3    0    0 -.21684491E+02 -.57059835E+02 0.44029607E+02 0.11014474E+03 0.80419002E+02 0.0000E+00 0.9000E+01
      -11  1    4    4    0    0 -.11819633E+01 0.14920829E+03 -.62927970E+02 0.16193962E+03 0.51099893E-03 0.0000E+00 0.9000E+01
       11  1    4    4    0    0 0.87280497E+02 0.18964088E+03 -.15718904E+03 0.26132345E+03 0.51099893E-03 0.0000E+00 0.9000E+01
      -24  1    3    3    0    0 -.64414043E+02 -.28178934E+03 0.75208941E+03 0.80972841E+03 0.80419002E+02 0.0000E+00 0.9000E+01
#aMCatNLO 1  0  0  1  1 0.70509151D+03 0.00000000D+00  -5  7  0 0.00000000D+00 0.00000000D+00 0.00000000D+00 0.00000000D+00 0.00000000D+00
  <mgrwgt>
 0.8764491690D-03    5    2    0
 0.606678784502439D+03 0.000000000000000D+00 0.000000000000000D+00 0.606678784502439D+03
 0.606678784502439D+03 0.000000000000000D+00 0.000000000000000D+00 -.606678784502439D+03
 0.101024012576236D+03 -.216844905311573D+02 -.570598354416417D+02 -.354869164762867D+01
 0.209133411132558D+03 -.118196329772552D+01 0.149208293193878D+03 -.146534200297652D+03
 0.363894535239930D+03 0.872804968656027D+02 0.189640878967515D+03 -.298056512542180D+03
 0.539305610056154D+03 -.644140430367198D+02 -.281789336719751D+03 0.448139404487460D+03
 0.000000000000000D+00 -.000000000000000D+00 0.000000000000000D+00 0.000000000000000D+00
 0.111076948051514D+04 0.000000000000000D+00 0.000000000000000D+00 0.111076948051514D+04
 0.100548852082679D+04 0.000000000000000D+00 0.000000000000000D+00 -.100548852082679D+04
 0.133051533118342D+03 0.205207707270595D+02 -.103931704821619D+03 -.354869164762867D+01
 0.176986661317862D+03 0.684378617312204D+02 0.718906496648175D+02 -.146534200297652D+03
 0.372918699790838D+03 0.220132457076608D+03 0.420995644430870D+02 -.298056512542180D+03
 0.720392894472132D+03 0.162717348807057D+03 -.534034497944086D+03 0.448139404487460D+03
 0.712908212642753D+03 -.471808438341945D+03 0.523975988657801D+03 0.105280959688348D+03
0.881483338903D-04 0.000000000000D+00 0.000000000000D+00 0.435410074912D-05 0.000000000000D+00  7 2 -2 24 -11 11 -24 21 0 0.14762602D+00 0.59010324D-01 0.14400985D+06 0.14400985D+06 0.14400985D+06 0.11089513D+01  1  2  2  1  7  1        2 0.822923609701D-03 0.100000000000D+01
-.358642794034D-05 0.000000000000D+00 -.338512812128D-06 0.435410074912D-05 0.000000000000D+00  7 2 -2 24 -11 11 -24 21 2 0.14762602D+00 0.59010324D-01 0.14400985D+06 0.14400985D+06 0.14400985D+06 0.11089513D+01  1  2  3  1  7  1        2 -.411748935818D-04 0.100000000000D+01
0.528235178771D-05 0.000000000000D+00 0.000000000000D+00 0.435410074912D-05 0.000000000000D+00  7 2 -2 24 -11 11 -24 21 2 0.14762602D+00 0.59010324D-01 0.14400985D+06 0.14400985D+06 0.14400985D+06 0.11089513D+01  1  2 15  1  7  1        2 0.606453764968D-04 0.100000000000D+01
0.164611805485D-04 0.000000000000D+00 -.259383128671D-04 0.435410074912D-05 0.000000000000D+00  7 2 -2 24 -11 11 -24 21 2 0.35736981D+00 0.59010324D-01 0.14400985D+06 0.14400985D+06 0.14400985D+06 0.11089513D+01  1  2  5  1  7  1        2 0.331047799164D-04 0.100000000000D+01
0.321966584390D-05 0.000000000000D+00 -.251198269811D-05 0.435410074912D-05 0.000000000000D+00  7 21 -2 24 -11 11 -24 -2 2 0.35736981D+00 0.59010324D-01 0.14400985D+06 0.14400985D+06 0.14400985D+06 0.11089513D+01  1  2  5  3  7  1        2 0.950296484053D-06 0.100000000000D+01
  </mgrwgt>
  </event>
  <event>
  7     66 0.26993063E-05 0.14873747E+03 0.75467711E-02 0.10205336E+00
        2 -1    0    0  501    0 0.00000000E+00 0.00000000E+00 0.89722490E+03 0.89722496E+03 0.32000000E+00 0.0000E+00 0.9000E+01
       -2 -1    0    0    0  501 0.00000000E+00 0.00000000E+00 -.16187990E+03 0.16188022E+03 0.32000000E+00 0.0000E+00 0.9000E+01
       23  2    1    2    0    0 0.17026557E+03 0.26158291E+02 -.42393706E+02 0.19885352E+03 0.89838048E+02 0.0000E+00 0.0000E+00
       24  1    1    2    0    0 -.90318374E+02 0.69301469E+02 0.64938592E+03 0.66417572E+03 0.80419002E+02 0.0000E+00 0.9000E+01
      -11  1    3    3    0    0 0.22049145E+02 0.38696871E+02 -.18382043E+02 0.48182072E+02 0.51099893E-03 0.0000E+00 0.9000E+01
       11  1    3    3    0    0 0.14821643E+03 -.12538579E+02 -.24011663E+02 0.15067145E+03 0.51099893E-03 0.0000E+00 0.9000E+01
      -24  1    1    2    0    0 -.79947199E+02 -.95459761E+02 0.12835279E+03 0.19607594E+03 0.80419002E+02 0.0000E+00 0.9000E+01
#aMCatNLO 1  0  0  2  1 0.67331405D+02 0.00000000D+00  -5  7  0 0.00000000D+00 0.00000000D+00 0.00000000D+00 0.00000000D+00 0.00000000D+00
  <mgrwgt>
 0.6077567485D-03    9    2    0
 0.381107438403118D+03 0.000000000000000D+00 0.000000000000000D+00 0.381107438403118D+03
 0.381107438403118D+03 0.000000000000000D+00 0.000000000000000D+00 -.381107438403118D+03
 0.296385268389948D+03 -.903183735310916D+02 0.693014693399108D+02 0.261566261421917D+03
 0.846835030649532D+02 0.220491449738816D+02 0.386968706372239D+02 -.720255725430812D+02
 0.232524676259384D+03 0.148216427085447D+03 -.125385794053532D+02 -.178724368338655D+03
 0.148621429091951D+03 -.799471985282374D+02 -.954597605717815D+02 -.108163205401800D+02
 0.000000000000000D+00 -.000000000000000D+00 0.000000000000000D+00 -.000000000000000D+00
 0.393961636819707D+03 0.000000000000000D+00 0.000000000000000D+00 0.393961636819707D+03
 0.482271918169948D+03 0.000000000000000D+00 0.000000000000000D+00 -.482271918169948D+03
 0.287535321746847D+03 -.715997472716354D+02 0.516324740264448D+02 0.261566261421917D+03
 0.840832348211140D+02 0.274592667350903D+02 0.335901168231834D+02 -.720255725430812D+02
 0.243711632301743D+03 0.163483039740861D+03 -.269491298230010D+02 -.178724368338655D+03
 0.149852819636645D+03 -.703790688811672D+02 -.104491365538375D+03 -.108163205401800D+02
 0.111050546483306D+03 -.489634903231484D+02 0.462179045117481D+02 -.883102813502412D+02
0.109214300082D-04 0.000000000000D+00 0.000000000000D+00 0.672505268867D-09 0.000000000000D+00  7 2 -2 24 -11 11 -24 21 0 0.13803463D+00 0.24904629D-01 0.57814480D+05 0.57814480D+05 0.57814480D+05 0.11417891D+01  1  2  2  2  7  2       -2 0.562583162943D-03 0.100000000000D+01
-.450249007802D-06 0.000000000000D+00 -.419411669099D-07 0.672505268867D-09 0.000000000000D+00  7 2 -2 24 -11 11 -24 21 2 0.13803463D+00 0.24904629D-01 0.57814480D+05 0.57814480D+05 0.57814480D+05 0.11417891D+01  1  2  3  2  7  2       -2 -.302365152558D-04 0.100000000000D+01
0.665472675996D-06 0.000000000000D+00 0.000000000000D+00 0.672505268867D-09 0.000000000000D+00  7 2 -2 24 -11 11 -24 21 2 0.13803463D+00 0.24904629D-01 0.57814480D+05 0.57814480D+05 0.57814480D+05 0.11417891D+01  1  2 15  2  7  2       -2 0.446898813131D-04 0.100000000000D+01
0.245235632395D-04 0.000000000000D+00 0.000000000000D+00 0.672505268867D-09 0.000000000000D+00  7 2 -2 24 -11 11 -24 21 2 0.13803463D+00 0.31856570D-01 0.74333130D+05 0.74333130D+05 0.74333130D+05 0.11324488D+01  1  2 12  2  7  2       -2 0.105440689538D-02 0.100000000000D+01
-.261230665420D-04 0.000000000000D+00 0.000000000000D+00 0.672505268867D-09 0.000000000000D+00  7 2 -2 24 -11 11 -24 21 2 0.13803463D+00 0.24904629D-01 0.57814480D+05 0.57814480D+05 0.57814480D+05 0.11417891D+01  1  2  4  2  7  2       -2 -.175429703639D-02 0.100000000000D+01
-.312106410471D-04 0.000000000000D+00 -.611465051150D-05 0.672505268867D-09 0.000000000000D+00  7 2 -2 24 -11 11 -24 21 2 0.13803463D+00 0.32372200D-01 0.57814480D+05 0.57814480D+05 0.57814480D+05 0.11417891D+01  1  2  5  2  7  2       -2 -.133175258871D-02 0.100000000000D+01
0.319148404954D-04 0.000000000000D+00 0.591024986460D-05 0.672505268867D-09 0.000000000000D+00  7 2 -2 24 -11 11 -24 21 2 0.13803463D+00 0.24904629D-01 0.57814480D+05 0.57814480D+05 0.57814480D+05 0.11417891D+01  1  2  6  2  7  2       -2 0.214324417112D-02 0.100000000000D+01
0.820595960711D-06 0.000000000000D+00 0.000000000000D+00 0.672505268867D-09 0.000000000000D+00  7 2 21 24 -11 11 -24 2 2 0.13803463D+00 0.31856570D-01 0.74333130D+05 0.74333130D+05 0.74333130D+05 0.11324488D+01  1  2 12  4  7  2       -2 0.417146403989D-03 0.100000000000D+01
-.983292499142D-06 0.000000000000D+00 -.214344318588D-06 0.672505268867D-09 0.000000000000D+00  7 2 21 24 -11 11 -24 2 2 0.13803463D+00 0.32372200D-01 0.57814480D+05 0.57814480D+05 0.57814480D+05 0.11417891D+01  1  2  5  4  7  2       -2 -.498027625894D-03 0.100000000000D+01
  </mgrwgt>
  </event>
  <event>
  8     66 0.26993063E-05 0.14929988E+03 0.75467711E-02 0.10302300E+00
        2 -1    0    0  501    0 0.00000000E+00 0.00000000E+00 0.26408178E+04 0.26408178E+04 0.32000000E+00 0.0000E+00 0.9000E+01
       -2 -1    0    0    0  501 0.00000000E+00 0.00000000E+00 -.47897353E+02 0.47898422E+02 0.32000000E+00 0.0000E+00 0.9000E+01
       25  2    1    2    0    0 0.13548706E+03 0.63492103E+02 0.60556514E+03 0.69363588E+03 0.30337041E+03 0.0000E+00 0.0000E+00
       23  2    1    2    0    0 -.13548706E+03 -.63492103E+02 0.19873553E+04 0.19950804E+04 0.91523398E+02 0.0000E+00 0.0000E+00
       24  1    3    3    0    0 0.99400174E+02 0.13726395E+03 0.51246458E+03 0.54571874E+03 0.80419002E+02 0.0000E+00 0.9000E+01
      -13  1    4    4    0    0 -.12201900E+03 -.76393996E+02 0.19134529E+04 0.19188608E+04 0.10565837E+00 0.0000E+00 0.9000E+01
       13  1    4    4    0    0 -.13468062E+02 0.12901893E+02 0.73902431E+02 0.76219604E+02 0.10565837E+00 0.0000E+00 0.9000E+01
      -24  1    3    3    0    0 0.36086891E+02 -.73771851E+02 0.93100566E+02 0.14791714E+03 0.80419002E+02 0.0000E+00 0.9000E+01
#aMCatNLO 1  0  0  2  1 0.50445739D+02 0.00000000D+00  -5  7  0 0.00000000D+00 0.00000000D+00 0.00000000D+00 0.00000000D+00 0.00000000D+00
  <mgrwgt>
 0.8151189580D-03    9    2    0
 0.355653830088368D+03 0.000000000000000D+00 0.000000000000000D+00 0.355653830088368D+03
 0.355653830088368D+03 0.000000000000000D+00 0.000000000000000D+00 -.355653830088368D+03
 0.194715975135451D+03 0.994001728997070D+02 0.137263944828216D+03 -.522045026437759D+02
 0.278137376159433D+03 -.122019151394175D+03 -.763941166859499D+02 0.237982490208152D+03
 0.187113356158529D+02 -.134679175936359D+02 0.129020114667148D+02 0.150578097108446D+01
 0.219742973265998D+03 0.360868960881039D+02 -.737718396089808D+02 -.187283768535460D+03
 0.000000000000000D+00 -.000000000000000D+00 -.000000000000000D+00 -.000000000000000D+00
 0.362166200794443D+03 0.000000000000000D+00 0.000000000000000D+00 0.362166200794443D+03
 0.469767004967642D+03 0.000000000000000D+00 0.000000000000000D+00 -.469767004967642D+03
 0.206702241385569D+03 0.104020040248780D+03 0.150708731564583D+03 -.522045026437759D+02
 0.270900033363766D+03 -.115700354943782D+03 -.580050885414330D+02 0.237982490208152D+03
 0.193132868275833D+02 -.130302974148364D+02 0.141755783315013D+02 0.150578097108446D+01
 0.216178653799475D+03 0.411038584698529D+02 -.591714227159460D+02 -.187283768535460D+03
 0.118838990385692D+03 -.163932463600146D+02 -.477077986387052D+02 -.107600804173199D+03
0.201792058977D-04 0.000000000000D+00 0.000000000000D+00 0.856410677333D-07 0.000000000000D+00  7 2 -2 24 -13 13 -24 21 0 0.40627975D+00 0.73689073D-02 0.54089103D+05 0.54089103D+05 0.54089103D+05 0.11443045D+01  1  2  2  2  7  2       -2 0.781037595629D-03 0.100000000000D+01
-.875138876619D-06 0.000000000000D+00 -.774934639541D-07 0.856410677333D-07 0.000000000000D+00  7 2 -2 24 -13 13 -24 21 2 0.40627975D+00 0.73689073D-02 0.54089103D+05 0.54089103D+05 0.54089103D+05 0.11443045D+01  1  2  3  2  7  2       -2 -.443535181785D-04 0.100000000000D+01
0.126661449866D-05 0.000000000000D+00 0.000000000000D+00 0.856410677333D-07 0.000000000000D+00  7 2 -2 24 -13 13 -24 21 2 0.40627975D+00 0.73689073D-02 0.54089103D+05 0.54089103D+05 0.54089103D+05 0.11443045D+01  1  2 15  2  7  2       -2 0.641941647120D-04 0.100000000000D+01
0.855650430972D-04 0.000000000000D+00 0.000000000000D+00 0.856410677333D-07 0.000000000000D+00  7 2 -2 24 -13 13 -24 21 2 0.40627975D+00 0.97851599D-02 0.64287604D+05 0.64287604D+05 0.64287604D+05 0.11378160D+01  1  2 12  2  7  2       -2 0.277372876863D-02 0.100000000000D+01
-.860802546025D-04 0.000000000000D+00 0.000000000000D+00 0.856410677333D-07 0.000000000000D+00  7 2 -2 24 -13 13 -24 21 2 0.40627975D+00 0.73689073D-02 0.54089103D+05 0.54089103D+05 0.54089103D+05 0.11443045D+01  1  2  4  2  7  2       -2 -.436269287004D-02 0.100000000000D+01
-.944634272784D-04 0.000000000000D+00 -.103881950363D-04 0.856410677333D-07 0.000000000000D+00  7 2 -2 24 -13 13 -24 21 2 0.40627975D+00 0.99300309D-02 0.54089103D+05 0.54089103D+05 0.54089103D+05 0.11443045D+01  1  2  5  2  7  2       -2 -.304714210389D-02 0.100000000000D+01
0.938034712523D-04 0.000000000000D+00 0.994256362845D-05 0.856410677333D-07 0.000000000000D+00  7 2 -2 24 -13 13 -24 21 2 0.40627975D+00 0.73689073D-02 0.54089103D+05 0.54089103D+05 0.54089103D+05 0.11443045D+01  1  2  6  2  7  2       -2 0.475411855027D-02 0.100000000000D+01
0.317557478695D-05 0.000000000000D+00 0.000000000000D+00 0.856410677333D-07 0.000000000000D+00  7 2 21 24 -13 13 -24 2 2 0.40627975D+00 0.97851599D-02 0.64287604D+05 0.64287604D+05 0.64287604D+05 0.11378160D+01  1  2 12  4  7  2       -2 0.151997635610D-02 0.100000000000D+01
-.340562455939D-05 0.000000000000D+00 -.399906917847D-06 0.856410677333D-07 0.000000000000D+00  7 2 21 24 -13 13 -24 2 2 0.40627975D+00 0.99300309D-02 0.54089103D+05 0.54089103D+05 0.54089103D+05 0.11443045D+01  1  2  5  4  7  2       -2 -.162374798525D-02 0.100000000000D+01
  </mgrwgt>
  </event>
  <event>
  8     66 0.26993063E-05 0.40345544E+03 0.75467711E-02 0.83589174E-01
        2 -1    0    0  501    0 0.00000000E+00 0.00000000E+00 0.30493556E+03 0.30493573E+03 0.32000000E+00 0.0000E+00 0.9000E+01
       -2 -1    0    0    0  501 0.00000000E+00 0.00000000E+00 -.54489616E+03 0.54489625E+03 0.32000000E+00 0.0000E+00 0.9000E+01
       25  2    1    2    0    0 -.19061427E+03 -.28737124E+03 -.11819098E+03 0.47290329E+03 0.30125137E+03 0.0000E+00 0.0000E+00
       23  2    1    2    0    0 0.19061427E+03 0.28737124E+03 -.12176962E+03 0.37692869E+03 0.91276308E+02 0.0000E+00 0.0000E+00
       24  1    3    3    0    0 -.53922775E+02 -.28262668E+03 -.66855459E+02 0.30614110E+03 0.80419002E+02 0.0000E+00 0.9000E+01
      -13  1    4    4    0    0 0.17311283E+03 0.22030546E+03 -.12658178E+03 0.30745001E+03 0.10565837E+00 0.0000E+00 0.9000E+01
       13  1    4    4    0    0 0.17501444E+02 0.67065777E+02 0.48121594E+01 0.69478681E+02 0.10565837E+00 0.0000E+00 0.9000E+01
      -24  1    3    3    0    0 -.13669150E+03 -.47445557E+01 -.51335520E+02 0.16676219E+03 0.80419002E+02 0.0000E+00 0.9000E+01
#aMCatNLO 1  0  0  1  1 0.14002132D+04 0.00000000D+00  -5  7  0 0.00000000D+00 0.00000000D+00 0.00000000D+00 0.00000000D+00 0.00000000D+00
  <mgrwgt>
 0.1007555456D-02    3    2    0
 0.407625227799034D+03 0.000000000000000D+00 0.000000000000000D+00 0.407625227799034D+03
 0.407625227799034D+03 0.000000000000000D+00 0.000000000000000D+00 -.407625227799034D+03
 0.299448866539934D+03 -.539227757286295D+02 -.282626682386339D+03 0.204181384727370D+02
 0.283233740769453D+03 0.173113036859994D+03 0.220305666987530D+03 -.414565009684561D+02
 0.738419764524250D+02 0.175012359158076D+02 0.670655721101950D+02 0.254667089619363D+02
 0.158725871836257D+03 -.136691497047172D+03 -.474455671138627D+01 -.442834646621724D+01
 0.000000000000000D+00 -.000000000000000D+00 -.000000000000000D+00 -.000000000000000D+00
 0.933845600784366D+03 0.000000000000000D+00 0.000000000000000D+00 0.933845600784366D+03
 0.477197084705643D+04 0.000000000000000D+00 0.000000000000000D+00 -.477197084705643D+04
 0.121435990686463D+03 0.572566456891557D+02 -.677071637669663D+02 0.204181384727370D+02
 0.103559560531636D+04 0.521490226319544D+03 0.893749159513561D+03 -.414565009684561D+02
 0.262875332247374D+03 0.106447262174149D+03 0.239005998699705D+03 0.254667089619363D+02
 0.200349296670021D+03 -.418394994174552D+02 0.178612627655140D+03 -.442834646621724D+01
 0.408556022292057D+04 -.643354634765394D+03 -.124366062210144D+04 -.383812524627206D+04
0.595855129389D-04 0.000000000000D+00 0.000000000000D+00 0.510942233039D-06 0.000000000000D+00  7 2 -2 24 -13 13 -24 21 0 0.46913183D-01 0.83830199D-01 0.16277629D+06 0.16277629D+06 0.16277629D+06 0.11047613D+01  1  2  2  1  7  1        2 0.995387477190D-03 0.100000000000D+01
-.330988075732D-05 0.000000000000D+00 -.228824058911D-06 0.510942233039D-06 0.000000000000D+00  7 2 -2 24 -13 13 -24 21 2 0.46913183D-01 0.83830199D-01 0.16277629D+06 0.16277629D+06 0.16277629D+06 0.11047613D+01  1  2  3  1  7  1        2 -.674839890559D-04 0.100000000000D+01
0.390668243589D-05 0.000000000000D+00 0.000000000000D+00 0.510942233039D-06 0.000000000000D+00  7 2 -2 24 -13 13 -24 21 2 0.46913183D-01 0.83830199D-01 0.16277629D+06 0.16277629D+06 0.16277629D+06 0.11047613D+01  1  2 15  1  7  1        2 0.796519675717D-04 0.100000000000D+01
  </mgrwgt>
  </event>
  <event>
  8     66 0.26993063E-05 0.16038078E+03 0.75467711E-02 0.91290615E-01
        2 -1    0    0  501    0 0.00000000E+00 0.00000000E+00 0.17298312E+04 0.17298312E+04 0.32000000E+00 0.0000E+00 0.9000E+01
       -2 -1    0    0    0  501 0.00000000E+00 0.00000000E+00 -.28826929E+03 0.28826947E+03 0.32000000E+00 0.0000E+00 0.9000E+01
       25  2    1    2    0    0 0.65139348E+03 -.20129833E+02 0.98124113E+03 0.12153073E+04 0.29903023E+03 0.0000E+00 0.0000E+00
       23  2    1    2    0    0 -.65139348E+03 0.20129833E+02 0.46032076E+03 0.80279335E+03 0.88675125E+02 0.0000E+00 0.0000E+00
       24  1    3    3    0    0 0.37631102E+03 -.34518225E+01 0.34309931E+03 0.51556401E+03 0.80419002E+02 0.0000E+00 0.9000E+01
      -13  1    4    4    0    0 -.46562077E+03 0.36449017E+02 0.28686854E+03 0.54811021E+03 0.10565837E+00 0.0000E+00 0.9000E+01
       13  1    4    4    0    0 -.18577271E+03 -.16319184E+02 0.17345222E+03 0.25468313E+03 0.10565837E+00 0.0000E+00 0.9000E+01
      -24  1    3    3    0    0 0.27508246E+03 -.16678010E+02 0.63814182E+03 0.69974332E+03 0.80419002E+02 0.0000E+00 0.9000E+01
#aMCatNLO 1  0  0  1  2 0.30203625D+02 0.00000000D+00  -5  7  0 0.00000000D+00 0.00000000D+00 0.00000000D+00 0.00000000D+00 0.00000000D+00
  <mgrwgt>
 0.1185220886D-02    9    2    0
 0.706156796006255D+03 0.000000000000000D+00 0.000000000000000D+00 0.706156796006255D+03
 0.706156796006255D+03 0.000000000000000D+00 0.000000000000000D+00 -.706156796006255D+03
 0.386501410318693D+03 0.376311019347250D+03 -.345182248454629D+01 -.359753507743423D+02
 0.490403445371650D+03 -.465621172038231D+03 0.364490914820865D+02 -.149545735854486D+03
 0.186880230184053D+03 -.185772311968215D+03 -.163192589068013D+02 -.121057973038253D+02
 0.348528506138115D+03 0.275082464659196D+03 -.166780100907389D+02 0.197626883932654D+03
 0.000000000000000D+00 -.000000000000000D+00 -.000000000000000D+00 0.000000000000000D+00
 0.726144773461743D+03 0.000000000000000D+00 0.000000000000000D+00 0.726144773461743D+03
 0.717821278814833D+03 0.000000000000000D+00 0.000000000000000D+00 -.717821278814833D+03
 0.393894254113049D+03 0.383915669470785D+03 -.184490212904920D-01 -.359753507743423D+02
 0.481760702353166D+03 -.456147813147295D+03 0.407261559749519D+02 -.149545735854486D+03
 0.183158379537433D+03 -.182166430634699D+03 -.146912632618960D+02 -.121057973038253D+02
 0.353823185234297D+03 0.281926606829630D+03 -.135879933608449D+02 0.197626883932654D+03
 0.313295310386304D+02 -.275280325184202D+02 -.124284503309205D+02 0.832349464691058D+01
0.684427956508D-04 0.000000000000D+00 0.000000000000D+00 0.505530305626D-06 0.000000000000D+00  7 2 -2 24 -13 13 -24 21 0 0.26612789D+00 0.44349138D-01 0.43919663D+06 0.43919663D+06 0.43919663D+06 0.10725131D+01  1  2  2  1  7  1        2 0.393836514158D-03 0.100000000000D+01
-.378374407827D-05 0.000000000000D+00 -.262838356701D-06 0.505530305626D-06 0.000000000000D+00  7 2 -2 24 -13 13 -24 21 2 0.26612789D+00 0.44349138D-01 0.43919663D+06 0.43919663D+06 0.43919663D+06 0.10725131D+01  1  2  3  1  7  1        2 -.250446615701D-04 0.100000000000D+01
0.425934620245D-05 0.000000000000D+00 0.000000000000D+00 0.505530305626D-06 0.000000000000D+00  7 2 -2 24 -13 13 -24 21 2 0.26612789D+00 0.44349138D-01 0.43919663D+06 0.43919663D+06 0.43919663D+06 0.10725131D+01  1  2 15  1  7  1        2 0.281926795110D-04 0.100000000000D+01
0.122095620556D-03 0.000000000000D+00 0.000000000000D+00 0.505530305626D-06 0.000000000000D+00  7 2 -2 24 -13 13 -24 21 2 0.27580921D+00 0.44349138D-01 0.46013055D+06 0.46013055D+06 0.46013055D+06 0.10710704D+01  1  2 12  1  7  1        2 0.742863890914D-03 0.100000000000D+01
-.109958911415D-03 0.000000000000D+00 0.000000000000D+00 0.505530305626D-06 0.000000000000D+00  7 2 -2 24 -13 13 -24 21 2 0.26612789D+00 0.44349138D-01 0.43919663D+06 0.43919663D+06 0.43919663D+06 0.10725131D+01  1  2  4  1  7  1        2 -.727819764248D-03 0.100000000000D+01
-.144344483260D-02 0.000000000000D+00 -.201536658645D-03 0.505530305626D-06 0.000000000000D+00  7 2 -2 24 -13 13 -24 21 2 0.27596937D+00 0.44349138D-01 0.43919663D+06 0.43919663D+06 0.43919663D+06 0.10725131D+01  1  2  5  1  7  1        2 -.881337341946D-02 0.100000000000D+01
0.144993994365D-02 0.000000000000D+00 0.201403855918D-03 0.505530305626D-06 0.000000000000D+00  7 2 -2 24 -13 13 -24 21 2 0.26612789D+00 0.44349138D-01 0.43919663D+06 0.43919663D+06 0.43919663D+06 0.10725131D+01  1  2  6  1  7  1        2 0.959717529370D-02 0.100000000000D+01
0.210323490046D-05 0.000000000000D+00 0.000000000000D+00 0.505530305626D-06 0.000000000000D+00  7 21 -2 24 -13 13 -24 -2 2 0.27580921D+00 0.44349138D-01 0.46013055D+06 0.46013055D+06 0.46013055D+06 0.10710704D+01  1  2 12  3  7  1        2 0.311748795862D-05 0.100000000000D+01
-.921883556667D-05 0.000000000000D+00 -.130044334620D-05 0.505530305626D-06 0.000000000000D+00  7 21 -2 24 -13 13 -24 -2 2 0.27596937D+00 0.44349138D-01 0.43919663D+06 0.43919663D+06 0.43919663D+06 0.10725131D+01  1  2  5  3  7  1        2 -.137271352527D-04 0.100000000000D+01
  </mgrwgt>
  </event>
  <event>
  8     66 0.26993063E-05 0.26538664E+03 0.75467711E-02 0.99524580E-01
        2 -1    0    0  501    0 0.00000000E+00 0.00000000E+00 0.53978885E+03 0.53978895E+03 0.32000000E+00 0.0000E+00 0.9000E+01
       -2 -1    0    0    0  501 0.00000000E+00 0.00000000E+00 -.27558043E+03 0.27558062E+03 0.32000000E+00 0.0000E+00 0.9000E+01
       25  2    1    2    0    0 -.21343108E+03 0.16967235E+03 0.32909700E+03 0.52056083E+03 0.29721577E+03 0.0000E+00 0.0000E+00
       23  2    1    2    0    0 0.21343108E+03 -.16967235E+03 -.64888579E+02 0.29480873E+03 0.91433733E+02 0.0000E+00 0.0000E+00
       24  1    3    3    0    0 -.23808969E+02 0.12370107E+03 0.25746276E+03 0.29769634E+03 0.80419002E+02 0.0000E+00 0.9000E+01
      -11  1    4    4    0    0 0.65530977E+01 -.42493988E+02 -.21674604E+02 0.48150499E+02 0.51099893E-03 0.0000E+00 0.9000E+01
       11  1    4    4    0    0 0.20687798E+03 -.12717836E+03 -.43213975E+02 0.24665823E+03 0.51099893E-03 0.0000E+00 0.9000E+01
      -24  1    3    3    0    0 -.18962211E+03 0.45971279E+02 0.71634242E+02 0.22286450E+03 0.80419002E+02 0.0000E+00 0.9000E+01
#aMCatNLO 1  0  0  1  2 0.16506967D+02 0.00000000D+00  -5  7  0 0.00000000D+00 0.00000000D+00 0.00000000D+00 0.00000000D+00 0.00000000D+00
  <mgrwgt>
 0.9212962213D-03    9    2    0
 0.385688162270468D+03 0.000000000000000D+00 0.000000000000000D+00 0.385688162270468D+03
 0.385688162270468D+03 0.000000000000000D+00 0.000000000000000D+00 -.385688162270468D+03
 0.226489584151657D+03 -.238089691545664D+02 0.123701068998068D+03 0.170180769452228D+03
 0.583205147588344D+02 0.655309771918824D+01 -.424939881615150D+02 -.394030496554164D+02
 0.275527135630406D+03 0.206877982460448D+03 -.127178359909891D+03 -.130162850354549D+03
 0.211039090000039D+03 -.189622111025070D+03 0.459712790733385D+02 -.614869442262290D+00
 0.000000000000000D+00 0.000000000000000D+00 -.000000000000000D+00 0.000000000000000D+00
 0.397986859022400D+03 0.000000000000000D+00 0.000000000000000D+00 0.397986859022400D+03
 0.391355313365029D+03 0.000000000000000D+00 0.000000000000000D+00 -.391355313365029D+03
 0.229123623458393D+03 -.260658618576973D+02 0.128021464710399D+03 0.170180769452228D+03
 0.574629384935327D+02 0.597956116137138D+01 -.413960605188674D+02 -.394030496554164D+02
 0.271128190637330D+03 0.204170110088941D+03 -.121994648620838D+03 -.130162850354549D+03
 0.213838171087512D+03 -.191726752361753D+03 0.500002182401784D+02 -.614869442262290D+00
 0.177892487106605D+02 0.764294296913839D+01 -.146309738108727D+02 0.663154565737063D+01
0.113470426799D-04 0.000000000000D+00 0.000000000000D+00 0.799562408671D-07 0.000000000000D+00  7 2 -2 24 -11 11 -24 21 0 0.83044460D-01 0.42397011D-01 0.10443568D+06 0.10443568D+06 0.10443568D+06 0.11201785D+01  1  2  2  1  7  1        2 0.414613572770D-03 0.100000000000D+01
-.606415097375D-06 0.000000000000D+00 -.435756316358D-07 0.799562408671D-07 0.000000000000D+00  7 2 -2 24 -11 11 -24 21 2 0.83044460D-01 0.42397011D-01 0.10443568D+06 0.10443568D+06 0.10443568D+06 0.11201785D+01  1  2  3  1  7  1        2 -.278038755337D-04 0.100000000000D+01
0.711298782151D-06 0.000000000000D+00 0.000000000000D+00 0.799562408671D-07 0.000000000000D+00  7 2 -2 24 -11 11 -24 21 2 0.83044460D-01 0.42397011D-01 0.10443568D+06 0.10443568D+06 0.10443568D+06 0.11201785D+01  1  2 15  1  7  1        2 0.326127480859D-04 0.100000000000D+01
0.264391789764D-04 0.000000000000D+00 0.000000000000D+00 0.799562408671D-07 0.000000000000D+00  7 2 -2 24 -11 11 -24 21 2 0.86288278D-01 0.42397011D-01 0.11003333D+06 0.11003333D+06 0.11003333D+06 0.11183303D+01  1  2 12  1  7  1        2 0.115604849398D-02 0.100000000000D+01
-.249387789691D-04 0.000000000000D+00 0.000000000000D+00 0.799562408671D-07 0.000000000000D+00  7 2 -2 24 -11 11 -24 21 2 0.83044460D-01 0.42397011D-01 0.10443568D+06 0.10443568D+06 0.10443568D+06 0.11201785D+01  1  2  4  1  7  1        2 -.114343245974D-02 0.100000000000D+01
-.243443132216D-03 0.000000000000D+00 -.356178583814D-04 0.799562408671D-07 0.000000000000D+00  7 2 -2 24 -11 11 -24 21 2 0.86668034D-01 0.42397011D-01 0.10443568D+06 0.10443568D+06 0.10443568D+06 0.11201785D+01  1  2  5  1  7  1        2 -.106340937231D-01 0.100000000000D+01
0.244773520307D-03 0.000000000000D+00 0.355853985382D-04 0.799562408671D-07 0.000000000000D+00  7 2 -2 24 -11 11 -24 21 2 0.83044460D-01 0.42397011D-01 0.10443568D+06 0.10443568D+06 0.10443568D+06 0.11201785D+01  1  2  6  1  7  1        2 0.112227622993D-01 0.100000000000D+01
0.449032392887D-06 0.000000000000D+00 0.000000000000D+00 0.799562408671D-07 0.000000000000D+00  7 21 -2 24 -11 11 -24 -2 2 0.86288278D-01 0.42397011D-01 0.11003333D+06 0.11003333D+06 0.11003333D+06 0.11183303D+01  1  2 12  3  7  1        2 0.330647739311D-04 0.100000000000D+01
-.180737090161D-05 0.000000000000D+00 -.267811401666D-06 0.799562408671D-07 0.000000000000D+00  7 21 -2 24 -11 11 -24 -2 2 0.86668034D-01 0.42397011D-01 0.10443568D+06 0.10443568D+06 0.10443568D+06 0.11201785D+01  1  2  5  3  7  1        2 -.132475608455D-03 0.100000000000D+01
  </mgrwgt>
  </event>
  <event>
  8     66 0.26993063E-05 0.27065509E+03 0.75467711E-02 0.91637417E-01
        2 -1    0    0  501    0 0.00000000E+00 0.00000000E+00 0.62030103E+03 0.62030111E+03 0.32000000E+00 0.0000E+00 0.9000E+01
       -2 -1    0    0    0  501 0.00000000E+00 0.00000000E+00 -.60503539E+03 0.60503548E+03 0.32000000E+00 0.0000E+00 0.9000E+01
       25  2    1    2    0    0 -.46103648E+03 -.28668785E+03 -.17182920E+03 0.64360166E+03 0.29992209E+03 0.0000E+00 0.0000E+00
       23  2    1    2    0    0 0.46103648E+03 0.28668785E+03 0.18709483E+03 0.58173493E+03 0.93093959E+02 0.0000E+00 0.0000E+00
       24  1    3    3    0    0 -.42402685E+03 -.30649517E+03 -.15214636E+03 0.55077562E+03 0.80419002E+02 0.0000E+00 0.9000E+01
      -11  1    4    4    0    0 0.38512501E+03 0.26398883E+03 0.18570122E+03 0.50249012E+03 0.51099893E-03 0.0000E+00 0.9000E+01
       11  1    4    4    0    0 0.75911477E+02 0.22699017E+02 0.13936148E+01 0.79244810E+02 0.51099893E-03 0.0000E+00 0.9000E+01
      -24  1    3    3    0    0 -.37009639E+02 0.19807320E+02 -.19682841E+02 0.92826039E+02 0.80419002E+02 0.0000E+00 0.9000E+01
#aMCatNLO 1  0  0  2  1 0.13972663D+03 0.00000000D+00  -5  7  0 0.00000000D+00 0.00000000D+00 0.00000000D+00 0.00000000D+00 0.00000000D+00
  <mgrwgt>
 0.1130665085D-02    9    2    0
 0.612620743929087D+03 0.000000000000000D+00 0.000000000000000D+00 0.612620743929087D+03
 0.612620743929087D+03 0.000000000000000D+00 0.000000000000000D+00 -.612620743929087D+03
 0.552714002568357D+03 -.424026846210274D+03 -.306495167194889D+03 -.159020435353162D+03
 0.500215410795479D+03 0.385125007324451D+03 0.263988831032240D+03 0.179454960981474D+03
 0.792335971379271D+02 0.759114774796201D+02 0.226990165003073D+02 0.406389216473919D+00
 0.930784773564103D+02 -.370096385937968D+02 0.198073196623408D+02 -.208409148447867D+02
 0.000000000000000D+00 0.000000000000000D+00 0.000000000000000D+00 -.000000000000000D+00
 0.656083085198265D+03 0.000000000000000D+00 0.000000000000000D+00 0.656083085198265D+03
 0.740184414988637D+03 0.000000000000000D+00 0.000000000000000D+00 -.740184414988637D+03
 0.604158171278821D+03 -.443773722692981D+03 -.369211679333012D+03 -.159020435353162D+03
 0.461551875714147D+03 0.368708414168220D+03 0.211849371667563D+03 0.179454960981474D+03
 0.746781603607346D+02 0.732843277103805D+02 0.143551313022872D+02 0.406389216473919D+00
 0.927947613516540D+02 -.401823451115815D+02 0.973073428400963D+01 -.208409148447867D+02
 0.163084531481545D+03 0.419633259259613D+02 0.133276442079153D+03 -.841013297903722D+02
0.129464410616D-03 0.000000000000D+00 0.000000000000D+00 0.244709960350D-05 0.000000000000D+00  7 2 -2 24 -11 11 -24 21 0 0.95430940D-01 0.93082381D-01 0.34001079D+06 0.34001079D+06 0.34001079D+06 0.10805520D+01  1  2  2  2  7  2       -2 0.750142035663D-03 0.100000000000D+01
-.717114383410D-05 0.000000000000D+00 -.497177425529D-06 0.244709960350D-05 0.000000000000D+00  7 2 -2 24 -11 11 -24 21 2 0.95430940D-01 0.93082381D-01 0.34001079D+06 0.34001079D+06 0.34001079D+06 0.10805520D+01  1  2  3  2  7  2       -2 -.485146479037D-04 0.100000000000D+01
0.813838350966D-05 0.000000000000D+00 0.000000000000D+00 0.244709960350D-05 0.000000000000D+00  7 2 -2 24 -11 11 -24 21 2 0.95430940D-01 0.93082381D-01 0.34001079D+06 0.34001079D+06 0.34001079D+06 0.10805520D+01  1  2 15  2  7  2       -2 0.550582751666D-04 0.100000000000D+01
0.147906299694D-03 0.000000000000D+00 0.000000000000D+00 0.244709960350D-05 0.000000000000D+00  7 2 -2 24 -11 11 -24 21 2 0.95430940D-01 0.11525471D+00 0.43093906D+06 0.43093906D+06 0.43093906D+06 0.10731029D+01  1  2 12  2  7  2       -2 0.580072035087D-03 0.100000000000D+01
-.150470859841D-03 0.000000000000D+00 0.000000000000D+00 0.244709960350D-05 0.000000000000D+00  7 2 -2 24 -11 11 -24 21 2 0.95430940D-01 0.93082381D-01 0.34001079D+06 0.34001079D+06 0.34001079D+06 0.10805520D+01  1  2  4  2  7  2       -2 -.101797439207D-02 0.100000000000D+01
-.289143054029D-03 0.000000000000D+00 -.733055143043D-04 0.244709960350D-05 0.000000000000D+00  7 2 -2 24 -11 11 -24 21 2 0.95430940D-01 0.11794950D+00 0.34001079D+06 0.34001079D+06 0.34001079D+06 0.10805520D+01  1  2  5  2  7  2       -2 -.109415031502D-02 0.100000000000D+01
0.300057478249D-03 0.000000000000D+00 0.712976581557D-04 0.244709960350D-05 0.000000000000D+00  7 2 -2 24 -11 11 -24 21 2 0.95430940D-01 0.93082381D-01 0.34001079D+06 0.34001079D+06 0.34001079D+06 0.10805520D+01  1  2  6  2  7  2       -2 0.202996666151D-02 0.100000000000D+01
0.445121983305D-05 0.000000000000D+00 0.000000000000D+00 0.244709960350D-05 0.000000000000D+00  7 2 21 24 -11 11 -24 2 2 0.95430940D-01 0.11525471D+00 0.43093906D+06 0.43093906D+06 0.43093906D+06 0.10731029D+01  1  2 12  4  7  2       -2 0.154876308132D-03 0.100000000000D+01
-.827610605437D-05 0.000000000000D+00 -.238296011085D-05 0.244709960350D-05 0.000000000000D+00  7 2 21 24 -11 11 -24 2 2 0.95430940D-01 0.11794950D+00 0.34001079D+06 0.34001079D+06 0.34001079D+06 0.10805520D+01  1  2  5  4  7  2       -2 -.278810875566D-03 0.100000000000D+01
  </mgrwgt>
  </event>
  <event>
  8     66 0.26993063E-05 0.56992337E+03 0.75467711E-02 0.85918071E-01
        2 -1    0    0  501    0 0.00000000E+00 0.00000000E+00 0.52265606E+03 0.52265616E+03 0.32000000E+00 0.0000E+00 0.9000E+01
       -2 -1    0    0    0  501 0.00000000E+00 0.00000000E+00 -.72984987E+03 0.72984994E+03 0.32000000E+00 0.0000E+00 0.9000E+01
       25  2    1    2    0    0 0.14099479E+02 -.55796399E+03 0.41691094E+02 0.63457344E+03 0.29903627E+03 0.0000E+00 0.0000E+00
       23  2    1    2    0    0 -.14099479E+02 0.55796399E+03 -.24888490E+03 0.61793266E+03 0.91512103E+02 0.0000E+00 0.0000E+00
       24  1    3    3    0    0 -.31645483E+01 -.29768496E+03 0.14748059E+03 0.34182464E+03 0.80419002E+02 0.0000E+00 0.9000E+01
      -13  1    4    4    0    0 -.29137151E+01 0.44122549E+03 -.23479200E+03 0.49981568E+03 0.10565837E+00 0.0000E+00 0.9000E+01
       13  1    4    4    0    0 -.11185764E+02 0.11673850E+03 -.14092904E+02 0.11811697E+03 0.10565837E+00 0.0000E+00 0.9000E+01
      -24  1    3    3    0    0 0.17264027E+02 -.26027903E+03 -.10578950E+03 0.29274879E+03 0.80419002E+02 0.0000E+00 0.9000E+01
#aMCatNLO 1  0  0  1  2 0.88569168D+03 0.00000000D+00  -5  7  0 0.00000000D+00 0.00000000D+00 0.00000000D+00 0.00000000D+00 0.00000000D+00
  <mgrwgt>
 0.1110990510D-02    3    2    0
 0.617624936142674D+03 0.000000000000000D+00 0.000000000000000D+00 0.617624936142674D+03
 0.617624936142674D+03 0.000000000000000D+00 0.000000000000000D+00 -.617624936142674D+03
 0.371337432999837D+03 -.316454827738417D+01 -.297684955852396D+03 0.206876595790570D+03
 0.467415809764053D+03 -.291370407721122D+01 0.441225924408304D+03 -.154235965896329D+03
 0.117402716918713D+03 -.111857749619520D+02 0.116738066242768D+03 0.552270479885489D+01
 0.279093912602744D+03 0.172640273165474D+02 -.260279034798676D+03 -.581633346930957D+02
 0.000000000000000D+00 0.000000000000000D+00 0.000000000000000D+00 -.000000000000000D+00
 0.105502099042032D+04 0.000000000000000D+00 0.000000000000000D+00 0.105502099042032D+04
 0.142468282968715D+04 0.000000000000000D+00 0.000000000000000D+00 -.142468282968715D+04
 0.511490575640539D+03 -.278286064423048D+03 -.367306865545359D+03 0.206876595790570D+03
 0.499564050137592D+03 -.304260016761807D+03 0.364967600225014D+03 -.154235965896329D+03
 0.131703867179847D+03 -.888165030633541D+02 0.970929304606097D+02 0.552270479885489D+01
 0.377205977375358D+03 -.187263036856561D+03 -.312036400020841D+03 -.581633346930957D+02
 0.959739349774134D+03 0.858625621104770D+03 0.217282734880575D+03 -.369661839266839D+03
0.245379988759D-03 0.000000000000D+00 0.000000000000D+00 0.250676907232D-05 0.000000000000D+00  7 2 -2 24 -13 13 -24 21 0 0.80408638D-01 0.11228461D+00 0.32481265D+06 0.32481265D+06 0.32481265D+06 0.10820077D+01  1  2  2  1  7  1        2 0.110071601160D-02 0.100000000000D+01
-.135251342104D-04 0.000000000000D+00 -.942323766868D-06 0.250676907232D-05 0.000000000000D+00  7 2 -2 24 -13 13 -24 21 2 0.80408638D-01 0.11228461D+00 0.32481265D+06 0.32481265D+06 0.32481265D+06 0.10820077D+01  1  2  3  1  7  1        2 -.710294512287D-04 0.100000000000D+01
0.154815616858D-04 0.000000000000D+00 0.000000000000D+00 0.250676907232D-05 0.000000000000D+00  7 2 -2 24 -13 13 -24 21 2 0.80408638D-01 0.11228461D+00 0.32481265D+06 0.32481265D+06 0.32481265D+06 0.10820077D+01  1  2 15  1  7  1        2 0.813039496392D-04 0.100000000000D+01
  </mgrwgt>
  </event>
  <event>
  8     66 0.26993063E-05 0.28491422E+03 0.75467711E-02 0.94460879E-01
        2 -1    0    0  501    0 0.00000000E+00 0.00000000E+00 0.57403104E+03 0.57403113E+03 0.32000000E+00 0.0000E+00 0.9000E+01
       -2 -1    0    0    0  501 0.00000000E+00 0.00000000E+00 -.60473704E+03 0.60473713E+03 0.32000000E+00 0.0000E+00 0.9000E+01
       25  2    1    2    0    0 0.15762898E+03 0.15293529E+03 -.51747118E+03 0.63708938E+03 0.29978386E+03 0.0000E+00 0.0000E+00
       23  2    1    2    0    0 -.15762898E+03 -.15293529E+03 0.48676518E+03 0.54167887E+03 0.90772059E+02 0.0000E+00 0.0000E+00
       24  1    3    3    0    0 0.13819244E+03 -.14216560E+02 -.12814768E+03 0.20539792E+03 0.80419002E+02 0.0000E+00 0.9000E+01
      -13  1    4    4    0    0 -.52245333E+02 -.76413878E+02 0.11418603E+03 0.14699359E+03 0.10565837E+00 0.0000E+00 0.9000E+01
       13  1    4    4    0    0 -.10538364E+03 -.76521416E+02 0.37257915E+03 0.39468528E+03 0.10565837E+00 0.0000E+00 0.9000E+01
      -24  1    3    3    0    0 0.19436541E+02 0.16715185E+03 -.38932349E+03 0.43169146E+03 0.80419002E+02 0.0000E+00 0.9000E+01
#aMCatNLO 1  0  0  1  2 0.33638894D+03 0.00000000D+00  -5  7  0 0.00000000D+00 0.00000000D+00 0.00000000D+00 0.00000000D+00 0.00000000D+00
  <mgrwgt>
 0.1088420805D-02    4    2    0
 0.589184126366441D+03 0.000000000000000D+00 0.000000000000000D+00 0.589184126366441D+03
 0.589184126366441D+03 0.000000000000000D+00 0.000000000000000D+00 -.589184126366441D+03
 0.202128359676528D+03 0.138192436692703D+03 -.142165597452580D+02 -.122838909556769D+03
 0.150018609908871D+03 -.522452609529772D+02 -.764138776422921D+02 0.118054797999124D+03
 0.404528298179421D+03 -.105383716367624D+03 -.765214164135768D+02 0.382990716835992D+03
 0.421692984968063D+03 0.194365406278981D+02 0.167151853801127D+03 -.378206605278347D+03
 0.000000000000000D+00 0.000000000000000D+00 0.000000000000000D+00 -.000000000000000D+00
 0.697195883675879D+03 0.000000000000000D+00 0.000000000000000D+00 0.697195883675879D+03
 0.947607284255148D+03 0.000000000000000D+00 0.000000000000000D+00 -.947607284255148D+03
 0.175523838126139D+03 0.895976216440492D+02 -.349895740299029D+02 -.122838909556769D+03
 0.178299954203113D+03 -.944920160172706D+02 -.944732620756275D+02 0.118054797999124D+03
 0.456937482221551D+03 -.216233780296560D+03 -.123906923676937D+03 0.382990716835992D+03
 0.414681200677231D+03 -.881848345405273D+02 0.121146526659363D+03 -.378206605278347D+03
 0.419360692702993D+03 0.309313009210309D+03 0.132223233123105D+03 -.250411400579269D+03
0.184444640266D-03 0.000000000000D+00 0.000000000000D+00 0.951340890708D-05 0.000000000000D+00  7 2 -2 24 -13 13 -24 21 0 0.88312481D-01 0.93036481D-01 0.81176112D+05 0.81176112D+05 0.81176112D+05 0.11292312D+01  1  2  2  1  7  1        2 0.122596627067D-02 0.100000000000D+01
-.367024369780D-05 0.000000000000D+00 -.708315984012D-06 0.951340890708D-05 0.000000000000D+00  7 2 -2 24 -13 13 -24 21 2 0.88312481D-01 0.93036481D-01 0.81176112D+05 0.81176112D+05 0.81176112D+05 0.11292312D+01  1  2  3  1  7  1        2 -.311080713652D-04 0.100000000000D+01
0.112955806686D-04 0.000000000000D+00 0.000000000000D+00 0.951340890708D-05 0.000000000000D+00  7 2 -2 24 -13 13 -24 21 2 0.88312481D-01 0.93036481D-01 0.81176112D+05 0.81176112D+05 0.81176112D+05 0.11292312D+01  1  2 15  1  7  1        2 0.957385281422D-04 0.100000000000D+01
-.238534526381D-04 0.000000000000D+00 0.000000000000D+00 0.951340890708D-05 0.000000000000D+00  7 2 -2 24 -13 13 -24 21 2 0.88312481D-01 0.93036481D-01 0.81176112D+05 0.81176112D+05 0.81176112D+05 0.11292312D+01  1  2  4  1  7  1        2 -.202175922928D-03 0.100000000000D+01
  </mgrwgt>
  </event>
  <event>
  8     66 0.26993063E-05 0.49362787E+03 0.75467711E-02 0.86412283E-01
        2 -1    0    0  501    0 0.00000000E+00 0.00000000E+00 0.30178434E+04 0.30178434E+04 0.32000000E+00 0.0000E+00 0.9000E+01
       -2 -1    0    0    0  501 0.00000000E+00 0.00000000E+00 -.10973902E+03 0.10973949E+03 0.32000000E+00 0.0000E+00 0.9000E+01
       25  2    1    2    0    0 0.46346607E+03 0.22671494E+02 0.22503997E+04 0.23173499E+04 0.30082755E+03 0.0000E+00 0.0000E+00
       23  2    1    2    0    0 -.46346607E+03 -.22671494E+02 0.65770468E+03 0.81023295E+03 0.92667035E+02 0.0000E+00 0.0000E+00
       24  1    3    3    0    0 0.41217825E+02 -.10298130E+02 0.17048897E+03 0.19323215E+03 0.80419002E+02 0.0000E+00 0.9000E+01
      -11  1    4    4    0    0 -.22575301E+03 -.27638743E+02 0.24773068E+03 0.33630166E+03 0.51099893E-03 0.0000E+00 0.9000E+01
       11  1    4    4    0    0 -.23771306E+03 0.49672489E+01 0.40997400E+03 0.47393128E+03 0.51099893E-03 0.0000E+00 0.9000E+01
      -24  1    3    3    0    0 0.42224825E+03 0.32969624E+02 0.20799107E+04 0.21241178E+04 0.80419002E+02 0.0000E+00 0.9000E+01
#aMCatNLO 1  0  0  2  2 0.89619349D+03 0.00000000D+00  -5  7  0 0.00000000D+00 0.00000000D+00 0.00000000D+00 0.00000000D+00 0.00000000D+00
  <mgrwgt>
 0.6604762561D-03    5    2    0
 0.575478866800932D+03 0.000000000000000D+00 0.000000000000000D+00 0.575478866800932D+03
 0.575478866800932D+03 0.000000000000000D+00 0.000000000000000D+00 -.575478866800932D+03
 0.943126385661821D+02 0.412178246375890D+02 -.102981300218285D+02 -.249539032847217D+02
 0.287920792741794D+03 -.225753007650124D+03 -.276387431996645D+02 -.176550452574693D+03
 0.251974648830540D+03 -.237713064788169D+03 0.496724888843656D+01 -.834209141688714D+02
 0.516749653463348D+03 0.422248247800704D+03 0.329696243330565D+02 0.284925270028286D+03
 0.000000000000000D+00 -.000000000000000D+00 -.000000000000000D+00 -.000000000000000D+00
 0.808151742199590D+03 0.000000000000000D+00 0.000000000000000D+00 0.808151742199590D+03
 0.327774620544466D+04 0.000000000000000D+00 0.000000000000000D+00 -.327774620544466D+04
 0.131318431107614D+03 0.855516619486885D+02 0.532496971152767D+02 -.249539032847217D+02
 0.246683187304848D+03 -.120709646771147D+03 0.122929710692472D+03 -.176550452574693D+03
 0.216618944060520D+03 -.145639964473170D+03 0.136944217670473D+03 -.834209141688714D+02
 0.864100272329500D+03 0.693568930939112D+03 0.421878884540138D+03 0.284925270028286D+03
 0.262717711284177D+04 -.512770981643482D+03 -.735002510018360D+03 -.246959446324507D+04
0.114192134281D-03 0.000000000000D+00 0.000000000000D+00 0.105519994314D-05 0.000000000000D+00  7 2 -2 24 -11 11 -24 21 0 0.46428363D+00 0.16882963D-01 0.24366848D+06 0.24366848D+06 0.24366848D+06 0.10912982D+01  1  2  2  2  7  2       -2 0.672034379542D-03 0.100000000000D+01
-.616245074117D-05 0.000000000000D+00 -.438527863118D-06 0.105519994314D-05 0.000000000000D+00  7 2 -2 24 -11 11 -24 21 2 0.46428363D+00 0.16882963D-01 0.24366848D+06 0.24366848D+06 0.24366848D+06 0.10912982D+01  1  2  3  2  7  2       -2 -.431912371556D-04 0.100000000000D+01
0.729357073082D-05 0.000000000000D+00 0.000000000000D+00 0.105519994314D-05 0.000000000000D+00  7 2 -2 24 -11 11 -24 21 2 0.46428363D+00 0.16882963D-01 0.24366848D+06 0.24366848D+06 0.24366848D+06 0.10912982D+01  1  2 15  2  7  2       -2 0.511190038472D-04 0.100000000000D+01
-.538481403392D-04 0.000000000000D+00 -.747152224891D-04 0.105519994314D-05 0.000000000000D+00  7 2 -2 24 -11 11 -24 21 2 0.46428363D+00 0.15450834D+00 0.24366848D+06 0.24366848D+06 0.24366848D+06 0.10912982D+01  1  2  5  2  7  2       -2 -.392194734296D-05 0.100000000000D+01
-.250859523659D-04 0.000000000000D+00 -.198615166908D-04 0.105519994314D-05 0.000000000000D+00  7 2 21 24 -11 11 -24 2 2 0.46428363D+00 0.15450834D+00 0.24366848D+06 0.24366848D+06 0.24366848D+06 0.10912982D+01  1  2  5  4  7  2       -2 -.155639427610D-04 0.100000000000D+01
  </mgrwgt>
  </event>
  <event>
  8     66 0.26993063E-05 0.21486176E+03 0.75467711E-02 0.97562449E-01
        2 -1    0    0  501    0 0.00000000E+00 0.00000000E+00 0.38395835E+04 0.38395835E+04 0.32000000E+00 0.0000E+00 0.9000E+01
       -2 -1    0    0    0  501 0.00000000E+00 0.00000000E+00 -.28918616E+02 0.28920386E+02 0.32000000E+00 0.0000E+00 0.9000E+01
       25  2    1    2    0    0 -.33999673E+02 -.10359878E+03 0.36023263E+04 0.36165807E+04 0.30168324E+03 0.0000E+00 0.0000E+00
       23  2    1    2    0    0 0.33999673E+02 0.10359878E+03 0.20833856E+03 0.25192314E+03 0.90397052E+02 0.0000E+00 0.0000E+00
       24  1    3    3    0    0 -.10207460E+03 0.41101173E+02 0.18957668E+04 0.19006598E+04 0.80419002E+02 0.0000E+00 0.9000E+01
      -11  1    4    4    0    0 0.24033548E+02 0.10142610E+03 0.21555088E+03 0.23943067E+03 0.51099893E-03 0.0000E+00 0.9000E+01
       11  1    4    4    0    0 0.99661256E+01 0.21726777E+01 -.72123179E+01 0.12492466E+02 0.51099893E-03 0.0000E+00 0.9000E+01
      -24  1    3    3    0    0 0.68074931E+02 -.14469995E+03 0.17065595E+04 0.17159210E+04 0.80419002E+02 0.0000E+00 0.9000E+01
#aMCatNLO 1  0  0  2  2 0.28202347D+03 0.00000000D+00  -5  7  0 0.00000000D+00 0.00000000D+00 0.00000000D+00 0.00000000D+00 0.00000000D+00
  <mgrwgt>
 0.1157756042D-02    3    2    0
 0.333224984602292D+03 0.000000000000000D+00 0.000000000000000D+00 0.333224984602292D+03
 0.333224984602292D+03 0.000000000000000D+00 0.000000000000000D+00 -.333224984602292D+03
 0.192929268016942D+03 -.102074604065063D+03 0.411011734631515D+02 0.136550193145580D+03
 0.157320624856069D+03 0.240335478364658D+02 0.101426102169576D+03 -.117834262344120D+03
 0.113753297049394D+03 0.996612563322345D+01 0.217267766515357D+01 -.113295050206237D+03
 0.202446779282180D+03 0.680749305953734D+02 -.144699953297881D+03 0.945791194047772D+02
 0.000000000000000D+00 0.000000000000000D+00 0.000000000000000D+00 0.000000000000000D+00
 0.522526111069937D+03 0.000000000000000D+00 0.000000000000000D+00 0.522526111069937D+03
 0.485574089555864D+03 0.000000000000000D+00 0.000000000000000D+00 -.485574089555864D+03
 0.197787386899045D+03 -.112247975849157D+03 -.375109468242776D+02 0.136550193145580D+03
 0.126955870484710D+03 0.166316353758797D+02 0.442297227333750D+02 -.117834262344120D+03
 0.122066194225229D+03 0.382592319115292D+01 -.452741613189362D+02 -.113295050206237D+03
 0.276856768849485D+03 0.555949578805488D+02 -.241135740474703D+03 0.945791194047772D+02
 0.284433980167332D+03 0.361954594015757D+02 0.279691125884542D+03 0.369520215140726D+02
0.836294701913D-04 0.000000000000D+00 0.000000000000D+00 0.144419667986D-06 0.000000000000D+00  7 2 -2 24 -11 11 -24 21 0 0.59070529D+00 0.44491550D-02 0.46165576D+05 0.46165576D+05 0.46165576D+05 0.11503559D+01  1  2  2  2  7  2       -2 0.112734540809D-02 0.100000000000D+01
-.355828635755D-05 0.000000000000D+00 -.321159185680D-06 0.144419667986D-06 0.000000000000D+00  7 2 -2 24 -11 11 -24 21 2 0.59070529D+00 0.44491550D-02 0.46165576D+05 0.46165576D+05 0.46165576D+05 0.11503559D+01  1  2  3  2  7  2       -2 -.634750386835D-04 0.100000000000D+01
0.526304692736D-05 0.000000000000D+00 0.000000000000D+00 0.144419667986D-06 0.000000000000D+00  7 2 -2 24 -11 11 -24 21 2 0.59070529D+00 0.44491550D-02 0.46165576D+05 0.46165576D+05 0.46165576D+05 0.11503559D+01  1  2 15  2  7  2       -2 0.938856724103D-04 0.100000000000D+01
  </mgrwgt>
  </event>
  <event>
  8     66 0.26993063E-05 0.27807255E+03 0.75467711E-02 0.95309575E-01
        2 -1    0    0  501    0 0.00000000E+00 0.00000000E+00 0.16400210E+04 0.16400211E+04 0.32000000E+00 0.0000E+00 0.9000E+01
       -2 -1    0    0    0  501 0.00000000E+00 0.00000000E+00 -.63979597E+02 0.63980397E+02 0.32000000E+00 0.0000E+00 0.9000E+01
       25  2    1    2    0    0 0.82810843E+02 0.17440976E+03 0.54738762E+03 0.65320682E+03 0.29961566E+03 0.0000E+00 0.0000E+00
       23  2    1    2    0    0 -.82810843E+02 -.17440976E+03 0.10286538E+04 0.10507946E+04 0.93617917E+02 0.0000E+00 0.0000E+00
       24  1    3    3    0    0 -.83340394E+02 0.33499715E+02 0.14457092E+03 0.18824404E+03 0.80419002E+02 0.0000E+00 0.9000E+01
      -11  1    4    4    0    0 -.98789689E+01 -.95100058E+02 0.31940413E+03 0.33340758E+03 0.51099893E-03 0.0000E+00 0.9000E+01
       11  1    4    4    0    0 -.72931874E+02 -.79309697E+02 0.70924969E+03 0.71738707E+03 0.51099893E-03 0.0000E+00 0.9000E+01
      -24  1    3    3    0    0 0.16615124E+03 0.14091004E+03 0.40281670E+03 0.46496278E+03 0.80419002E+02 0.0000E+00 0.9000E+01
#aMCatNLO 1  0  0  1  2 0.31431496D+03 0.00000000D+00  -5  7  0 0.00000000D+00 0.00000000D+00 0.00000000D+00 0.00000000D+00 0.00000000D+00
  <mgrwgt>
 0.1058574644D-02    3    2    0
 0.323926834145225D+03 0.000000000000000D+00 0.000000000000000D+00 0.323926834145225D+03
 0.323926834145225D+03 0.000000000000000D+00 0.000000000000000D+00 -.323926834145225D+03
 0.143424922343826D+03 -.833403941810721D+02 0.334997153012048D+02 -.776893825914691D+02
 0.999189488875563D+02 -.987896891633652D+01 -.951000581417972D+02 0.290203594286997D+02
 0.161489734532223D+03 -.729318735914735D+02 -.793096973447298D+02 0.120290681604240D+03
 0.243020062526844D+03 0.166151236688882D+03 0.140910040185322D+03 -.716216584414701D+02
 0.000000000000000D+00 -.000000000000000D+00 0.000000000000000D+00 -.000000000000000D+00
 0.407217223014653D+03 0.000000000000000D+00 0.000000000000000D+00 0.407217223014653D+03
 0.883536264972146D+03 0.000000000000000D+00 0.000000000000000D+00 -.883536264972146D+03
 0.116201593130324D+03 -.313311232660749D+02 0.427958398645382D+01 -.776893825914691D+02
 0.129478721289457D+03 0.360747563944875D+02 -.120918029906463D+03 0.290203594286997D+02
 0.167490856289909D+03 -.702935726876102D+01 -.116335407319966D+03 0.120290681604240D+03
 0.306904013993273D+03 0.276313907193398D+03 0.790178497836029D+02 -.716216584414701D+02
 0.570678303283837D+03 -.274028183053050D+03 0.153956003456373D+03 -.476319041957493D+03
0.120437423295D-04 0.000000000000D+00 0.000000000000D+00 0.271175426856D-06 0.000000000000D+00  7 2 -2 24 -11 11 -24 21 0 0.25231099D+00 0.98430789D-02 0.77324345D+05 0.77324345D+05 0.77324345D+05 0.11310039D+01  1  2  2  1  7  1        2 0.104536283921D-02 0.100000000000D+01
-.650143613295D-06 0.000000000000D+00 -.462511417354D-07 0.271175426856D-06 0.000000000000D+00  7 2 -2 24 -11 11 -24 21 2 0.25231099D+00 0.98430789D-02 0.77324345D+05 0.77324345D+05 0.77324345D+05 0.11310039D+01  1  2  3  1  7  1        2 -.721843538198D-04 0.100000000000D+01
0.769138525227D-06 0.000000000000D+00 0.000000000000D+00 0.271175426856D-06 0.000000000000D+00  7 2 -2 24 -11 11 -24 21 2 0.25231099D+00 0.98430789D-02 0.77324345D+05 0.77324345D+05 0.77324345D+05 0.11310039D+01  1  2 15  1  7  1        2 0.853961591040D-04 0.100000000000D+01
  </mgrwgt>
  </event>
  <event>
  8     66 0.26993063E-05 0.40832924E+03 0.75467711E-02 0.90940949E-01
        2 -1    0    0  501    0 0.00000000E+00 0.00000000E+00 0.13339942E+04 0.13339942E+04 0.32000000E+00 0.0000E+00 0.9000E+01
       -2 -1    0    0    0  501 0.00000000E+00 0.00000000E+00 -.21620270E+03 0.21620293E+03 0.32000000E+00 0.0000E+00 0.9000E+01
       25  2    1    2    0    0 0.20271377E+03 0.30406294E+03 0.12396554E+03 0.48752990E+03 0.29794429E+03 0.0000E+00 0.0000E+00
       23  2    1    2    0    0 -.20271377E+03 -.30406294E+03 0.99382594E+03 0.10626673E+04 0.89579826E+02 0.0000E+00 0.0000E+00
       24  1    3    3    0    0 0.74244706E+02 0.85762598E+01 0.10959924E+03 0.15512910E+03 0.80419002E+02 0.0000E+00 0.9000E+01
      -11  1    4    4    0    0 -.18324844E+03 -.20993484E+03 0.77818698E+03 0.82657583E+03 0.51099893E-03 0.0000E+00 0.9000E+01
       11  1    4    4    0    0 -.19465333E+02 -.94128101E+02 0.21563896E+03 0.23609142E+03 0.51099893E-03 0.0000E+00 0.9000E+01
      -24  1    3    3    0    0 0.12846907E+03 0.29548668E+03 0.14366299E+02 0.33240079E+03 0.80419002E+02 0.0000E+00 0.9000E+01
#aMCatNLO 1  0  0  1  2 0.47023657D+03 0.00000000D+00  -5  7  0 0.00000000D+00 0.00000000D+00 0.00000000D+00 0.00000000D+00 0.00000000D+00
  <mgrwgt>
 0.6741002726D-03    3    2    0
 0.537041294182657D+03 0.000000000000000D+00 0.000000000000000D+00 0.537041294182657D+03
 0.537041294182657D+03 0.000000000000000D+00 0.000000000000000D+00 -.537041294182657D+03
 0.109834750556084D+03 0.742447059693631D+02 0.857625975367343D+01 -.326004286890399D+01
 0.383122047055482D+03 -.183248440937865D+03 -.209934840416179D+03 0.262925606613844D+03
 0.116330772383602D+03 -.194653332971231D+02 -.941281009042416D+02 0.655274753302632D+02
 0.464795018370145D+03 0.128469068265625D+03 0.295486681566747D+03 -.325193039075204D+03
 0.000000000000000D+00 -.000000000000000D+00 0.000000000000000D+00 -.000000000000000D+00
 0.771222826715702D+03 0.000000000000000D+00 0.000000000000000D+00 0.771222826715702D+03
 0.885118915568510D+03 0.000000000000000D+00 0.000000000000000D+00 -.885118915568510D+03
 0.148550266419697D+03 0.124285041418983D+03 -.119401130215342D+02 -.326004286890399D+01
 0.378866374409625D+03 -.356773601332285D+02 -.270438497664368D+03 0.262925606613844D+03
 0.134738869113297D+03 0.291582642658048D+02 -.114063615810553D+03 0.655274753302632D+02
 0.510352842545723D+03 0.317321837843140D+03 0.218057667842738D+03 -.325193039075204D+03
 0.483833389795869D+03 -.435087783394700D+03 0.178384558653717D+03 -.113896088852808D+03
0.394397883274D-04 0.000000000000D+00 0.000000000000D+00 0.112834791124D-06 0.000000000000D+00  7 2 -2 24 -11 11 -24 21 0 0.20522990D+00 0.33261974D-01 0.16673277D+06 0.16673277D+06 0.16673277D+06 0.11039455D+01  1  2  2  1  7  1        2 0.664477896628D-03 0.100000000000D+01
-.199109084733D-05 0.000000000000D+00 -.151459171912D-06 0.112834791124D-06 0.000000000000D+00  7 2 -2 24 -11 11 -24 21 2 0.20522990D+00 0.33261974D-01 0.16673277D+06 0.16673277D+06 0.16673277D+06 0.11039455D+01  1  2  3  1  7  1        2 -.408820187271D-04 0.100000000000D+01
0.245973269389D-05 0.000000000000D+00 0.000000000000D+00 0.112834791124D-06 0.000000000000D+00  7 2 -2 24 -11 11 -24 21 2 0.20522990D+00 0.33261974D-01 0.16673277D+06 0.16673277D+06 0.16673277D+06 0.11039455D+01  1  2 15  1  7  1        2 0.505043947092D-04 0.100000000000D+01
  </mgrwgt>
  </event>
  <event>
  8     66 0.26993063E-05 0.16500865E+03 0.75467711E-02 0.10374842E+00
        2 -1    0    0  501    0 0.00000000E+00 0.00000000E+00 0.96470471E+03 0.96470476E+03 0.32000000E+00 0.0000E+00 0.9000E+01
       -2 -1    0    0    0  501 0.00000000E+00 0.00000000E+00 -.41371021E+02 0.41372258E+02 0.32000000E+00 0.0000E+00 0.9000E+01
       25  2    1    2    0    0 -.32730720E+02 -.17403915E+02 0.71325380E+03 0.77367946E+03 0.29744703E+03 0.0000E+00 0.0000E+00
       23  2    1    2    0    0 0.32730720E+02 0.17403915E+02 0.21007989E+03 0.23239756E+03 0.92200150E+02 0.0000E+00 0.0000E+00
       24  1    3    3    0    0 -.65456357E+02 0.86577723E+02 0.18967546E+03 0.23286098E+03 0.80419002E+02 0.0000E+00 0.9000E+01
      -11  1    4    4    0    0 0.88841855E+01 0.30843608E+02 0.15040654E+02 0.35446836E+02 0.51099893E-03 0.0000E+00 0.9000E+01
       11  1    4    4    0    0 0.23846534E+02 -.13439693E+02 0.19503924E+03 0.19695072E+03 0.51099893E-03 0.0000E+00 0.9000E+01
      -24  1    3    3    0    0 0.32725638E+02 -.10398164E+03 0.52357833E+03 0.54081849E+03 0.80419002E+02 0.0000E+00 0.9000E+01
#aMCatNLO 1  0  0  1  1 0.13051171D+03 0.00000000D+00  -5  7  0 0.00000000D+00 0.00000000D+00 0.00000000D+00 0.00000000D+00 0.00000000D+00
  <mgrwgt>
 0.2163866334D-02    3    2    0
 0.199778547030152D+03 0.000000000000000D+00 0.000000000000000D+00 0.199778547030152D+03
 0.199778547030152D+03 0.000000000000000D+00 0.000000000000000D+00 -.199778547030152D+03
 0.148019723396167D+03 -.654563624232155D+02 0.865777159909618D+02 -.605176525653147D+02
 0.544971091246117D+02 0.888419306618036D+01 0.308436121044076D+02 -.440417711820893D+02
 0.452032943702654D+02 0.238465402798803D+02 -.134396893474202D+02 0.359729772030305D+02
 0.151836967169261D+03 0.327256290771548D+02 -.103981638747949D+03 0.685864465443735D+02
 0.000000000000000D+00 -.000000000000000D+00 0.000000000000000D+00 -.000000000000000D+00
 0.213956478084295D+03 0.000000000000000D+00 0.000000000000000D+00 0.213956478084295D+03
 0.133362628963193D+04 0.000000000000000D+00 0.000000000000000D+00 -.133362628963193D+04
 0.122177333559632D+03 -.520378257233790D+02 0.457139289860109D+02 -.605176525653147D+02
 0.486641305896929D+02 0.140073905454685D+02 0.152418177164633D+02 -.440417711820893D+02
 0.541546102667650D+02 0.287808563853624D+02 -.284662788228564D+02 0.359729772030305D+02
 0.195336147741857D+03 0.499669537463330D+02 -.156487052320585D+03 0.685864465443735D+02
 0.112725054555828D+04 -.407173749537849D+02 0.123997584440967D+03 -.111966981154764D+04
0.538808057110D-05 0.000000000000D+00 0.000000000000D+00 0.133694586700D-07 0.000000000000D+00  7 2 -2 24 -11 11 -24 21 0 0.14841621D+00 0.63648717D-02 0.27227854D+05 0.27227854D+05 0.27227854D+05 0.11712630D+01  1  2  2  1  7  1        2 0.212680666066D-02 0.100000000000D+01
-.286031073067D-06 0.000000000000D+00 -.206916481072D-07 0.133694586700D-07 0.000000000000D+00  7 2 -2 24 -11 11 -24 21 2 0.14841621D+00 0.63648717D-02 0.27227854D+05 0.27227854D+05 0.27227854D+05 0.11712630D+01  1  2  3  1  7  1        2 -.154887372130D-03 0.100000000000D+01
0.354469306561D-06 0.000000000000D+00 0.000000000000D+00 0.133694586700D-07 0.000000000000D+00  7 2 -2 24 -11 11 -24 21 2 0.14841621D+00 0.63648717D-02 0.27227854D+05 0.27227854D+05 0.27227854D+05 0.11712630D+01  1  2 15  1  7  1        2 0.191947045491D-03 0.100000000000D+01
  </mgrwgt>
  </event>
  <event>
  8     66 0.26993063E-05 0.19348857E+03 0.75467711E-02 0.10164530E+00
        2 -1    0    0  501    0 0.00000000E+00 0.00000000E+00 0.19239410E+03 0.19239437E+03 0.32000000E+00 0.0000E+00 0.9000E+01
       -2 -1    0    0    0  501 0.00000000E+00 0.00000000E+00 -.50648701E+03 0.50648711E+03 0.32000000E+00 0.0000E+00 0.9000E+01
       25  2    1    2    0    0 0.10304556E+03 0.14183064E+03 -.24214255E+02 0.34792097E+03 0.29954691E+03 0.0000E+00 0.0000E+00
       23  2    1    2    0    0 -.10304556E+03 -.14183064E+03 -.28987865E+03 0.35096051E+03 0.91702402E+02 0.0000E+00 0.0000E+00
       24  1    3    3    0    0 -.58629630E+02 0.13187534E+03 -.24859256E+02 0.16707405E+03 0.80419002E+02 0.0000E+00 0.9000E+01
      -11  1    4    4    0    0 -.43413441E+02 -.40565704E+02 -.31814018E+02 0.67397588E+02 0.51099893E-03 0.0000E+00 0.9000E+01
       11  1    4    4    0    0 -.59632122E+02 -.10126494E+03 -.25806463E+03 0.28356293E+03 0.51099893E-03 0.0000E+00 0.9000E+01
      -24  1    3    3    0    0 0.16167519E+03 0.99552988E+01 0.64500108E+00 0.18084692E+03 0.80419002E+02 0.0000E+00 0.9000E+01
#aMCatNLO 1  0  0  2  1 0.41557493D+02 0.00000000D+00  -5  7  0 0.00000000D+00 0.00000000D+00 0.00000000D+00 0.00000000D+00 0.00000000D+00
  <mgrwgt>
 0.5748578611D-03    9    2    0
 0.312162207103645D+03 0.000000000000000D+00 0.000000000000000D+00 0.312162207103645D+03
 0.312162207103645D+03 0.000000000000000D+00 0.000000000000000D+00 -.312162207103645D+03
 0.174519596327372D+03 -.586296299625790D+02 0.131875344493263D+03 0.562257374618846D+02
 0.594408420688071D+02 -.434134405567408D+02 -.405657035527560D+02 -.170604224599543D+01
 0.187595751604468D+03 -.596321219908436D+02 -.101264939790806D+03 -.146224443975960D+03
 0.202768224206643D+03 0.161675192510163D+03 0.995529885029952D+01 0.917047487600710D+02
 0.000000000000000D+00 -.000000000000000D+00 -.000000000000000D+00 -.000000000000000D+00
 0.320894548812464D+03 0.000000000000000D+00 0.000000000000000D+00 0.320894548812464D+03
 0.366543694334022D+03 0.000000000000000D+00 0.000000000000000D+00 -.366543694334022D+03
 0.178624396993338D+03 -.505842545369226D+02 0.140425634720567D+03 0.562257374618846D+02
 0.556255700530504D+02 -.407919815997343D+02 -.377797260544414D+02 -.170604224599543D+01
 0.180381726350635D+03 -.512488080613146D+02 -.923555025835023D+02 -.146224443975960D+03
 0.211074307400375D+03 0.171103410452012D+03 0.199752165625307D+02 0.917047487600710D+02
 0.617322423490878D+02 -.284783662540408D+02 -.302656226451537D+02 -.456491455215579D+02
0.120930113456D-04 0.000000000000D+00 0.000000000000D+00 0.103017961959D-05 0.000000000000D+00  7 2 -2 24 -11 11 -24 21 0 0.29599121D-01 0.77921107D-01 0.68380893D+05 0.68380893D+05 0.68380893D+05 0.11355246D+01  1  2  2  2  7  2       -2 0.401622793850D-03 0.100000000000D+01
-.646214286913D-06 0.000000000000D+00 -.464403477302D-07 0.103017961959D-05 0.000000000000D+00  7 2 -2 24 -11 11 -24 21 2 0.29599121D-01 0.77921107D-01 0.68380893D+05 0.68380893D+05 0.68380893D+05 0.11355246D+01  1  2  3  2  7  2       -2 -.276728285858D-04 0.100000000000D+01
0.775274315846D-06 0.000000000000D+00 0.000000000000D+00 0.103017961959D-05 0.000000000000D+00  7 2 -2 24 -11 11 -24 21 2 0.29599121D-01 0.77921107D-01 0.68380893D+05 0.68380893D+05 0.68380893D+05 0.11355246D+01  1  2 15  2  7  2       -2 0.331995650418D-04 0.100000000000D+01
0.321782880619D-04 0.000000000000D+00 0.000000000000D+00 0.103017961959D-05 0.000000000000D+00  7 2 -2 24 -11 11 -24 21 2 0.29599121D-01 0.92457312D-01 0.79083382D+05 0.79083382D+05 0.79083382D+05 0.11301825D+01  1  2 12  2  7  2       -2 0.925722276948D-03 0.100000000000D+01
-.327598795220D-04 0.000000000000D+00 0.000000000000D+00 0.103017961959D-05 0.000000000000D+00  7 2 -2 24 -11 11 -24 21 2 0.29599121D-01 0.77921107D-01 0.68380893D+05 0.68380893D+05 0.68380893D+05 0.11355246D+01  1  2  4  2  7  2       -2 -.140287602559D-02 0.100000000000D+01
-.516392380306D-04 0.000000000000D+00 -.889087461858D-05 0.103017961959D-05 0.000000000000D+00  7 2 -2 24 -11 11 -24 21 2 0.29599121D-01 0.93108494D-01 0.68380893D+05 0.68380893D+05 0.68380893D+05 0.11355246D+01  1  2  5  2  7  2       -2 -.147816810134D-02 0.100000000000D+01
0.525265725049D-04 0.000000000000D+00 0.875175548605D-05 0.103017961959D-05 0.000000000000D+00  7 2 -2 24 -11 11 -24 21 2 0.29599121D-01 0.77921107D-01 0.68380893D+05 0.68380893D+05 0.68380893D+05 0.11355246D+01  1  2  6  2  7  2       -2 0.224934494108D-02 0.100000000000D+01
0.815308732878D-06 0.000000000000D+00 0.000000000000D+00 0.103017961959D-05 0.000000000000D+00  7 2 21 24 -11 11 -24 2 2 0.29599121D-01 0.92457312D-01 0.79083382D+05 0.79083382D+05 0.79083382D+05 0.11301825D+01  1  2 12  4  7  2       -2 0.228850097753D-03 0.100000000000D+01
-.126678535099D-05 0.000000000000D+00 -.232513774728D-06 0.103017961959D-05 0.000000000000D+00  7 2 21 24 -11 11 -24 2 2 0.29599121D-01 0.93108494D-01 0.68380893D+05 0.68380893D+05 0.68380893D+05 0.11355246D+01  1  2  5  4  7  2       -2 -.355164858112D-03 0.100000000000D+01
  </mgrwgt>
  </event>
  <event>
  8     66 0.26993063E-05 0.18409417E+03 0.75467711E-02 0.10045528E+00
        2 -1    0    0  501    0 0.00000000E+00 0.00000000E+00 0.21050289E+03 0.21050314E+03 0.32000000E+00 0.0000E+00 0.9000E+01
       -2 -1    0    0    0  501 0.00000000E+00 0.00000000E+00 -.33174970E+03 0.33174986E+03 0.32000000E+00 0.0000E+00 0.9000E+01
       25  2    1    2    0    0 0.21760058E+02 -.56302265E+02 0.83087153E+02 0.31767459E+03 0.30061641E+03 0.0000E+00 0.0000E+00
       23  2    1    2    0    0 -.21760058E+02 0.56302265E+02 -.20433396E+03 0.22457840E+03 0.70990461E+02 0.0000E+00 0.0000E+00
       24  1    3    3    0    0 0.82511341E+02 -.12701417E+03 0.91310257E+02 0.19428201E+03 0.80419002E+02 0.0000E+00 0.9000E+01
      -11  1    4    4    0    0 -.32747445E+02 0.52651428E+02 -.20376100E+03 0.21298618E+03 0.51099893E-03 0.0000E+00 0.9000E+01
       11  1    4    4    0    0 0.10987387E+02 0.36508370E+01 -.57296019E+00 0.11592220E+02 0.51099893E-03 0.0000E+00 0.9000E+01
      -24  1    3    3    0    0 -.60751283E+02 0.70711910E+02 -.82231046E+01 0.12339258E+03 0.80419002E+02 0.0000E+00 0.9000E+01
#aMCatNLO 1  0  0  2  2 0.19290096D+03 0.00000000D+00  -5  7  0 0.00000000D+00 0.00000000D+00 0.00000000D+00 0.00000000D+00 0.00000000D+00
  <mgrwgt>
 0.5524875005D-02    3    2    0
 0.264261953404925D+03 0.000000000000000D+00 0.000000000000000D+00 0.264261953404925D+03
 0.264261953404925D+03 0.000000000000000D+00 0.000000000000000D+00 -.264261953404925D+03
 0.220275903604188D+03 0.825113412367401D+02 -.127014174772995D+03 0.138251711484235D+03
 0.171774677361874D+03 -.327474446139535D+02 0.526514277263011D+02 -.160193544852513D+03
 0.117619018415278D+02 0.109873867074029D+02 0.365083700050549D+01 0.207148677704245D+01
 0.124711424002260D+03 -.607512833301894D+02 0.707119100461883D+02 0.198703465912356D+02
 0.000000000000000D+00 -.000000000000000D+00 -.000000000000000D+00 0.000000000000000D+00
 0.452072589268103D+03 0.000000000000000D+00 0.000000000000000D+00 0.452072589268103D+03
 0.335791483756192D+03 0.000000000000000D+00 0.000000000000000D+00 -.335791483756192D+03
 0.200317790433329D+03 0.106486993964610D+03 -.566302533791049D+02 0.138251711484235D+03
 0.197194620622979D+03 -.117146048896809D+02 0.114396305108624D+03 -.160193544852513D+03
 0.150752071700775D+02 0.125172175512882D+02 0.814187193015329D+01 0.207148677704245D+01
 0.150038634503866D+03 -.450893462087135D+02 0.116689742797853D+03 0.198703465912356D+02
 0.225237820294042D+03 -.622002604175038D+02 -.182597666457526D+03 0.116281105511911D+03
0.749205747759D-04 0.000000000000D+00 0.000000000000D+00 0.252325441104D-08 0.000000000000D+00  7 2 -2 24 -11 11 -24 21 0 0.32385091D-01 0.51038446D-01 0.33890662D+05 0.33890662D+05 0.33890662D+05 0.11624540D+01  1  2  2  2  7  2       -2 0.540855491516D-02 0.100000000000D+01
-.350093516160D-05 0.000000000000D+00 -.287714734180D-06 0.252325441104D-08 0.000000000000D+00  7 2 -2 24 -11 11 -24 21 2 0.32385091D-01 0.51038446D-01 0.33890662D+05 0.33890662D+05 0.33890662D+05 0.11624540D+01  1  2  3  2  7  2       -2 -.341519688032D-03 0.100000000000D+01
0.469333813498D-05 0.000000000000D+00 0.000000000000D+00 0.252325441104D-08 0.000000000000D+00  7 2 -2 24 -11 11 -24 21 2 0.32385091D-01 0.51038446D-01 0.33890662D+05 0.33890662D+05 0.33890662D+05 0.11624540D+01  1  2 15  2  7  2       -2 0.457839777574D-03 0.100000000000D+01
  </mgrwgt>
  </event>
  <event>
  8     66 0.26993063E-05 0.48379878E+03 0.75467711E-02 0.88296213E-01
        2 -1    0    0  501    0 0.00000000E+00 0.00000000E+00 0.35972169E+04 0.35972169E+04 0.32000000E+00 0.0000E+00 0.9000E+01
       -2 -1    0    0    0  501 0.00000000E+00 0.00000000E+00 -.97223696E+02 0.97224223E+02 0.32000000E+00 0.0000E+00 0.9000E+01
       25  2    1    2    0    0 0.11174800E+03 0.43124848E+03 0.28572303E+04 0.29072474E+04 0.29976618E+03 0.0000E+00 0.0000E+00
       23  2    1    2    0    0 -.11174800E+03 -.43124848E+03 0.64276286E+03 0.78719366E+03 0.89815913E+02 0.0000E+00 0.0000E+00
       24  1    3    3    0    0 0.16765863E+03 0.34290958E+03 0.17974372E+04 0.18392782E+04 0.80419002E+02 0.0000E+00 0.9000E+01
      -13  1    4    4    0    0 -.46440021E+00 -.70670593E+01 0.46461193E+02 0.46998006E+02 0.10565837E+00 0.0000E+00 0.9000E+01
       13  1    4    4    0    0 -.11128360E+03 -.42418142E+03 0.59630167E+03 0.74019565E+03 0.10565837E+00 0.0000E+00 0.9000E+01
      -24  1    3    3    0    0 -.55910628E+02 0.88338902E+02 0.10597931E+04 0.10679693E+04 0.80419002E+02 0.0000E+00 0.9000E+01
#aMCatNLO 1  0  0  2  1 0.69434622D+03 0.00000000D+00  -5  7  0 0.00000000D+00 0.00000000D+00 0.00000000D+00 0.00000000D+00 0.00000000D+00
  <mgrwgt>
 0.1120956834D-02    5    2    0
 0.591384577833314D+03 0.000000000000000D+00 0.000000000000000D+00 0.591384577833314D+03
 0.591384577833314D+03 0.000000000000000D+00 0.000000000000000D+00 -.591384577833314D+03
 0.426192093360402D+03 0.167658627305685D+03 0.342909581878511D+03 0.171686015255843D+03
 0.931426706427590D+01 -.464246848375030D+00 -.706648209152035D+01 0.605019641488199D+01
 0.547493460221404D+03 -.111283752530214D+03 -.424182001972056D+03 -.327772245028433D+03
 0.199769335020545D+03 -.559106279270959D+02 0.883389021850652D+02 0.150036033357708D+03
 0.000000000000000D+00 -.000000000000000D+00 -.000000000000000D+00 -.000000000000000D+00
 0.896320823208127D+03 0.000000000000000D+00 0.000000000000000D+00 0.896320823208127D+03
 0.125817459567829D+04 0.000000000000000D+00 0.000000000000000D+00 -.125817459567829D+04
 0.713622548806977D+03 0.357398579482118D+03 0.587860607424184D+03 0.171686015255843D+03
 0.735417947667153D+01 0.231047645533768D+01 -.348436187353957D+01 0.605019641488199D+01
 0.397992965263961D+03 0.461072323881176D+02 -.220992938597888D+03 -.327772245028433D+03
 0.252547549223463D+03 0.193845830748070D+02 0.185543728801886D+03 0.150036033357708D+03
 0.782978176115343D+03 -.425200871400380D+03 -.548927035754642D+03 -.361853772470161D+03
0.351011923252D-03 0.000000000000D+00 0.000000000000D+00 0.398232569803D-05 0.000000000000D+00  7 2 -2 24 -13 13 -24 21 0 0.55341802D+00 0.14957533D-01 0.23406126D+06 0.23406126D+06 0.23406126D+06 0.10926180D+01  1  2  2  2  7  2       -2 0.102224378752D-02 0.100000000000D+01
-.185446858555D-04 0.000000000000D+00 -.134797820885D-05 0.398232569803D-05 0.000000000000D+00  7 2 -2 24 -13 13 -24 21 2 0.55341802D+00 0.14957533D-01 0.23406126D+06 0.23406126D+06 0.23406126D+06 0.10926180D+01  1  2  3  2  7  2       -2 -.644746217339D-04 0.100000000000D+01
0.220639215345D-04 0.000000000000D+00 0.000000000000D+00 0.398232569803D-05 0.000000000000D+00  7 2 -2 24 -13 13 -24 21 2 0.55341802D+00 0.14957533D-01 0.23406126D+06 0.23406126D+06 0.23406126D+06 0.10926180D+01  1  2 15  2  7  2       -2 0.767100077073D-04 0.100000000000D+01
0.330749228275D-03 0.000000000000D+00 -.175646446415D-03 0.398232569803D-05 0.000000000000D+00  7 2 -2 24 -13 13 -24 21 2 0.55341802D+00 0.98383154D-01 0.23406126D+06 0.23406126D+06 0.23406126D+06 0.10926180D+01  1  2  5  2  7  2       -2 0.315352793513D-04 0.100000000000D+01
0.618939654912D-04 0.000000000000D+00 -.405157233962D-04 0.398232569803D-05 0.000000000000D+00  7 2 21 24 -13 13 -24 2 2 0.55341802D+00 0.98383154D-01 0.23406126D+06 0.23406126D+06 0.23406126D+06 0.10926180D+01  1  2  5  4  7  2       -2 0.549423807778D-04 0.100000000000D+01
  </mgrwgt>
  </event>
  <event>
  8     66 0.26993063E-05 0.18888206E+03 0.75467711E-02 0.10212134E+00
        4 -1    0    0  501    0 0.00000000E+00 0.00000000E+00 0.10475549E+04 0.10475561E+04 0.15500000E+01 0.0000E+00 0.9000E+01
       -4 -1    0    0    0  501 0.00000000E+00 0.00000000E+00 -.12118733E+03 0.12119724E+03 0.15500000E+01 0.0000E+00 0.9000E+01
       25  2    1    2    0    0 -.14207063E+03 -.50680275E+02 0.14181334E+03 0.36460453E+03 0.30012145E+03 0.0000E+00 0.0000E+00
       23  2    1    2    0    0 0.14207063E+03 0.50680275E+02 0.78455425E+03 0.80414878E+03 0.91527809E+02 0.0000E+00 0.0000E+00
       24  1    3    3    0    0 0.36514525E+02 0.63605486E+02 0.53158375E+02 0.12112802E+03 0.80419002E+02 0.0000E+00 0.9000E+01
      -11  1    4    4    0    0 0.16357866E+01 0.19041429E+02 0.27249745E+02 0.33283636E+02 0.51099893E-03 0.0000E+00 0.9000E+01
       11  1    4    4    0    0 0.14043484E+03 0.31638846E+02 0.75730450E+03 0.77086515E+03 0.51099893E-03 0.0000E+00 0.9000E+01
      -24  1    3    3    0    0 -.17858515E+03 -.11428576E+03 0.88654962E+02 0.24347651E+03 0.80419002E+02 0.0000E+00 0.9000E+01
#aMCatNLO 1  0  0  1  2 0.39408636D+02 0.00000000D+00  -5  7  0 0.00000000D+00 0.00000000D+00 0.00000000D+00 0.00000000D+00 0.00000000D+00
  <mgrwgt>
 0.1300431661D-04    9    2    0
 0.356310044523597D+03 0.000000000000000D+00 0.000000000000000D+00 0.356310044523597D+03
 0.356310044523597D+03 0.000000000000000D+00 0.000000000000000D+00 -.356310044523597D+03
 0.129556519295048D+03 0.365145248380323D+02 0.636054860426099D+02 -.702759372659920D+02
 0.191646001867913D+02 0.163578664096914D+01 0.190414290121121D+02 0.142481000890711D+01
 0.279824898014175D+03 0.140434839610295D+03 0.316388460838201D+02 0.239956272663913D+03
 0.284074071551180D+03 -.178585151089296D+03 -.114285761138542D+03 -.171105145406829D+03
 0.000000000000000D+00 -.000000000000000D+00 -.000000000000000D+00 0.000000000000000D+00
 0.382087577439277D+03 0.000000000000000D+00 0.000000000000000D+00 0.382087577439277D+03
 0.372241392999030D+03 0.000000000000000D+00 0.000000000000000D+00 -.372241392999030D+03
 0.133810310221028D+03 0.401581351960009D+02 0.699042200875125D+02 -.702759372659920D+02
 0.201506714979273D+02 0.217970301570777D+01 0.199817009541033D+02 0.142481000890711D+01
 0.285655696833564D+03 0.148258113924692D+03 0.451629936807055D+02 0.239956272663913D+03
 0.274092248059744D+03 -.170863067836289D+03 -.100936543218763D+03 -.171105145406829D+03
 0.406200438260435D+02 -.197328843001117D+02 -.341123715035578D+02 0.984618444024653D+01
0.914378330499D-05 0.000000000000D+00 0.000000000000D+00 0.448022390022D-05 0.000000000000D+00  7 4 -4 24 -11 11 -24 21 0 0.16116315D+00 0.18645056D-01 0.62167614D+05 0.62167614D+05 0.62167614D+05 0.11390667D+01  1  2  2  1  7  1        4 0.986843655518D-05 0.100000000000D+01
-.429267571775D-06 0.000000000000D+00 -.351145355046D-07 0.448022390022D-05 0.000000000000D+00  7 4 -4 24 -11 11 -24 21 2 0.16116315D+00 0.18645056D-01 0.62167614D+05 0.62167614D+05 0.62167614D+05 0.11390667D+01  1  2  3  1  7  1        4 -.601102922705D-06 0.100000000000D+01
0.567580239963D-06 0.000000000000D+00 0.000000000000D+00 0.448022390022D-05 0.000000000000D+00  7 4 -4 24 -11 11 -24 21 2 0.16116315D+00 0.18645056D-01 0.62167614D+05 0.62167614D+05 0.62167614D+05 0.11390667D+01  1  2 15  1  7  1        4 0.794782004381D-06 0.100000000000D+01
0.182990824320D-04 0.000000000000D+00 0.000000000000D+00 0.448022390022D-05 0.000000000000D+00  7 4 -4 24 -11 11 -24 21 2 0.17621317D+00 0.18645056D-01 0.73573565D+05 0.73573565D+05 0.73573565D+05 0.11328260D+01  1  2 12  1  7  1        4 0.187528473281D-04 0.100000000000D+01
-.165107957258D-04 0.000000000000D+00 0.000000000000D+00 0.448022390022D-05 0.000000000000D+00  7 4 -4 24 -11 11 -24 21 2 0.16116315D+00 0.18645056D-01 0.62167614D+05 0.62167614D+05 0.62167614D+05 0.11390667D+01  1  2  4  1  7  1        4 -.231200496368D-04 0.100000000000D+01
-.531077664987D-04 0.000000000000D+00 -.117468555215D-04 0.448022390022D-05 0.000000000000D+00  7 4 -4 24 -11 11 -24 21 2 0.17784934D+00 0.18645056D-01 0.62167614D+05 0.62167614D+05 0.62167614D+05 0.11390667D+01  1  2  5  1  7  1        4 -.530846722589D-04 0.100000000000D+01
0.540592756782D-04 0.000000000000D+00 0.116900770039D-04 0.448022390022D-05 0.000000000000D+00  7 4 -4 24 -11 11 -24 21 2 0.16116315D+00 0.18645056D-01 0.62167614D+05 0.62167614D+05 0.62167614D+05 0.11390667D+01  1  2  6  1  7  1        4 0.756991460480D-04 0.100000000000D+01
0.269277011371D-06 0.000000000000D+00 0.000000000000D+00 0.448022390022D-05 0.000000000000D+00  7 21 -4 24 -11 11 -24 -4 2 0.17621317D+00 0.18645056D-01 0.73573565D+05 0.73573565D+05 0.73573565D+05 0.11328260D+01  1  2 12  3  7  1        4 0.768990644140D-05 0.100000000000D+01
-.813860415587D-06 0.000000000000D+00 -.188350999278D-06 0.448022390022D-05 0.000000000000D+00  7 21 -4 24 -11 11 -24 -4 2 0.17784934D+00 0.18645056D-01 0.62167614D+05 0.62167614D+05 0.62167614D+05 0.11390667D+01  1  2  5  3  7  1        4 -.229949769473D-04 0.100000000000D+01
  </mgrwgt>
  </event>
  <event>
  8     66 0.26993063E-05 0.18494789E+03 0.75467711E-02 0.10206310E+00
        2 -1    0    0  501    0 0.00000000E+00 0.00000000E+00 0.31106235E+03 0.31106252E+03 0.32000000E+00 0.0000E+00 0.9000E+01
       -2 -1    0    0    0  501 0.00000000E+00 0.00000000E+00 -.54374463E+03 0.54374472E+03 0.32000000E+00 0.0000E+00 0.9000E+01
       25  2    1    2    0    0 0.80094460E+02 0.48816594E+02 -.48058574E+03 0.57387416E+03 0.29928366E+03 0.0000E+00 0.0000E+00
       23  2    1    2    0    0 -.80094460E+02 -.48816594E+02 0.24790347E+03 0.28093308E+03 0.93107926E+02 0.0000E+00 0.0000E+00
       24  1    3    3    0    0 0.13952947E+03 -.53516913E+01 -.40873704E+03 0.43935213E+03 0.80419002E+02 0.0000E+00 0.9000E+01
      -13  1    4    4    0    0 -.54198948E+02 -.24384393E+02 0.23603870E+03 0.24340584E+03 0.10565837E+00 0.0000E+00 0.9000E+01
       13  1    4    4    0    0 -.25895512E+02 -.24432202E+02 0.11864767E+02 0.37527242E+02 0.10565837E+00 0.0000E+00 0.9000E+01
      -24  1    3    3    0    0 -.59435007E+02 0.54168286E+02 -.71848705E+02 0.13452203E+03 0.80419002E+02 0.0000E+00 0.9000E+01
#aMCatNLO 1  0  0  2  1 0.14983765D+03 0.00000000D+00  -5  7  0 0.00000000D+00 0.00000000D+00 0.00000000D+00 0.00000000D+00 0.00000000D+00
  <mgrwgt>
 0.4956502665D-03    4    2    0
 0.411264628269253D+03 0.000000000000000D+00 0.000000000000000D+00 0.411264628269253D+03
 0.411264628269253D+03 0.000000000000000D+00 0.000000000000000D+00 -.411264628269253D+03
 0.340967226251797D+03 0.139529466630786D+03 -.535169127705861D+01 -.300490134223533D+03
 0.319730136997039D+03 -.541989850258963D+02 -.243843930108434D+02 0.314157972847739D+03
 0.423559217841789D+02 -.258954746653657D+02 -.244322015304017D+02 0.229459371223037D+02
 0.119475971505491D+03 -.594350069395237D+02 0.541682858183038D+02 -.366137757465096D+02
 0.000000000000000D+00 0.000000000000000D+00 -.000000000000000D+00 0.000000000000000D+00
 0.507003243040393D+03 0.000000000000000D+00 0.000000000000000D+00 0.507003243040393D+03
 0.481119262214617D+03 0.000000000000000D+00 0.000000000000000D+00 -.481119262214617D+03
 0.337647252793006D+03 0.120219429158389D+03 0.528338854471937D+02 -.300490134223533D+03
 0.323885857610345D+03 -.725131374017722D+02 0.308003532502388D+02 0.314157972847739D+03
 0.403146218271937D+02 -.282478725942251D+02 -.173438864315169D+02 0.229459371223037D+02
 0.134217874008950D+03 -.666538886679177D+02 0.759204340091716D+02 -.366137757465096D+02
 0.152056899015515D+03 0.471954695055255D+02 -.142210786275087D+03 0.258839808257755D+02
0.475796777969D-04 0.000000000000D+00 0.000000000000D+00 0.578562962280D-06 0.000000000000D+00  7 2 -2 24 -13 13 -24 21 0 0.47855767D-01 0.83653040D-01 0.34205721D+05 0.34205721D+05 0.34205721D+05 0.11620861D+01  1  2  2  2  7  2       -2 0.803372781809D-03 0.100000000000D+01
-.590731228218D-06 0.000000000000D+00 -.182718490757D-06 0.578562962280D-06 0.000000000000D+00  7 2 -2 24 -13 13 -24 21 2 0.47855767D-01 0.83653040D-01 0.34205721D+05 0.34205721D+05 0.34205721D+05 0.11620861D+01  1  2  3  2  7  2       -2 -.134698309578D-04 0.100000000000D+01
0.293781681068D-05 0.000000000000D+00 0.000000000000D+00 0.578562962280D-06 0.000000000000D+00  7 2 -2 24 -13 13 -24 21 2 0.47855767D-01 0.83653040D-01 0.34205721D+05 0.34205721D+05 0.34205721D+05 0.11620861D+01  1  2 15  2  7  2       -2 0.669879869806D-04 0.100000000000D+01
-.158425258744D-04 0.000000000000D+00 0.000000000000D+00 0.578562962280D-06 0.000000000000D+00  7 2 -2 24 -13 13 -24 21 2 0.47855767D-01 0.83653040D-01 0.34205721D+05 0.34205721D+05 0.34205721D+05 0.11620861D+01  1  2  4  2  7  2       -2 -.361240671357D-03 0.100000000000D+01
  </mgrwgt>
  </event>
  <event>
  8     66 0.26993063E-05 0.27225891E+03 0.75467711E-02 0.94972647E-01
        2 -1    0    0  501    0 0.00000000E+00 0.00000000E+00 0.26430420E+04 0.26430420E+04 0.32000000E+00 0.0000E+00 0.9000E+01
       -2 -1    0    0    0  501 0.00000000E+00 0.00000000E+00 -.14407416E+03 0.14407452E+03 0.32000000E+00 0.0000E+00 0.9000E+01
       25  2    1    2    0    0 -.24886716E+03 0.31967937E+03 0.38917540E+03 0.63687482E+03 0.30003712E+03 0.0000E+00 0.0000E+00
       23  2    1    2    0    0 0.24886716E+03 -.31967937E+03 0.21097924E+04 0.21502417E+04 0.90474041E+02 0.0000E+00 0.0000E+00
       24  1    3    3    0    0 -.63873462E+02 -.23577110E+02 0.68816458E+02 0.12585158E+03 0.80419002E+02 0.0000E+00 0.9000E+01
      -13  1    4    4    0    0 0.60699305E+02 -.35443342E+02 0.26170203E+03 0.27097712E+03 0.10565837E+00 0.0000E+00 0.9000E+01
       13  1    4    4    0    0 0.18816786E+03 -.28423603E+03 0.18480904E+04 0.18792646E+04 0.10565837E+00 0.0000E+00 0.9000E+01
      -24  1    3    3    0    0 -.18499370E+03 0.34325648E+03 0.32035894E+03 0.51102324E+03 0.80419002E+02 0.0000E+00 0.9000E+01
#aMCatNLO 1  0  0  1  2 0.51979666D+02 0.00000000D+00  -5  7  0 0.00000000D+00 0.00000000D+00 0.00000000D+00 0.00000000D+00 0.00000000D+00
  <mgrwgt>
 0.1376099218D-02    9    2    0
 0.617085555396592D+03 0.000000000000000D+00 0.000000000000000D+00 0.617085555396592D+03
 0.617085555396592D+03 0.000000000000000D+00 0.000000000000000D+00 -.617085555396592D+03
 0.144868812551374D+03 -.638734618030692D+02 -.235771099319872D+02 -.994185981606129D+02
 0.820462815299493D+02 0.606991307091605D+02 -.354430030163868D+02 0.423202242577276D+02
 0.501884744975453D+03 0.188168031120691D+03 -.284236369726104D+03 0.368362288281746D+03
 0.505371271736408D+03 -.184993700026782D+03 0.343256482674478D+03 -.311263914378861D+03
 0.000000000000000D+00 -.000000000000000D+00 0.000000000000000D+00 0.000000000000000D+00
 0.661358426948871D+03 0.000000000000000D+00 0.000000000000000D+00 0.661358426948871D+03
 0.633080510088372D+03 0.000000000000000D+00 0.000000000000000D+00 -.633080510088372D+03
 0.143636176652560D+03 -.593184618711058D+02 -.275934359951716D+02 -.994185981606129D+02
 0.850237917434620D+02 0.633368811844412D+02 -.377688133655167D+02 0.423202242577276D+02
 0.516191328881733D+03 0.204241709638171D+03 -.298409176515406D+03 0.368362288281746D+03
 0.490413944036834D+03 -.169271956002137D+03 0.329393990637584D+03 -.311263914378861D+03
 0.591736957226536D+02 -.389881729493694D+02 0.343774352385106D+02 0.282779168604984D+02
0.913665655265D-04 0.000000000000D+00 0.000000000000D+00 0.996147054641D-05 0.000000000000D+00  7 2 -2 24 -13 13 -24 21 0 0.40662187D+00 0.22165285D-01 0.20915831D+06 0.20915831D+06 0.20915831D+06 0.10963351D+01  1  2  2  1  7  1        2 0.583642853595D-03 0.100000000000D+01
-.452201636503D-05 0.000000000000D+00 -.350871668991D-06 0.996147054641D-05 0.000000000000D+00  7 2 -2 24 -13 13 -24 21 2 0.40662187D+00 0.22165285D-01 0.20915831D+06 0.20915831D+06 0.20915831D+06 0.10963351D+01  1  2  3  1  7  1        2 -.347199114819D-04 0.100000000000D+01
0.577137196705D-05 0.000000000000D+00 0.000000000000D+00 0.996147054641D-05 0.000000000000D+00  7 2 -2 24 -13 13 -24 21 2 0.40662187D+00 0.22165285D-01 0.20915831D+06 0.20915831D+06 0.20915831D+06 0.10963351D+01  1  2 15  1  7  1        2 0.443124278309D-04 0.100000000000D+01
0.217633260815D-03 0.000000000000D+00 0.000000000000D+00 0.996147054641D-05 0.000000000000D+00  7 2 -2 24 -13 13 -24 21 2 0.44079709D+00 0.22165285D-01 0.23521350D+06 0.23521350D+06 0.23521350D+06 0.10924566D+01  1  2 12  1  7  1        2 0.121239602407D-02 0.100000000000D+01
-.212984250104D-03 0.000000000000D+00 0.000000000000D+00 0.996147054641D-05 0.000000000000D+00  7 2 -2 24 -13 13 -24 21 2 0.40662187D+00 0.22165285D-01 0.20915831D+06 0.20915831D+06 0.20915831D+06 0.10963351D+01  1  2  4  1  7  1        2 -.163528694143D-02 0.100000000000D+01
-.590464289137D-03 0.000000000000D+00 -.104121648079D-03 0.996147054641D-05 0.000000000000D+00  7 2 -2 24 -13 13 -24 21 2 0.43943914D+00 0.22165285D-01 0.20915831D+06 0.20915831D+06 0.20915831D+06 0.10963351D+01  1  2  5  1  7  1        2 -.337631454935D-02 0.100000000000D+01
0.597059287581D-03 0.000000000000D+00 0.103808810088D-03 0.996147054641D-05 0.000000000000D+00  7 2 -2 24 -13 13 -24 21 2 0.40662187D+00 0.22165285D-01 0.20915831D+06 0.20915831D+06 0.20915831D+06 0.10963351D+01  1  2  6  1  7  1        2 0.458420402337D-02 0.100000000000D+01
0.296167183494D-05 0.000000000000D+00 0.000000000000D+00 0.996147054641D-05 0.000000000000D+00  7 21 -2 24 -13 13 -24 -2 2 0.44079709D+00 0.22165285D-01 0.23521350D+06 0.23521350D+06 0.23521350D+06 0.10924566D+01  1  2 12  3  7  1        2 0.130930670293D-05 0.100000000000D+01
-.746417052294D-05 0.000000000000D+00 -.135378839592D-05 0.996147054641D-05 0.000000000000D+00  7 21 -2 24 -13 13 -24 -2 2 0.43943914D+00 0.22165285D-01 0.20915831D+06 0.20915831D+06 0.20915831D+06 0.10963351D+01  1  2  5  3  7  1        2 -.344401534063D-05 0.100000000000D+01
  </mgrwgt>
  </event>
  <event>
  9     66 0.26993063E-05 0.29165627E+03 0.75467711E-02 0.98508770E-01
       21 -1    0    0  501  502 0.00000000E+00 0.00000000E+00 0.67308122E+03 0.67308164E+03 0.75000000E+00 0.0000E+00 0.9000E+01
       -2 -1    0    0    0  501 0.00000000E+00 0.00000000E+00 -.81596888E+03 0.81596894E+03 0.32000000E+00 0.0000E+00 0.9000E+01
       25  2    1    2    0    0 0.15676044E+03 0.26949571E+03 0.53900534E+03 0.69164872E+03 0.30108042E+03 0.0000E+00 0.0000E+00
       23  2    1    2    0    0 -.41134667E+02 -.22217017E+03 -.25695180E+03 0.35447506E+03 0.92610449E+02 0.0000E+00 0.0000E+00
       24  1    3    3    0    0 0.79885836E+02 0.14000203E+03 0.47722832E+03 0.51009450E+03 0.80419002E+02 0.0000E+00 0.9000E+01
      -13  1    4    4    0    0 -.70714159E+02 -.14199900E+03 -.17186910E+03 0.23388716E+03 0.10565837E+00 0.0000E+00 0.9000E+01
       13  1    4    4    0    0 0.29579492E+02 -.80171172E+02 -.85082707E+02 0.12058790E+03 0.10565837E+00 0.0000E+00 0.9000E+01
      -24  1    3    3    0    0 0.76874600E+02 0.12949368E+03 0.61777023E+02 0.18155422E+03 0.80419002E+02 0.0000E+00 0.9000E+01
       -2  1    1    2    0  502 -.11562577E+03 -.47325544E+02 -.42494120E+03 0.44292680E+03 0.32000000E+00 0.0000E+00 0.9000E+01
#aMCatNLO 2  0  0  1  2 0.12493609D+03 0.00000000D+00  -5  7  0 0.00000000D+00 0.00000000D+00 0.00000000D+00 0.00000000D+00 0.00000000D+00
  <mgrwgt>
 0.8568977847D-05    1    2    0
 0.499802895771450D+03 0.000000000000000D+00 0.000000000000000D+00 0.499802895771450D+03
 0.499802895771450D+03 0.000000000000000D+00 0.000000000000000D+00 -.499802895771450D+03
 0.383306620541865D+03 0.349833687307677D+02 0.121623487417135D+03 0.352761450016291D+03
 0.308169457267353D+03 -.105233544931295D+03 -.156127785704664D+03 -.243963993131378D+03
 0.150580894561108D+03 0.123175837332871D+02 -.872364310892154D+02 -.122117517288117D+03
 0.157548819172575D+03 0.579325924672402D+02 0.121740729376745D+03 0.133200604032033D+02
 0.000000000000000D+00 -.000000000000000D+00 -.000000000000000D+00 -.000000000000000D+00
 0.510512292651957D+03 0.000000000000000D+00 0.000000000000000D+00 0.510512292651957D+03
 0.107580874802094D+04 0.000000000000000D+00 0.000000000000000D+00 -.107580874802094D+04
 0.396093641968063D+03 0.798858364870664D+02 0.140002034857780D+03 0.352761450016291D+03
 0.291002885303381D+03 -.707142894384785D+02 -.141999079502287D+03 -.243963993131378D+03
 0.149047126619046D+03 0.295796225175684D+02 -.801710911519764D+02 -.122117517288117D+03
 0.171239472906842D+03 0.768746000516377D+02 0.129493679323734D+03 0.133200604032033D+02
 0.578937913875572D+03 -.115625769617794D+03 -.473255435272510D+02 -.565296455368988D+03
0.203688338981D-05 0.000000000000D+00 0.000000000000D+00 0.479589278236D-06 0.151753627190D-11  7 21 -2 24 -13 13 -24 -2 2 0.10355098D+00 0.12553370D+00 0.12955699D+06 0.12955699D+06 0.12955699D+06 0.11126085D+01  1  2  1  3  7  1        2 0.856897784652D-05 0.100000000000D+01
  </mgrwgt>
  </event>
  <event>
  8     66 0.26993063E-05 0.67155726E+03 0.75467711E-02 0.88723793E-01
        2 -1    0    0  501    0 0.00000000E+00 0.00000000E+00 0.12063922E+04 0.12063923E+04 0.32000000E+00 0.0000E+00 0.9000E+01
       -2 -1    0    0    0  501 0.00000000E+00 0.00000000E+00 -.49399742E+03 0.49399752E+03 0.32000000E+00 0.0000E+00 0.9000E+01
       25  2    1    2    0    0 -.42210163E+03 0.47859020E+03 0.78120184E+03 0.10522493E+04 0.29955610E+03 0.0000E+00 0.0000E+00
       23  2    1    2    0    0 0.42210163E+03 -.47859020E+03 -.68807034E+02 0.64814051E+03 0.90185056E+02 0.0000E+00 0.0000E+00
       24  1    3    3    0    0 -.18902949E+03 0.59134849E+02 0.18493868E+03 0.28266342E+03 0.80419002E+02 0.0000E+00 0.9000E+01
      -11  1    4    4    0    0 0.30094780E+02 -.71860710E+02 0.68507263E+01 0.78208630E+02 0.51099893E-03 0.0000E+00 0.9000E+01
       11  1    4    4    0    0 0.39200685E+03 -.40672949E+03 -.75657760E+02 0.56993188E+03 0.51099893E-03 0.0000E+00 0.9000E+01
      -24  1    3    3    0    0 -.23307213E+03 0.41945535E+03 0.59626316E+03 0.76958585E+03 0.80419002E+02 0.0000E+00 0.9000E+01
#aMCatNLO 1  0  0  2  2 0.35536756D+03 0.00000000D+00  -5  7  0 0.00000000D+00 0.00000000D+00 0.00000000D+00 0.00000000D+00 0.00000000D+00
  <mgrwgt>
 0.1100079743D-02    4    2    0
 0.771981064293641D+03 0.000000000000000D+00 0.000000000000000D+00 0.771981064293641D+03
 0.771981064293641D+03 0.000000000000000D+00 0.000000000000000D+00 -.771981064293641D+03
 0.225969687419541D+03 -.189029492106947D+03 0.591348489305268D+02 0.732530165513203D+02
 0.829714220234940D+02 0.300947797892911D+02 -.718607095034344D+02 -.285411900890247D+02
 0.662583956722526D+03 0.392006846290446D+03 -.406729493354107D+03 -.346293591340367D+03
 0.572437062421721D+03 -.233072133972789D+03 0.419455353927014D+03 0.301581764878071D+03
 0.000000000000000D+00 -.000000000000000D+00 0.000000000000000D+00 0.000000000000000D+00
 0.117520052739801D+04 0.000000000000000D+00 0.000000000000000D+00 0.117520052739801D+04
 0.874590227655420D+03 0.000000000000000D+00 0.000000000000000D+00 -.874590227655420D+03
 0.186790235710596D+03 -.142702883950310D+03 0.518966153120382D+02 0.732530165513203D+02
 0.945378606947874D+02 0.500177483815271D+02 -.749735448000923D+02 -.285411900890247D+02
 0.783504672976515D+03 0.554310349013780D+03 -.432088368448919D+03 -.346293591340367D+03
 0.519498369220990D+03 -.110517442881545D+03 0.400306974184625D+03 0.301581764878071D+03
 0.465459616450543D+03 -.351107770563452D+03 0.548583237523482D+02 0.300610299742593D+03
0.335703926043D-03 0.000000000000D+00 0.000000000000D+00 0.475790957847D-05 0.000000000000D+00  7 2 -2 24 -11 11 -24 21 0 0.18559881D+00 0.75999614D-01 0.45098915D+06 0.45098915D+06 0.45098915D+06 0.10716914D+01  1  2  2  2  7  2       -2 0.124104616672D-02 0.100000000000D+01
-.182098191387D-04 0.000000000000D+00 -.128919146888D-05 0.475790957847D-05 0.000000000000D+00  7 2 -2 24 -11 11 -24 21 2 0.18559881D+00 0.75999614D-01 0.45098915D+06 0.45098915D+06 0.45098915D+06 0.10716914D+01  1  2  3  2  7  2       -2 -.773172891912D-04 0.100000000000D+01
0.208988872202D-04 0.000000000000D+00 0.000000000000D+00 0.475790957847D-05 0.000000000000D+00  7 2 -2 24 -11 11 -24 21 2 0.18559881D+00 0.75999614D-01 0.45098915D+06 0.45098915D+06 0.45098915D+06 0.10716914D+01  1  2 15  2  7  2       -2 0.887348355669D-04 0.100000000000D+01
-.358895734770D-04 0.000000000000D+00 0.000000000000D+00 0.475790957847D-05 0.000000000000D+00  7 2 -2 24 -11 11 -24 21 2 0.18559881D+00 0.75999614D-01 0.45098915D+06 0.45098915D+06 0.45098915D+06 0.10716914D+01  1  2  4  2  7  2       -2 -.152383969897D-03 0.100000000000D+01
  </mgrwgt>
  </event>
  <event>
  8     66 0.26993063E-05 0.43692906E+03 0.75467711E-02 0.87745267E-01
        2 -1    0    0  501    0 0.00000000E+00 0.00000000E+00 0.31164572E+04 0.31164572E+04 0.32000000E+00 0.0000E+00 0.9000E+01
       -2 -1    0    0    0  501 0.00000000E+00 0.00000000E+00 -.12198636E+03 0.12198678E+03 0.32000000E+00 0.0000E+00 0.9000E+01
       25  2    1    2    0    0 -.38271638E+03 0.37063457E+02 0.27053611E+04 0.27489216E+04 0.29957534E+03 0.0000E+00 0.0000E+00
       23  2    1    2    0    0 0.38271638E+03 -.37063457E+02 0.28910973E+03 0.48952245E+03 0.90566366E+02 0.0000E+00 0.0000E+00
       24  1    3    3    0    0 -.32900643E+03 -.62771639E+02 0.20771703E+04 0.21055378E+04 0.80419002E+02 0.0000E+00 0.9000E+01
      -11  1    4    4    0    0 0.17416371E+03 0.16906671E+02 0.16707221E+03 0.24193378E+03 0.51099893E-03 0.0000E+00 0.9000E+01
       11  1    4    4    0    0 0.20855267E+03 -.53970128E+02 0.12203752E+03 0.24758866E+03 0.51099893E-03 0.0000E+00 0.9000E+01
      -24  1    3    3    0    0 -.53709946E+02 0.99835095E+02 0.62819081E+03 0.64338380E+03 0.80419002E+02 0.0000E+00 0.9000E+01
#aMCatNLO 1  0  0  2  1 0.77075573D+03 0.00000000D+00  -5  7  0 0.00000000D+00 0.00000000D+00 0.00000000D+00 0.00000000D+00 0.00000000D+00
  <mgrwgt>
 0.7997113845D-03    3    2    0
 0.616576003214269D+03 0.000000000000000D+00 0.000000000000000D+00 0.616576003214269D+03
 0.616576003214269D+03 0.000000000000000D+00 0.000000000000000D+00 -.616576003214269D+03
 0.485455281663370D+03 -.329006429074633D+03 -.627716386637825D+02 0.342073245880928D+03
 0.229652266453456D+03 0.174163708023937D+03 0.169066714708404D+02 -.148732413260657D+03
 0.353860855957545D+03 0.208552667075785D+03 -.539701280752130D+02 -.280732106660654D+03
 0.164183602354168D+03 -.537099460250891D+02 0.998350952681551D+02 0.873912740403830D+02
 0.000000000000000D+00 0.000000000000000D+00 0.000000000000000D+00 0.000000000000000D+00
 0.126394855802431D+04 0.000000000000000D+00 0.000000000000000D+00 0.126394855802431D+04
 0.100375229327323D+04 0.000000000000000D+00 0.000000000000000D+00 -.100375229327323D+04
 0.705967832167636D+03 -.493700585152121D+03 -.362172598044138D+03 0.342073245880928D+03
 0.209095431915364D+03 0.113514236753026D+03 -.933492739549255D+02 -.148732413260657D+03
 0.384025594693022D+03 0.106552307287444D+03 -.239398720716971D+03 -.280732106660654D+03
 0.155121673880899D+03 -.978485164373488D+02 0.195946626878379D+02 0.873912740403830D+02
 0.813490318640615D+03 0.371482557549000D+03 0.675325930028197D+03 0.260196264751080D+03
0.181036639688D-03 0.000000000000D+00 0.000000000000D+00 0.363615836285D-05 0.000000000000D+00  7 2 -2 24 -11 11 -24 21 0 0.47945499D+00 0.18767165D-01 0.19090700D+06 0.19090700D+06 0.19090700D+06 0.10993808D+01  1  2  2  2  7  2       -2 0.785215232630D-03 0.100000000000D+01
-.860705391833D-05 0.000000000000D+00 -.695228364443D-06 0.363615836285D-05 0.000000000000D+00  7 2 -2 24 -11 11 -24 21 2 0.47945499D+00 0.18767165D-01 0.19090700D+06 0.19090700D+06 0.19090700D+06 0.10993808D+01  1  2  3  2  7  2       -2 -.451204119564D-04 0.100000000000D+01
0.113723026249D-04 0.000000000000D+00 0.000000000000D+00 0.363615836285D-05 0.000000000000D+00  7 2 -2 24 -11 11 -24 21 2 0.47945499D+00 0.18767165D-01 0.19090700D+06 0.19090700D+06 0.19090700D+06 0.10993808D+01  1  2 15  2  7  2       -2 0.596165638321D-04 0.100000000000D+01
  </mgrwgt>
  </event>
  <event>
  8     66 0.26993063E-05 0.25417127E+03 0.75467711E-02 0.91732699E-01
        2 -1    0    0  501    0 0.00000000E+00 0.00000000E+00 0.68276594E+03 0.68276602E+03 0.32000000E+00 0.0000E+00 0.9000E+01
       -2 -1    0    0    0  501 0.00000000E+00 0.00000000E+00 -.54376512E+03 0.54376521E+03 0.32000000E+00 0.0000E+00 0.9000E+01
       25  2    1    2    0    0 -.21628480E+03 0.46081464E+03 -.18326025E+03 0.61716359E+03 0.29694667E+03 0.0000E+00 0.0000E+00
       23  2    1    2    0    0 0.21628480E+03 -.46081464E+03 0.32226108E+03 0.60936764E+03 0.91364482E+02 0.0000E+00 0.0000E+00
       24  1    3    3    0    0 -.14148236E+03 0.38342012E+03 -.36400986E+02 0.41811541E+03 0.80419002E+02 0.0000E+00 0.9000E+01
      -11  1    4    4    0    0 0.61442569E+01 -.70005245E+02 0.68846174E+02 0.98378260E+02 0.51099893E-03 0.0000E+00 0.9000E+01
       11  1    4    4    0    0 0.21014055E+03 -.39080940E+03 0.25341490E+03 0.51098938E+03 0.51099893E-03 0.0000E+00 0.9000E+01
      -24  1    3    3    0    0 -.74802446E+02 0.77394522E+02 -.14685927E+03 0.19904818E+03 0.80419002E+02 0.0000E+00 0.9000E+01
#aMCatNLO 1  0  0  1  2 0.21765384D+03 0.00000000D+00  -5  7  0 0.00000000D+00 0.00000000D+00 0.00000000D+00 0.00000000D+00 0.00000000D+00
  <mgrwgt>
 0.1668597550D-02    9    2    0
 0.609314700818469D+03 0.000000000000000D+00 0.000000000000000D+00 0.609314700818469D+03
 0.609314700818469D+03 0.000000000000000D+00 0.000000000000000D+00 -.609314700818469D+03
 0.424978560974686D+03 -.141482357969071D+03 0.383420119490586D+03 -.843286172487180D+02
 0.911633448674812D+02 0.614425687663196D+01 -.700052450712545D+02 0.580712426022973D+02
 0.485397405446261D+03 0.210140546734573D+03 -.390809396043894D+03 0.196772985432103D+03
 0.217090090348510D+03 -.748024456421342D+02 0.773945216245631D+02 -.170515610785682D+03
 0.000000000000000D+00 -.000000000000000D+00 -.000000000000000D+00 0.000000000000000D+00
 0.777386558510955D+03 0.000000000000000D+00 0.000000000000000D+00 0.777386558510955D+03
 0.693711274507566D+03 0.000000000000000D+00 0.000000000000000D+00 -.693711274507566D+03
 0.489407508035435D+03 -.117104862960092D+03 0.460681699605163D+03 -.843286172487180D+02
 0.810123117639707D+02 0.107344528042061D+02 -.554571633151406D+02 0.580712426022973D+02
 0.437806134257146D+03 0.234753115149744D+03 -.312802778639855D+03 0.196772985432103D+03
 0.229687941927988D+03 -.628913616688929D+02 0.115145290040723D+03 -.170515610785682D+03
 0.233183937033982D+03 -.654913433249652D+02 -.207567047690890D+03 0.836752840033886D+02
0.197631989341D-03 0.000000000000D+00 0.000000000000D+00 0.257608970155D-06 0.000000000000D+00  7 2 -2 24 -11 11 -24 21 0 0.10504093D+00 0.83656185D-01 0.28349555D+06 0.28349555D+06 0.28349555D+06 0.10863747D+01  1  2  2  1  7  1        2 0.131532072494D-02 0.100000000000D+01
-.107367674486D-04 0.000000000000D+00 -.758958876767D-06 0.257608970155D-06 0.000000000000D+00  7 2 -2 24 -11 11 -24 21 2 0.10504093D+00 0.83656185D-01 0.28349555D+06 0.28349555D+06 0.28349555D+06 0.10863747D+01  1  2  3  1  7  1        2 -.843348887397D-04 0.100000000000D+01
0.126542250348D-04 0.000000000000D+00 0.000000000000D+00 0.257608970155D-06 0.000000000000D+00  7 2 -2 24 -11 11 -24 21 2 0.10504093D+00 0.83656185D-01 0.28349555D+06 0.28349555D+06 0.28349555D+06 0.10863747D+01  1  2 15  1  7  1        2 0.993960859730D-04 0.100000000000D+01
0.118062237663D-03 0.000000000000D+00 0.000000000000D+00 0.257608970155D-06 0.000000000000D+00  7 2 -2 24 -11 11 -24 21 2 0.13969141D+00 0.83656185D-01 0.42328572D+06 0.42328572D+06 0.42328572D+06 0.10736606D+01  1  2 12  1  7  1        2 0.619218493946D-03 0.100000000000D+01
-.141848811299D-03 0.000000000000D+00 0.000000000000D+00 0.257608970155D-06 0.000000000000D+00  7 2 -2 24 -11 11 -24 21 2 0.10504093D+00 0.83656185D-01 0.28349555D+06 0.28349555D+06 0.28349555D+06 0.10863747D+01  1  2  4  1  7  1        2 -.111419044662D-02 0.100000000000D+01
-.244830363485D-03 0.000000000000D+00 -.938951164659D-04 0.257608970155D-06 0.000000000000D+00  7 2 -2 24 -11 11 -24 21 2 0.14683073D+00 0.83656185D-01 0.28349555D+06 0.28349555D+06 0.28349555D+06 0.10863747D+01  1  2  5  1  7  1        2 -.124677490127D-02 0.100000000000D+01
0.266236655847D-03 0.000000000000D+00 0.888640359590D-04 0.257608970155D-06 0.000000000000D+00  7 2 -2 24 -11 11 -24 21 2 0.10504093D+00 0.83656185D-01 0.28349555D+06 0.28349555D+06 0.28349555D+06 0.10863747D+01  1  2  6  1  7  1        2 0.209122893430D-02 0.100000000000D+01
0.439831854642D-05 0.000000000000D+00 0.000000000000D+00 0.257608970155D-06 0.000000000000D+00  7 21 -2 24 -11 11 -24 -2 2 0.13969141D+00 0.83656185D-01 0.42328572D+06 0.42328572D+06 0.42328572D+06 0.10736606D+01  1  2 12  3  7  1        2 0.184129493679D-04 0.100000000000D+01
-.775724979386D-05 0.000000000000D+00 -.392948388636D-05 0.257608970155D-06 0.000000000000D+00  7 21 -2 24 -11 11 -24 -2 2 0.14683073D+00 0.83656185D-01 0.28349555D+06 0.28349555D+06 0.28349555D+06 0.10863747D+01  1  2  5  3  7  1        2 -.296794018703D-04 0.100000000000D+01
  </mgrwgt>
  </event>
  <event>
  9     66 0.26993063E-05 0.43611875E+03 0.75467711E-02 0.95763704E-01
        2 -1    0    0  502    0 0.00000000E+00 0.00000000E+00 0.17814928E+04 0.17814928E+04 0.32000000E+00 0.0000E+00 0.9000E+01
       -2 -1    0    0    0  501 0.00000000E+00 0.00000000E+00 -.14786932E+03 0.14786966E+03 0.32000000E+00 0.0000E+00 0.9000E+01
       25  2    1    2    0    0 -.38652755E+03 0.10313341E+03 0.56484734E+03 0.75453509E+03 0.30038414E+03 0.0000E+00 0.0000E+00
       23  2    1    2    0    0 0.41274069E+03 -.12460405E+03 0.10428375E+04 0.11321485E+04 0.91482395E+02 0.0000E+00 0.0000E+00
       24  1    3    3    0    0 -.19921786E+03 0.74670021E+01 0.98064871E+02 0.23627832E+03 0.80419002E+02 0.0000E+00 0.9000E+01
      -11  1    4    4    0    0 0.21349738E+02 -.19848006E+01 0.12517709E+03 0.12700022E+03 0.51099893E-03 0.0000E+00 0.9000E+01
       11  1    4    4    0    0 0.39139095E+03 -.12261925E+03 0.91766042E+03 0.10051482E+04 0.51099893E-03 0.0000E+00 0.9000E+01
      -24  1    3    3    0    0 -.18730969E+03 0.95666408E+02 0.46678247E+03 0.51825676E+03 0.80419002E+02 0.0000E+00 0.9000E+01
       21  1    1    2  502  501 -.26213141E+02 0.21470642E+02 0.25938647E+02 0.42678954E+02 0.75000000E+00 0.0000E+00 0.9000E+01
#aMCatNLO 2  0  0  1  2 0.33883879D+02 0.00000000D+00  -5  7  0 0.00000000D+00 0.00000000D+00 0.00000000D+00 0.00000000D+00 0.00000000D+00
  <mgrwgt>
 0.8345726406D-03    2    2    0
 0.493400480230958D+03 0.000000000000000D+00 0.000000000000000D+00 0.493400480230958D+03
 0.493400480230958D+03 0.000000000000000D+00 0.000000000000000D+00 -.493400480230958D+03
 0.297433303554249D+03 -.207041771620494D+03 0.138754058887581D+02 -.197333555242115D+03
 0.382667321204580D+02 0.203257293311000D+02 -.114605649967558D+01 0.324020688974840D+02
 0.413655473289393D+03 0.380235812114872D+03 -.113482304376544D+03 0.116847526122742D+03
 0.237445451497817D+03 -.193519769825479D+03 0.100752954987461D+03 0.480839602218887D+02
 0.000000000000000D+00 -.000000000000000D+00 0.000000000000000D+00 -.000000000000000D+00
 0.503382150677478D+03 0.000000000000000D+00 0.000000000000000D+00 0.503382150677478D+03
 0.523309737362833D+03 0.000000000000000D+00 0.000000000000000D+00 -.523309737362833D+03
 0.291806888161044D+03 -.199217860341019D+03 0.746700211027612D+01 -.197333555242115D+03
 0.388541478440043D+02 0.213497377594465D+02 -.198480060693924D+01 0.324020688974840D+02
 0.426468878704523D+03 0.391390954764921D+03 -.122619250816059D+03 0.116847526122742D+03
 0.230252611364129D+03 -.187309690810397D+03 0.956664078113287D+02 0.480839602218887D+02
 0.393093619666109D+02 -.262131413729512D+02 0.214706415013936D+02 -.199275866853552D+02
-.384604748806D-05 0.000000000000D+00 0.000000000000D+00 0.425430388640D-05 0.000000000000D+00  7 2 -2 24 -11 11 -24 21 2 0.26863925D+00 0.21448798D-01 0.19019956D+06 0.19019956D+06 0.19019956D+06 0.10995052D+01  1  2  8  1  7  1        2 -.996294420522D-04 0.100000000000D+01
0.419145647387D-04 0.000000000000D+00 0.000000000000D+00 0.425430388640D-05 0.238558224624D-07  7 2 -2 24 -11 11 -24 21 2 0.27407392D+00 0.22748995D-01 0.20503581D+06 0.20503581D+06 0.20503581D+06 0.10969969D+01  1  2  1  1  7  1        2 0.934202082699D-03 0.100000000000D+01
  </mgrwgt>
  </event>
  <event>
  8     66 0.26993063E-05 0.23213655E+03 0.75467711E-02 0.95327085E-01
        2 -1    0    0  501    0 0.00000000E+00 0.00000000E+00 0.13916256E+04 0.13916256E+04 0.32000000E+00 0.0000E+00 0.9000E+01
       -2 -1    0    0    0  501 0.00000000E+00 0.00000000E+00 -.21638330E+03 0.21638354E+03 0.32000000E+00 0.0000E+00 0.9000E+01
       25  2    1    2    0    0 0.23989885E+03 -.14939051E+03 0.12381694E+04 0.13048960E+04 0.29970202E+03 0.0000E+00 0.0000E+00
       23  2    1    2    0    0 -.23989885E+03 0.14939051E+03 -.62927080E+02 0.30311313E+03 0.89714921E+02 0.0000E+00 0.0000E+00
       24  1    3    3    0    0 0.17620164E+03 0.28323054E+02 0.45559418E+03 0.49586539E+03 0.80419002E+02 0.0000E+00 0.9000E+01
      -11  1    4    4    0    0 -.22810712E+03 0.12904574E+03 -.80041209E+02 0.27402966E+03 0.51099893E-03 0.0000E+00 0.9000E+01
       11  1    4    4    0    0 -.11791736E+02 0.20344765E+02 0.17114130E+02 0.29083465E+02 0.51099893E-03 0.0000E+00 0.9000E+01
      -24  1    3    3    0    0 0.63697214E+02 -.17771356E+03 0.78257518E+03 0.80903064E+03 0.80419002E+02 0.0000E+00 0.9000E+01
#aMCatNLO 1  0  0  2  1 0.21191058D+03 0.00000000D+00  -5  7  0 0.00000000D+00 0.00000000D+00 0.00000000D+00 0.00000000D+00 0.00000000D+00
  <mgrwgt>
 0.6808439325D-03    9    2    0
 0.548748356001891D+03 0.000000000000000D+00 0.000000000000000D+00 0.548748356001891D+03
 0.548748356001891D+03 0.000000000000000D+00 0.000000000000000D+00 -.548748356001891D+03
 0.238654514875923D+03 0.176201639473674D+03 0.283230543190689D+02 0.136526731291423D+03
 0.487208768256717D+03 -.228107118173837D+03 0.129045743702270D+03 -.410714892032152D+03
 0.242854748904097D+02 -.117917356249792D+02 0.203447648447611D+02 -.606875646361664D+01
 0.347347953980732D+03 0.636972143251429D+02 -.177713562866100D+03 0.280256917204346D+03
 0.000000000000000D+00 0.000000000000000D+00 0.000000000000000D+00 -.000000000000000D+00
 0.596003697205747D+03 0.000000000000000D+00 0.000000000000000D+00 0.596003697205747D+03
 0.861324782081294D+03 0.000000000000000D+00 0.000000000000000D+00 -.861324782081294D+03
 0.220097509798490D+03 0.152518264394510D+03 -.862139977565032D+01 0.136526731291423D+03
 0.499000874991494D+03 -.279020839817491D+03 0.496238012735439D+02 -.410714892032152D+03
 0.226557013284093D+02 -.142151047290969D+02 0.165644738886632D+02 -.606875646361664D+01
 0.376013835673165D+03 0.263531860465387D+02 -.235967706704940D+03 0.280256917204346D+03
 0.339560557495483D+03 0.114364494105539D+03 0.178400831318383D+03 -.265321084875546D+03
0.696964660947D-04 0.000000000000D+00 0.000000000000D+00 0.441457091982D-05 0.000000000000D+00  7 2 -2 24 -11 11 -24 21 0 0.21409626D+00 0.33289760D-01 0.11783408D+06 0.11783408D+06 0.11783408D+06 0.11159199D+01  1  2  2  2  7  2       -2 0.110150506410D-02 0.100000000000D+01
-.283594364056D-05 0.000000000000D+00 -.267652781305D-06 0.441457091982D-05 0.000000000000D+00  7 2 -2 24 -11 11 -24 21 2 0.21409626D+00 0.33289760D-01 0.11783408D+06 0.11783408D+06 0.11783408D+06 0.11159199D+01  1  2  3  2  7  2       -2 -.558135201471D-04 0.100000000000D+01
0.430298019434D-05 0.000000000000D+00 0.000000000000D+00 0.441457091982D-05 0.000000000000D+00  7 2 -2 24 -11 11 -24 21 2 0.21409626D+00 0.33289760D-01 0.11783408D+06 0.11783408D+06 0.11783408D+06 0.11159199D+01  1  2 15  2  7  2       -2 0.846859113609D-04 0.100000000000D+01
0.290487827509D-04 0.000000000000D+00 0.000000000000D+00 0.441457091982D-05 0.000000000000D+00  7 2 -2 24 -11 11 -24 21 2 0.21409626D+00 0.53014829D-01 0.22111537D+06 0.22111537D+06 0.22111537D+06 0.10944932D+01  1  2 12  2  7  2       -2 0.222659648550D-03 0.100000000000D+01
-.778084175772D-04 0.000000000000D+00 0.000000000000D+00 0.441457091982D-05 0.000000000000D+00  7 2 -2 24 -11 11 -24 21 2 0.21409626D+00 0.33289760D-01 0.11783408D+06 0.11783408D+06 0.11783408D+06 0.11159199D+01  1  2  4  2  7  2       -2 -.153132862725D-02 0.100000000000D+01
-.697506025914D-04 0.000000000000D+00 -.243116582407D-04 0.441457091982D-05 0.000000000000D+00  7 2 -2 24 -11 11 -24 21 2 0.21409626D+00 0.55769417D-01 0.11783408D+06 0.11783408D+06 0.11783408D+06 0.11159199D+01  1  2  5  2  7  2       -2 -.515487348435D-03 0.100000000000D+01
0.750000329595D-04 0.000000000000D+00 0.213993155221D-04 0.441457091982D-05 0.000000000000D+00  7 2 -2 24 -11 11 -24 21 2 0.21409626D+00 0.33289760D-01 0.11783408D+06 0.11783408D+06 0.11783408D+06 0.11159199D+01  1  2  6  2  7  2       -2 0.147605748956D-02 0.100000000000D+01
0.154858256629D-05 0.000000000000D+00 0.000000000000D+00 0.441457091982D-05 0.000000000000D+00  7 2 21 24 -11 11 -24 2 2 0.21409626D+00 0.53014829D-01 0.22111537D+06 0.22111537D+06 0.22111537D+06 0.10944932D+01  1  2 12  4  7  2       -2 0.123578786926D-03 0.100000000000D+01
-.289731601274D-05 0.000000000000D+00 -.140562195804D-05 0.441457091982D-05 0.000000000000D+00  7 2 21 24 -11 11 -24 2 2 0.21409626D+00 0.55769417D-01 0.11783408D+06 0.11783408D+06 0.11783408D+06 0.11159199D+01  1  2  5  4  7  2       -2 -.225013472200D-03 0.100000000000D+01
  </mgrwgt>
  </event>
  <event>
  9     66 -.26993063E-05 0.18100100E+03 0.75467711E-02 0.10693680E+00
        2 -1    0    0  502    0 0.00000000E+00 0.00000000E+00 0.32468880E+03 0.32468896E+03 0.32000000E+00 0.0000E+00 0.9000E+01
       -2 -1    0    0    0  501 0.00000000E+00 0.00000000E+00 -.15060529E+03 0.15060563E+03 0.32000000E+00 0.0000E+00 0.9000E+01
       25  2    1    2    0    0 -.63858521E+02 0.31183750E+02 0.93142676E+02 0.32295856E+03 0.30095903E+03 0.0000E+00 0.0000E+00
       23  2    1    2    0    0 0.53529600E+02 -.11874009E+02 0.72286221E+02 0.12877721E+03 0.91388523E+02 0.0000E+00 0.0000E+00
       24  1    3    3    0    0 0.16016934E+02 0.12872002E+03 0.81383857E+02 0.17296223E+03 0.80419002E+02 0.0000E+00 0.9000E+01
      -13  1    4    4    0    0 0.34671783E+02 -.18694433E+02 -.12754423E+02 0.41404116E+02 0.10565837E+00 0.0000E+00 0.9000E+01
       13  1    4    4    0    0 0.18857817E+02 0.68204240E+01 0.85040644E+02 0.87373095E+02 0.10565837E+00 0.0000E+00 0.9000E+01
      -24  1    3    3    0    0 -.79875455E+02 -.97536273E+02 0.11758819E+02 0.14999633E+03 0.80419002E+02 0.0000E+00 0.9000E+01
       21  1    1    2  502  501 0.10328921E+02 -.19309741E+02 0.86546145E+01 0.23558810E+02 0.75000000E+00 0.0000E+00 0.9000E+01
#aMCatNLO 2  0  0  1  2 0.21898692D+02 0.00000000D+00  -5  7  0 0.00000000D+00 0.00000000D+00 0.00000000D+00 0.00000000D+00 0.00000000D+00
  <mgrwgt>
 -.8735936371D-03    3    2    0
 0.209892196733133D+03 0.000000000000000D+00 0.000000000000000D+00 0.209892196733133D+03
 0.209892196733133D+03 0.000000000000000D+00 0.000000000000000D+00 -.209892196733133D+03
 0.148528334274069D+03 0.197343141773009D+02 0.121770289548508D+03 0.193908110991557D+02
 0.512947953710608D+02 0.359112519592684D+02 -.210114603286682D+02 -.300009424807580D+02
 0.606607948548755D+02 0.203466375742988D+02 0.403728211044067D+01 0.570039185057145D+02
 0.159300468966260D+03 -.759922037108681D+02 -.104796111330280D+03 -.463937871241123D+02
 0.000000000000000D+00 0.000000000000000D+00 -.000000000000000D+00 0.000000000000000D+00
 0.221141572202189D+03 0.000000000000000D+00 0.000000000000000D+00 0.221141572202189D+03
 0.221112333582456D+03 0.000000000000000D+00 0.000000000000000D+00 -.221112333582456D+03
 0.153846061102596D+03 0.160168353848678D+02 0.128720052795141D+03 0.193908110991557D+02
 0.495144262025069D+02 0.346718740588526D+02 -.186944644661679D+02 -.300009424807580D+02
 0.604283548748270D+02 0.188579323366970D+02 0.682039118060295D+01 0.570039185057145D+02
 0.156566352496144D+03 -.798755623152136D+02 -.975362386023133D+02 -.463937871241123D+02
 0.218987111085710D+02 0.103289205347962D+02 -.193097409072632D+02 0.292386197337487D-01
-.122620147603D-04 0.000000000000D+00 0.000000000000D+00 0.158729110625D-06 0.000000000000D+00  7 2 -2 24 -13 13 -24 21 2 0.51151746D-01 0.21993700D-01 0.36767417D+05 0.36767417D+05 0.36767417D+05 0.11592271D+01  1  2 13  1  7  1        2 -.323959747790D-02 0.100000000000D+01
-.907368896582D-09 0.000000000000D+00 0.000000000000D+00 0.158729110625D-06 0.000000000000D+00  7 2 -2 24 -13 13 -24 21 2 0.47409740D-01 0.21993700D-01 0.32761362D+05 0.32761362D+05 0.32761362D+05 0.11638044D+01  1  2  8  1  7  1        2 -.261730018263D-06 0.100000000000D+01
0.951862759022D-05 0.000000000000D+00 0.000000000000D+00 0.158729110625D-06 0.237595797612D-08  7 2 -2 24 -13 13 -24 21 2 0.49950711D-01 0.23169410D-01 0.36767417D+05 0.36767417D+05 0.36767417D+05 0.11592271D+01  1  2  1  1  7  1        2 0.236626557087D-02 0.100000000000D+01
  </mgrwgt>
  </event>
  <event>
  8     66 0.26993063E-05 0.31054196E+03 0.75467711E-02 0.92621499E-01
        2 -1    0    0  501    0 0.00000000E+00 0.00000000E+00 0.16040013E+04 0.16040014E+04 0.32000000E+00 0.0000E+00 0.9000E+01
       -2 -1    0    0    0  501 0.00000000E+00 0.00000000E+00 -.82231463E+02 0.82232086E+02 0.32000000E+00 0.0000E+00 0.9000E+01
       25  2    1    2    0    0 -.28069035E+03 -.58588149E+02 0.10194334E+04 0.11005902E+04 0.29972443E+03 0.0000E+00 0.0000E+00
       23  2    1    2    0    0 0.28069035E+03 0.58588149E+02 0.50233650E+03 0.58564326E+03 0.91741067E+02 0.0000E+00 0.0000E+00
       24  1    3    3    0    0 -.15723015E+03 -.10434741E+02 0.86081567E+03 0.87880660E+03 0.80419002E+02 0.0000E+00 0.9000E+01
      -11  1    4    4    0    0 0.28485830E+02 -.53391371E+01 0.11810623E+03 0.12161016E+03 0.51099893E-03 0.0000E+00 0.9000E+01
       11  1    4    4    0    0 0.25220452E+03 0.63927286E+02 0.38423026E+03 0.46403309E+03 0.51099893E-03 0.0000E+00 0.9000E+01
      -24  1    3    3    0    0 -.12346020E+03 -.48153408E+02 0.15861769E+03 0.22178359E+03 0.80419002E+02 0.0000E+00 0.9000E+01
#aMCatNLO 1  0  0  1  2 0.43406405D+03 0.00000000D+00  -5  7  0 0.00000000D+00 0.00000000D+00 0.00000000D+00 0.00000000D+00 0.00000000D+00
  <mgrwgt>
 0.1622259123D-02    3    2    0
 0.363180295958765D+03 0.000000000000000D+00 0.000000000000000D+00 0.363180295958765D+03
 0.363180295958765D+03 0.000000000000000D+00 0.000000000000000D+00 -.363180295958765D+03
 0.236672712170069D+03 -.157230146179077D+03 -.104347408962206D+02 0.157214993071592D+03
 0.348760852127948D+02 0.284858295259343D+02 -.533913711651437D+01 0.194008363438432D+02
 0.272258829816041D+03 0.252204516716898D+03 0.639272859381986D+02 -.801938543341792D+02
 0.182552964718625D+03 -.123460200063755D+03 -.481534079254635D+02 -.964219750812559D+02
 0.000000000000000D+00 0.000000000000000D+00 0.000000000000000D+00 -.000000000000000D+00
 0.480084825049530D+03 0.000000000000000D+00 0.000000000000000D+00 0.480084825049530D+03
 0.124948917093332D+04 0.000000000000000D+00 0.000000000000000D+00 -.124948917093332D+04
 0.368556115753759D+03 -.319737529491729D+03 -.491706486956639D+02 0.157214993071592D+03
 0.248098691797893D+02 0.124598112311186D+02 -.915916273261720D+01 0.194008363438432D+02
 0.161703443265073D+03 0.135683177677677D+03 0.361527949970260D+02 -.801938543341792D+02
 0.291105085411211D+03 -.250640081061196D+03 -.784685114231485D+02 -.964219750812559D+02
 0.883399482373017D+03 0.422234621644129D+03 0.100645527854404D+03 -.769404345883789D+03
0.261521195649D-04 0.000000000000D+00 0.000000000000D+00 0.180356003484D-05 0.000000000000D+00  7 2 -2 24 -11 11 -24 21 0 0.24676948D+00 0.12651045D-01 0.96436308D+05 0.96436308D+05 0.96436308D+05 0.11230176D+01  1  2  2  1  7  1        2 0.160057709860D-02 0.100000000000D+01
-.140958529834D-05 0.000000000000D+00 -.100431025140D-06 0.180356003484D-05 0.000000000000D+00  7 2 -2 24 -11 11 -24 21 2 0.24676948D+00 0.12651045D-01 0.96436308D+05 0.96436308D+05 0.96436308D+05 0.11230176D+01  1  2  3  1  7  1        2 -.108801324117D-03 0.100000000000D+01
0.169048871364D-05 0.000000000000D+00 0.000000000000D+00 0.180356003484D-05 0.000000000000D+00  7 2 -2 24 -11 11 -24 21 2 0.24676948D+00 0.12651045D-01 0.96436308D+05 0.96436308D+05 0.96436308D+05 0.11230176D+01  1  2 15  1  7  1        2 0.130483349014D-03 0.100000000000D+01
  </mgrwgt>
  </event>
  <event>
  8     66 0.26993063E-05 0.62999097E+03 0.75467711E-02 0.91312745E-01
        2 -1    0    0  501    0 0.00000000E+00 0.00000000E+00 0.18218275E+04 0.18218275E+04 0.32000000E+00 0.0000E+00 0.9000E+01
       -2 -1    0    0    0  501 0.00000000E+00 0.00000000E+00 -.40244214E+03 0.40244227E+03 0.32000000E+00 0.0000E+00 0.9000E+01
       25  2    1    2    0    0 0.73445660E+02 0.61180659E+03 0.12459783E+02 0.68556115E+03 0.30022871E+03 0.0000E+00 0.0000E+00
       23  2    1    2    0    0 -.73445660E+02 -.61180659E+03 0.14069256E+04 0.15387087E+04 0.92104113E+02 0.0000E+00 0.0000E+00
       24  1    3    3    0    0 0.28206585E+02 0.26673012E+03 -.11993087E+03 0.30461648E+03 0.80419002E+02 0.0000E+00 0.9000E+01
      -13  1    4    4    0    0 -.25021534E+02 -.30509165E+02 0.78507366E+02 0.87865260E+02 0.10565837E+00 0.0000E+00 0.9000E+01
       13  1    4    4    0    0 -.48424127E+02 -.58129743E+03 0.13284182E+04 0.14508434E+04 0.10565837E+00 0.0000E+00 0.9000E+01
      -24  1    3    3    0    0 0.45239075E+02 0.34507647E+03 0.13239066E+03 0.38094468E+03 0.80419002E+02 0.0000E+00 0.9000E+01
#aMCatNLO 1  0  0  1  2 0.90252182D+02 0.00000000D+00  -5  7  0 0.00000000D+00 0.00000000D+00 0.00000000D+00 0.00000000D+00 0.00000000D+00
  <mgrwgt>
 0.1233802795D-02    4    2    0
 0.856259508600922D+03 0.000000000000000D+00 0.000000000000000D+00 0.856259508600922D+03
 0.856259508600922D+03 0.000000000000000D+00 0.000000000000000D+00 -.856259508600922D+03
 0.495046977650351D+03 0.282065851950401D+02 0.266730120743721D+03 -.408244688105126D+03
 0.490518257485167D+02 -.250215028112591D+02 -.305084400984210D+02 0.291417413530842D+02
 0.783367331097829D+03 -.484241575167667D+02 -.581298150770814D+03 0.522888072450079D+03
 0.385052882705147D+03 0.452390751329857D+02 0.345076470125514D+03 -.143785125698037D+03
 0.000000000000000D+00 0.000000000000000D+00 -.000000000000000D+00 -.000000000000000D+00
 0.872386058080022D+03 0.000000000000000D+00 0.000000000000000D+00 0.872386058080022D+03
 0.993766395204818D+03 0.000000000000000D+00 0.000000000000000D+00 -.993766395204818D+03
 0.499791107813295D+03 0.404214318202240D+01 0.276846295274680D+03 -.408244688105126D+03
 0.497153862927594D+02 -.274205410095671D+02 -.295041094746289D+02 0.291417413530842D+02
 0.774978260711666D+03 -.862760976864803D+02 -.565451857573315D+03 0.522888072450079D+03
 0.390410822355557D+03 0.264031982119628D+02 0.352961900224586D+03 -.143785125698037D+03
 0.151256876111562D+03 0.832512973020622D+02 -.348522284513218D+02 -.121380337124796D+03
0.592684393004D-03 0.000000000000D+00 0.000000000000D+00 0.163584375875D-04 0.000000000000D+00  7 2 -2 24 -13 13 -24 21 0 0.28028117D+00 0.61914188D-01 0.39688862D+06 0.39688862D+06 0.39688862D+06 0.10756722D+01  1  2  2  1  7  1        2 0.155900842674D-02 0.100000000000D+01
-.291569596588D-04 0.000000000000D+00 -.227606412652D-05 0.163584375875D-04 0.000000000000D+00  7 2 -2 24 -13 13 -24 21 2 0.28028117D+00 0.61914188D-01 0.39688862D+06 0.39688862D+06 0.39688862D+06 0.10756722D+01  1  2  3  1  7  1        2 -.887415654571D-04 0.100000000000D+01
0.368839673575D-04 0.000000000000D+00 0.000000000000D+00 0.163584375875D-04 0.000000000000D+00  7 2 -2 24 -13 13 -24 21 2 0.28028117D+00 0.61914188D-01 0.39688862D+06 0.39688862D+06 0.39688862D+06 0.10756722D+01  1  2 15  1  7  1        2 0.112259338487D-03 0.100000000000D+01
-.114576683244D-03 0.000000000000D+00 0.000000000000D+00 0.163584375875D-04 0.000000000000D+00  7 2 -2 24 -13 13 -24 21 2 0.28028117D+00 0.61914188D-01 0.39688862D+06 0.39688862D+06 0.39688862D+06 0.10756722D+01  1  2  4  1  7  1        2 -.348723404461D-03 0.100000000000D+01
  </mgrwgt>
  </event>
  <event>
  9     66 0.26993063E-05 0.30778449E+03 0.75467711E-02 0.93508224E-01
        2 -1    0    0  502    0 0.00000000E+00 0.00000000E+00 0.11496788E+04 0.11496788E+04 0.32000000E+00 0.0000E+00 0.9000E+01
       -2 -1    0    0    0  501 0.00000000E+00 0.00000000E+00 -.39597202E+03 0.39597215E+03 0.32000000E+00 0.0000E+00 0.9000E+01
       25  2    1    2    0    0 0.37526748E+03 0.16378083E+03 0.72622725E+03 0.88610966E+03 0.30022402E+03 0.0000E+00 0.0000E+00
       23  2    1    2    0    0 -.12015559E+03 0.14294720E+03 -.11433029E+03 0.23613282E+03 0.88408290E+02 0.0000E+00 0.0000E+00
       24  1    3    3    0    0 -.10376835E+01 0.80829904E+02 0.15757984E+03 0.19450751E+03 0.80419002E+02 0.0000E+00 0.9000E+01
      -11  1    4    4    0    0 -.12082155E+03 0.10432881E+03 -.11622794E+03 0.19746210E+03 0.51099893E-03 0.0000E+00 0.9000E+01
       11  1    4    4    0    0 0.66595428E+00 0.38618391E+02 0.18976516E+01 0.38670721E+02 0.51099893E-03 0.0000E+00 0.9000E+01
      -24  1    3    3    0    0 0.37630516E+03 0.82950930E+02 0.56864742E+03 0.69160215E+03 0.80419002E+02 0.0000E+00 0.9000E+01
       21  1    1    2  502  501 -.25511188E+03 -.30672804E+03 0.14180978E+03 0.42340848E+03 0.75000000E+00 0.0000E+00 0.9000E+01
#aMCatNLO 2  0  0  1  2 0.39895384D+03 0.00000000D+00  -5  7  0 0.00000000D+00 0.00000000D+00 0.00000000D+00 0.00000000D+00 0.00000000D+00
  <mgrwgt>
 0.6446006485D-04    1    2    0
 0.425983020687204D+03 0.000000000000000D+00 0.000000000000000D+00 0.425983020687204D+03
 0.425983020687204D+03 0.000000000000000D+00 0.000000000000000D+00 -.425983020687204D+03
 0.114246214242719D+03 -.357291868314246D+02 0.391193554549797D+02 0.614661105941713D+02
 0.342199469991770D+03 -.213797085371218D+03 -.745823378975747D+01 -.267087360798219D+03
 0.354726847675840D+02 -.107710157292777D+02 0.248674069211271D+02 -.228890510462780D+02
 0.360047672372334D+03 0.260297287931920D+03 -.565285285863493D+02 0.228510301250326D+03
 0.000000000000000D+00 -.000000000000000D+00 -.000000000000000D+00 -.000000000000000D+00
 0.623686674172317D+03 0.000000000000000D+00 0.000000000000000D+00 0.623686674172317D+03
 0.729918260489803D+03 0.000000000000000D+00 0.000000000000000D+00 -.729918260489803D+03
 0.129537056190123D+03 -.103768353701980D+01 0.808299043259037D+02 0.614661105941713D+02
 0.311155919023720D+03 -.120821547754530D+03 0.104328813103272D+03 -.267087360798219D+03
 0.448969068845205D+02 0.665954283547819D+00 0.386183906305068D+02 -.228890510462780D+02
 0.455159977645984D+03 0.376305161753702D+03 0.829509298099039D+02 0.228510301250326D+03
 0.412855074917772D+03 -.255111884745700D+03 -.306728037869586D+03 -.106231586317487D+03
0.840048227714D-05 0.000000000000D+00 0.000000000000D+00 0.873938266947D-06 0.422909566354D-10  7 2 -2 24 -11 11 -24 21 2 0.17687358D+00 0.60918755D-01 0.30518812D+06 0.30518812D+06 0.30518812D+06 0.10840014D+01  1  2  1  1  7  1        2 0.644600648540D-04 0.100000000000D+01
  </mgrwgt>
  </event>
  <event>
  8     66 0.26993063E-05 0.24195881E+03 0.75467711E-02 0.98164516E-01
        2 -1    0    0  501    0 0.00000000E+00 0.00000000E+00 0.17957502E+03 0.17957530E+03 0.32000000E+00 0.0000E+00 0.9000E+01
       -2 -1    0    0    0  501 0.00000000E+00 0.00000000E+00 -.61810623E+03 0.61810631E+03 0.32000000E+00 0.0000E+00 0.9000E+01
       25  2    1    2    0    0 -.22737607E+03 0.98325132E+02 -.31975497E+03 0.50790004E+03 0.30716689E+03 0.0000E+00 0.0000E+00
       23  2    1    2    0    0 0.22737607E+03 -.98325132E+02 -.11877623E+03 0.28978157E+03 0.92183804E+02 0.0000E+00 0.0000E+00
       24  1    3    3    0    0 -.13729683E+02 0.11540962E+03 -.21223580E+03 0.25498850E+03 0.80419002E+02 0.0000E+00 0.9000E+01
      -11  1    4    4    0    0 0.22156666E+03 -.10001170E+03 -.13099968E+03 0.27614316E+03 0.51099893E-03 0.0000E+00 0.9000E+01
       11  1    4    4    0    0 0.58094115E+01 0.16865715E+01 0.12223443E+02 0.13638414E+02 0.51099893E-03 0.0000E+00 0.9000E+01
      -24  1    3    3    0    0 -.21364639E+03 -.17084490E+02 -.10751918E+03 0.25291155E+03 0.80419002E+02 0.0000E+00 0.9000E+01
#aMCatNLO 1  0  0  1  2 0.11489224D+03 0.00000000D+00  -5  7  0 0.00000000D+00 0.00000000D+00 0.00000000D+00 0.00000000D+00 0.00000000D+00
  <mgrwgt>
 0.8335848338D-03    9    2    0
 0.333161499036853D+03 0.000000000000000D+00 0.000000000000000D+00 0.333161499036853D+03
 0.333161499036853D+03 0.000000000000000D+00 0.000000000000000D+00 -.333161499036853D+03
 0.165576780104580D+03 -.137296825119090D+02 0.115409621682272D+03 -.862587340314416D+02
 0.244366279208882D+03 0.221566663477223D+03 -.100011703485573D+03 0.249148794072519D+02
 0.243717740557136D+02 0.580941149673571D+01 0.168657150885733D+01 0.236090996276829D+02
 0.232008164704530D+03 -.213646392462050D+03 -.170844897055558D+02 0.377347549965069D+02
 0.000000000000000D+00 0.000000000000000D+00 0.000000000000000D+00 0.000000000000000D+00
 0.497811188161689D+03 0.000000000000000D+00 0.000000000000000D+00 0.497811188161689D+03
 0.358737651864815D+03 0.000000000000000D+00 0.000000000000000D+00 -.358737651864815D+03
 0.151504500342781D+03 -.263502719671553D+02 0.913864959405657D+02 -.862587340314416D+02
 0.245470669317632D+03 0.202069987361113D+03 -.137123369588295D+03 0.249148794072519D+02
 0.240081059223361D+02 0.388377715390854D+01 -.197884809094235D+01 0.236090996276829D+02
 0.255172449862353D+03 -.233037340165832D+03 -.539949031684685D+02 0.377347549965069D+02
 0.180393114581402D+03 0.534338476179663D+02 0.101710624907141D+03 0.139073536296873D+03
0.339113933223D-04 0.000000000000D+00 0.000000000000D+00 0.788458735153D-08 0.000000000000D+00  7 2 -2 24 -11 11 -24 21 0 0.27626954D-01 0.95093294D-01 0.95912338D+05 0.95912338D+05 0.95912338D+05 0.11232125D+01  1  2  2  1  7  1        2 0.771579960531D-03 0.100000000000D+01
-.187174869966D-05 0.000000000000D+00 -.130228679432D-06 0.788458735153D-08 0.000000000000D+00  7 2 -2 24 -11 11 -24 21 2 0.27626954D-01 0.95093294D-01 0.95912338D+05 0.95912338D+05 0.95912338D+05 0.11232125D+01  1  2  3  1  7  1        2 -.537287450320D-04 0.100000000000D+01
0.216152492235D-05 0.000000000000D+00 0.000000000000D+00 0.788458735153D-08 0.000000000000D+00  7 2 -2 24 -11 11 -24 21 2 0.27626954D-01 0.95093294D-01 0.95912338D+05 0.95912338D+05 0.95912338D+05 0.11232125D+01  1  2 15  1  7  1        2 0.620468022519D-04 0.100000000000D+01
0.402526655841D-04 0.000000000000D+00 0.000000000000D+00 0.788458735153D-08 0.000000000000D+00  7 2 -2 24 -11 11 -24 21 2 0.41922002D-01 0.95093294D-01 0.13703782D+06 0.13703782D+06 0.13703782D+06 0.11106627D+01  1  2 12  1  7  1        2 0.703668722621D-03 0.100000000000D+01
-.459556724045D-04 0.000000000000D+00 0.000000000000D+00 0.788458735153D-08 0.000000000000D+00  7 2 -2 24 -11 11 -24 21 2 0.27626954D-01 0.95093294D-01 0.95912338D+05 0.95912338D+05 0.95912338D+05 0.11232125D+01  1  2  4  1  7  1        2 -.131916245265D-02 0.100000000000D+01
-.548479929914D-04 0.000000000000D+00 -.141413740238D-04 0.788458735153D-08 0.000000000000D+00  7 2 -2 24 -11 11 -24 21 2 0.43820511D-01 0.95093294D-01 0.95912338D+05 0.95912338D+05 0.95912338D+05 0.11232125D+01  1  2  5  1  7  1        2 -.940577679859D-03 0.100000000000D+01
0.566211602943D-04 0.000000000000D+00 0.127594734093D-04 0.788458735153D-08 0.000000000000D+00  7 2 -2 24 -11 11 -24 21 2 0.27626954D-01 0.95093294D-01 0.95912338D+05 0.95912338D+05 0.95912338D+05 0.11232125D+01  1  2  6  1  7  1        2 0.162531641423D-02 0.100000000000D+01
0.197579719859D-05 0.000000000000D+00 0.000000000000D+00 0.788458735153D-08 0.000000000000D+00  7 21 -2 24 -11 11 -24 -2 2 0.41922002D-01 0.95093294D-01 0.13703782D+06 0.13703782D+06 0.13703782D+06 0.11106627D+01  1  2 12  3  7  1        2 0.131494944722D-03 0.100000000000D+01
-.232434841560D-05 0.000000000000D+00 -.748885693555D-06 0.788458735153D-08 0.000000000000D+00  7 21 -2 24 -11 11 -24 -2 2 0.43820511D-01 0.95093294D-01 0.95912338D+05 0.95912338D+05 0.95912338D+05 0.11232125D+01  1  2  5  3  7  1        2 -.147053133012D-03 0.100000000000D+01
  </mgrwgt>
  </event>
  <event>
  8     66 0.26993063E-05 0.37453392E+03 0.75467711E-02 0.93871274E-01
        2 -1    0    0  501    0 0.00000000E+00 0.00000000E+00 0.43158491E+03 0.43158503E+03 0.32000000E+00 0.0000E+00 0.9000E+01
       -2 -1    0    0    0  501 0.00000000E+00 0.00000000E+00 -.35835182E+03 0.35835196E+03 0.32000000E+00 0.0000E+00 0.9000E+01
       25  2    1    2    0    0 0.32727636E+03 -.14205599E+02 0.13512295E+02 0.44465785E+03 0.30037711E+03 0.0000E+00 0.0000E+00
       23  2    1    2    0    0 -.32727636E+03 0.14205599E+02 0.59720804E+02 0.34527914E+03 0.91320844E+02 0.0000E+00 0.0000E+00
       24  1    3    3    0    0 0.29621612E+03 0.53877344E+02 -.53195364E+02 0.31613877E+03 0.80419002E+02 0.0000E+00 0.9000E+01
      -11  1    4    4    0    0 -.67365083E+02 0.32789619E+01 0.51759017E+02 0.85016480E+02 0.51099893E-03 0.0000E+00 0.9000E+01
       11  1    4    4    0    0 -.25991128E+03 0.10926637E+02 0.79617869E+01 0.26026266E+03 0.51099893E-03 0.0000E+00 0.9000E+01
      -24  1    3    3    0    0 0.31060236E+02 -.68082943E+02 0.66707659E+02 0.12851908E+03 0.80419002E+02 0.0000E+00 0.9000E+01
#aMCatNLO 1  0  0  2  2 0.27392541D+03 0.00000000D+00  -5  7  0 0.00000000D+00 0.00000000D+00 0.00000000D+00 0.00000000D+00 0.00000000D+00
  <mgrwgt>
 0.8598767643D-03    3    2    0
 0.393267518274962D+03 0.000000000000000D+00 0.000000000000000D+00 0.393267518274962D+03
 0.393267518274962D+03 0.000000000000000D+00 0.000000000000000D+00 -.393267518274962D+03
 0.322459089770121D+03 0.296216124543299D+03 0.538773438643571D+02 -.828606541108338D+02
 0.805649923928412D+02 -.673650834681736D+02 0.327896190398020D+01 0.440671298976552D+02
 0.260647051371924D+03 -.259911276978279D+03 0.109266374939553D+02 -.162364430056168D+02
 0.122863903015037D+03 0.310602359031538D+02 -.680829432622925D+02 0.550299672187954D+02
 0.000000000000000D+00 -.000000000000000D+00 -.000000000000000D+00 0.000000000000000D+00
 0.857519928861970D+03 0.000000000000000D+00 0.000000000000000D+00 0.857519928861970D+03
 0.458963751879730D+03 0.000000000000000D+00 0.000000000000000D+00 -.458963751879730D+03
 0.383815587897881D+03 0.324144218541147D+03 0.170034782164412D+03 -.828606541108338D+02
 0.809368795308746D+02 -.609788436629937D+02 0.298403611959149D+02 0.440671298976552D+02
 0.258541096075281D+03 -.239381112379499D+03 0.963148966374709D+02 -.162364430056168D+02
 0.109576471745328D+03 0.402515843125811D+02 -.298546457692875D+02 0.550299672187954D+02
 0.483613645492336D+03 -.640358468112358D+02 -.266335394228510D+03 0.398556176982240D+03
0.303587221198D-04 0.000000000000D+00 0.000000000000D+00 0.229843455191D-05 0.000000000000D+00  7 2 -2 24 -11 11 -24 21 0 0.66397699D-01 0.55131069D-01 0.14027566D+06 0.14027566D+06 0.14027566D+06 0.11098564D+01  1  2  2  2  7  2       -2 0.849851483333D-03 0.100000000000D+01
-.168171061874D-05 0.000000000000D+00 -.116585486575D-06 0.229843455191D-05 0.000000000000D+00  7 2 -2 24 -11 11 -24 21 2 0.66397699D-01 0.55131069D-01 0.14027566D+06 0.14027566D+06 0.14027566D+06 0.11098564D+01  1  2  3  2  7  2       -2 -.579888322936D-04 0.100000000000D+01
0.197244972770D-05 0.000000000000D+00 0.000000000000D+00 0.229843455191D-05 0.000000000000D+00  7 2 -2 24 -11 11 -24 21 2 0.66397699D-01 0.55131069D-01 0.14027566D+06 0.14027566D+06 0.14027566D+06 0.11098564D+01  1  2 15  2  7  2       -2 0.680141132443D-04 0.100000000000D+01
  </mgrwgt>
  </event>
  <event>
  8     66 0.26993063E-05 0.13115178E+04 0.75467711E-02 0.80725175E-01
        2 -1    0    0  501    0 0.00000000E+00 0.00000000E+00 0.81679463E+03 0.81679470E+03 0.32000000E+00 0.0000E+00 0.9000E+01
       -2 -1    0    0    0  501 0.00000000E+00 0.00000000E+00 -.22069448E+04 0.22069449E+04 0.32000000E+00 0.0000E+00 0.9000E+01
       25  2    1    2    0    0 0.91904926E+02 -.12916385E+04 -.10150100E+04 0.16724975E+04 0.30037610E+03 0.0000E+00 0.0000E+00
       23  2    1    2    0    0 -.91904926E+02 0.12916385E+04 -.37514015E+03 0.13512421E+04 0.91370204E+02 0.0000E+00 0.0000E+00
       24  1    3    3    0    0 -.64693906E+02 -.78283237E+03 -.56729282E+03 0.97226549E+03 0.80419002E+02 0.0000E+00 0.9000E+01
      -11  1    4    4    0    0 -.81635682E+00 0.68045092E+02 -.41515588E+02 0.79714146E+02 0.51099893E-03 0.0000E+00 0.9000E+01
       11  1    4    4    0    0 -.91088569E+02 0.12235934E+04 -.33362457E+03 0.12715279E+04 0.51099893E-03 0.0000E+00 0.9000E+01
      -24  1    3    3    0    0 0.15659883E+03 -.50880613E+03 -.44771723E+03 0.70023197E+03 0.80419002E+02 0.0000E+00 0.9000E+01
#aMCatNLO 1  0  0  1  1 0.13032065D+04 0.00000000D+00  -5  7  0 0.00000000D+00 0.00000000D+00 0.00000000D+00 0.00000000D+00 0.00000000D+00
  <mgrwgt>
 0.1528940194D-02    3    2    0
 0.134261715561363D+04 0.000000000000000D+00 0.000000000000000D+00 0.134261715561363D+04
 0.134261715561363D+04 0.000000000000000D+00 0.000000000000000D+00 -.134261715561363D+04
 0.801142524637656D+03 -.646939061900366D+02 -.782832373023006D+03 -.135463290516179D+03
 0.682703596527775D+02 -.816356817570877D+00 0.680450918711878D+02 -.548097079973869D+01
 0.125910095897128D+04 -.910885692743327D+02 0.122359341563027D+04 0.282590252231418D+03
 0.556720467965544D+03 0.156598832281940D+03 -.508806134478450D+03 -.141645990915501D+03
 0.000000000000000D+00 0.000000000000000D+00 0.000000000000000D+00 -.000000000000000D+00
 0.183560470171230D+04 0.000000000000000D+00 0.000000000000000D+00 0.183560470171230D+04
 0.272944660191533D+04 0.000000000000000D+00 0.000000000000000D+00 -.272944660191533D+04
 0.120684203830178D+04 -.352923428315587D+03 -.114328265976814D+04 -.135463290516179D+03
 0.503413400276371D+02 -.178420820887549D+02 0.467532841799237D+02 -.548097079973869D+01
 0.963367655878930D+03 -.410105497302695D+03 0.824641419539157D+03 0.282590252231418D+03
 0.764215352396191D+03 -.330105438499365D+02 -.745925335496765D+03 -.141645990915501D+03
 0.158028491702310D+04 0.813881551556973D+03 0.101781329154582D+04 -.893841900203033D+03
0.268077072510D-01 0.000000000000D+00 0.000000000000D+00 0.386183064856D-04 0.000000000000D+00  7 2 -2 24 -11 11 -24 21 0 0.12566072D+00 0.33952998D+00 0.17200790D+07 0.17200790D+07 0.17200790D+07 0.10325351D+01  1  2  2  1  7  1        2 0.151488708754D-02 0.100000000000D+01
-.148832252447D-02 0.000000000000D+00 -.102948654475D-03 0.386183064856D-04 0.000000000000D+00  7 2 -2 24 -11 11 -24 21 2 0.12566072D+00 0.33952998D+00 0.17200790D+07 0.17200790D+07 0.17200790D+07 0.10325351D+01  1  2  3  1  7  1        2 -.896659019043D-04 0.100000000000D+01
0.172158348803D-02 0.000000000000D+00 0.000000000000D+00 0.386183064856D-04 0.000000000000D+00  7 2 -2 24 -11 11 -24 21 2 0.12566072D+00 0.33952998D+00 0.17200790D+07 0.17200790D+07 0.17200790D+07 0.10325351D+01  1  2 15  1  7  1        2 0.103719008225D-03 0.100000000000D+01
  </mgrwgt>
  </event>
  <event>
  8     66 0.26993063E-05 0.24336850E+03 0.75467711E-02 0.95286028E-01
        2 -1    0    0  501    0 0.00000000E+00 0.00000000E+00 0.13918473E+04 0.13918474E+04 0.32000000E+00 0.0000E+00 0.9000E+01
       -2 -1    0    0    0  501 0.00000000E+00 0.00000000E+00 -.49223582E+02 0.49224622E+02 0.32000000E+00 0.0000E+00 0.9000E+01
       25  2    1    2    0    0 -.89736572E+02 -.11032400E+03 0.10905261E+04 0.11399193E+04 0.29990800E+03 0.0000E+00 0.0000E+00
       23  2    1    2    0    0 0.89736572E+02 0.11032400E+03 0.25209768E+03 0.30115271E+03 0.83160572E+02 0.0000E+00 0.0000E+00
       24  1    3    3    0    0 0.81529404E+02 -.79540107E+02 0.49845770E+03 0.51759151E+03 0.80419002E+02 0.0000E+00 0.9000E+01
      -13  1    4    4    0    0 0.70535897E+02 0.11584783E+03 0.24483630E+03 0.27989436E+03 0.10565837E+00 0.0000E+00 0.9000E+01
       13  1    4    4    0    0 0.19200675E+02 -.55238269E+01 0.72613791E+01 0.21258348E+02 0.10565837E+00 0.0000E+00 0.9000E+01
      -24  1    3    3    0    0 -.17126598E+03 -.30783891E+02 0.59206838E+03 0.62232778E+03 0.80419002E+02 0.0000E+00 0.9000E+01
#aMCatNLO 1  0  0  1  1 0.35519827D+03 0.00000000D+00  -5  7  0 0.00000000D+00 0.00000000D+00 0.00000000D+00 0.00000000D+00 0.00000000D+00
  <mgrwgt>
 0.1463424911D-02    3    2    0
 0.261748902210854D+03 0.000000000000000D+00 0.000000000000000D+00 0.261748902210854D+03
 0.261748902210854D+03 0.000000000000000D+00 0.000000000000000D+00 -.261748902210854D+03
 0.146410310719083D+03 0.815294021752274D+02 -.795401091671091D+02 0.446664386885978D+02
 0.142550718378917D+03 0.705359833968748D+02 0.115848016562022D+03 -.438704845565528D+02
 0.398959099879573D+02 0.192005933067404D+02 -.552401276497585D+01 -.345326821056333D+02
 0.194640865335750D+03 -.171265978878843D+03 -.307838946299370D+02 0.337367279735882D+02
 0.000000000000000D+00 0.000000000000000D+00 0.000000000000000D+00 -.000000000000000D+00
 0.390737440869836D+03 0.000000000000000D+00 0.000000000000000D+00 0.390737440869836D+03
 0.740118301468070D+03 0.000000000000000D+00 0.000000000000000D+00 -.740118301468070D+03
 0.132540413660031D+03 -.269663758421099D+01 -.953802007725858D+02 0.446664386885978D+02
 0.110703957365251D+03 -.593142293795219D+01 0.101467063538036D+03 -.438704845565528D+02
 0.361020191192751D+02 -.374612824369838D+01 -.983952103821846D+01 -.345326821056333D+02
 0.353279691986202D+03 -.336704440272807D+03 -.618973174031578D+02 0.337367279735882D+02
 0.498229660207146D+03 0.349078629038668D+03 0.656499756759262D+02 -.349380860598234D+03
0.821032001122D-05 0.000000000000D+00 0.000000000000D+00 0.184065315956D-07 0.000000000000D+00  7 2 -2 24 -13 13 -24 21 0 0.21413044D+00 0.75729416D-02 0.59228227D+05 0.59228227D+05 0.59228227D+05 0.11408809D+01  1  2  2  1  7  1        2 0.144398943566D-02 0.100000000000D+01
-.453188952582D-06 0.000000000000D+00 -.315297906700D-07 0.184065315956D-07 0.000000000000D+00  7 2 -2 24 -13 13 -24 21 2 0.21413044D+00 0.75729416D-02 0.59228227D+05 0.59228227D+05 0.59228227D+05 0.11408809D+01  1  2  3  1  7  1        2 -.103744202189D-03 0.100000000000D+01
0.538089532238D-06 0.000000000000D+00 0.000000000000D+00 0.184065315956D-07 0.000000000000D+00  7 2 -2 24 -13 13 -24 21 2 0.21413044D+00 0.75729416D-02 0.59228227D+05 0.59228227D+05 0.59228227D+05 0.11408809D+01  1  2 15  1  7  1        2 0.123179677947D-03 0.100000000000D+01
  </mgrwgt>
  </event>
  <event>
  8     66 0.26993063E-05 0.52636964E+03 0.75467711E-02 0.91401534E-01
        2 -1    0    0  501    0 0.00000000E+00 0.00000000E+00 0.45263406E+03 0.45263417E+03 0.32000000E+00 0.0000E+00 0.9000E+01
       -2 -1    0    0    0  501 0.00000000E+00 0.00000000E+00 -.68619670E+03 0.68619678E+03 0.32000000E+00 0.0000E+00 0.9000E+01
       25  2    1    2    0    0 0.23463733E+03 0.42362748E+03 0.48663963E+02 0.57247817E+03 0.30141027E+03 0.0000E+00 0.0000E+00
       23  2    1    2    0    0 -.23463733E+03 -.42362748E+03 -.28222660E+03 0.56635278E+03 0.81170793E+02 0.0000E+00 0.0000E+00
       24  1    3    3    0    0 0.19037794E+03 0.42750458E+03 0.16464362E+02 0.47512337E+03 0.80419002E+02 0.0000E+00 0.9000E+01
      -13  1    4    4    0    0 -.59892316E+02 -.74338304E+02 -.24960473E+02 0.98672739E+02 0.10565837E+00 0.0000E+00 0.9000E+01
       13  1    4    4    0    0 -.17474502E+03 -.34928918E+03 -.25726613E+03 0.46768004E+03 0.10565837E+00 0.0000E+00 0.9000E+01
      -24  1    3    3    0    0 0.44259394E+02 -.38771013E+01 0.32199601E+02 0.97354795E+02 0.80419002E+02 0.0000E+00 0.9000E+01
#aMCatNLO 1  0  0  1  1 0.26051658D+03 0.00000000D+00  -5  7  0 0.00000000D+00 0.00000000D+00 0.00000000D+00 0.00000000D+00 0.00000000D+00
  <mgrwgt>
 0.1030510058D-02    4    2    0
 0.557311497286296D+03 0.000000000000000D+00 0.000000000000000D+00 0.557311497286296D+03
 0.557311497286296D+03 0.000000000000000D+00 0.000000000000000D+00 -.557311497286296D+03
 0.488892353135108D+03 0.190377938156650D+03 0.427504581416470D+03 0.116381229288766D+03
 0.955848885200802D+02 -.598921217467017D+02 -.743378383238859D+02 -.482601900185079D+01
 0.423929320960182D+03 -.174745210449984D+03 -.349289641845164D+03 -.164854258950835D+03
 0.106216431957222D+03 0.442593940400357D+02 -.387710124741972D+01 0.532990486639194D+02
 0.000000000000000D+00 0.000000000000000D+00 -.000000000000000D+00 -.000000000000000D+00
 0.627969867275562D+03 0.000000000000000D+00 0.000000000000000D+00 0.627969867275562D+03
 0.877286807504853D+03 0.000000000000000D+00 0.000000000000000D+00 -.877286807504853D+03
 0.536855438974995D+03 0.103242590910464D+03 0.507486870070541D+03 0.116381229288766D+03
 0.967243935598445D+02 -.762284338514812D+02 -.593425961907957D+02 -.482601900185079D+01
 0.410237696357105D+03 -.245606130916344D+03 -.284245790249318D+03 -.164854258950835D+03
 0.100845437249154D+03 0.266698773834837D+02 0.122684681795903D+02 0.532990486639194D+02
 0.360593708639318D+03 0.191922096473877D+03 -.176166951810018D+03 -.249316940229291D+03
0.189543227145D-03 0.000000000000D+00 0.000000000000D+00 0.114324281548D-07 0.000000000000D+00  7 2 -2 24 -13 13 -24 21 0 0.69636024D-01 0.10556874D+00 0.27706500D+06 0.27706500D+06 0.27706500D+06 0.10871165D+01  1  2  2  1  7  1        2 0.117194734888D-02 0.100000000000D+01
-.104884055710D-04 0.000000000000D+00 -.727895900114D-06 0.114324281548D-07 0.000000000000D+00  7 2 -2 24 -13 13 -24 21 2 0.69636024D-01 0.10556874D+00 0.27706500D+06 0.27706500D+06 0.27706500D+06 0.10871165D+01  1  2  3  1  7  1        2 -.766410615515D-04 0.100000000000D+01
0.121757510759D-04 0.000000000000D+00 0.000000000000D+00 0.114324281548D-07 0.000000000000D+00  7 2 -2 24 -13 13 -24 21 2 0.69636024D-01 0.10556874D+00 0.27706500D+06 0.27706500D+06 0.27706500D+06 0.10871165D+01  1  2 15  1  7  1        2 0.889708622847D-04 0.100000000000D+01
-.210431795359D-04 0.000000000000D+00 0.000000000000D+00 0.114324281548D-07 0.000000000000D+00  7 2 -2 24 -13 13 -24 21 2 0.69636024D-01 0.10556874D+00 0.27706500D+06 0.27706500D+06 0.27706500D+06 0.10871165D+01  1  2  4  1  7  1        2 -.153767091398D-03 0.100000000000D+01
  </mgrwgt>
  </event>
  <event>
  8     66 0.26993063E-05 0.44044565E+03 0.75467711E-02 0.89366500E-01
        2 -1    0    0  501    0 0.00000000E+00 0.00000000E+00 0.10696429E+04 0.10696429E+04 0.32000000E+00 0.0000E+00 0.9000E+01
       -2 -1    0    0    0  501 0.00000000E+00 0.00000000E+00 -.20595393E+03 0.20595418E+03 0.32000000E+00 0.0000E+00 0.9000E+01
       25  2    1    2    0    0 -.46773967E+02 0.39853093E+03 0.32377676E+03 0.59676204E+03 0.30046437E+03 0.0000E+00 0.0000E+00
       23  2    1    2    0    0 0.46773967E+02 -.39853093E+03 0.53991218E+03 0.67883506E+03 0.91088788E+02 0.0000E+00 0.0000E+00
       24  1    3    3    0    0 0.21507658E+02 0.31662343E+02 -.10077865E+02 0.89631817E+02 0.80419002E+02 0.0000E+00 0.9000E+01
      -11  1    4    4    0    0 0.33686664E+02 -.39513910E+03 0.51026527E+03 0.64625099E+03 0.51099893E-03 0.0000E+00 0.9000E+01
       11  1    4    4    0    0 0.13087303E+02 -.33918306E+01 0.29646913E+02 0.32584068E+02 0.51099893E-03 0.0000E+00 0.9000E+01
      -24  1    3    3    0    0 -.68281626E+02 0.36686859E+03 0.33385462E+03 0.50713023E+03 0.80419002E+02 0.0000E+00 0.9000E+01
#aMCatNLO 1  0  0  1  1 0.58438121D+03 0.00000000D+00  -5  7  0 0.00000000D+00 0.00000000D+00 0.00000000D+00 0.00000000D+00 0.00000000D+00
  <mgrwgt>
 0.1340467775D-02    5    2    0
 0.469358441638804D+03 0.000000000000000D+00 0.000000000000000D+00 0.469358441638804D+03
 0.469358441638804D+03 0.000000000000000D+00 0.000000000000000D+00 -.469358441638804D+03
 0.131070643609732D+03 0.215076584160378D+02 0.316623428822173D+02 -.961624372328761D+02
 0.408691302284897D+03 0.336866640489692D+02 -.395139101484583D+03 0.987870421995366D+02
 0.170002605350599D+02 0.130873030863179D+02 -.339183055493153D+01 0.103066406589831D+02
 0.381954676847919D+03 -.682816255513249D+02 0.366868589157297D+03 -.129312456256436D+02
 0.000000000000000D+00 0.000000000000000D+00 -.000000000000000D+00 0.000000000000000D+00
 0.106192837663541D+04 0.000000000000000D+00 0.000000000000000D+00 0.106192837663541D+04
 0.720591266241119D+03 0.000000000000000D+00 0.000000000000000D+00 -.720591266241119D+03
 0.166364334018736D+03 -.153007247860373D+02 0.108298426422466D+03 -.961624372328761D+02
 0.250598332862880D+03 -.479022120313300D+02 -.225268779038791D+03 0.987870421995366D+02
 0.145945776925644D+02 0.917735637472893D+01 0.474878787925059D+01 0.103066406589831D+02
 0.674196247964422D+03 -.198983159949470D+03 0.638992840146137D+03 -.129312456256436D+02
 0.676766150337926D+03 0.253008740392108D+03 -.526771275409063D+03 0.341337110394291D+03
0.515306004725D-04 0.000000000000D+00 0.000000000000D+00 0.283987224474D-05 0.000000000000D+00  7 2 -2 24 -11 11 -24 21 0 0.16456046D+00 0.31685244D-01 0.19399237D+06 0.19399237D+06 0.19399237D+06 0.10988441D+01  1  2  2  1  7  1        2 0.133910276595D-02 0.100000000000D+01
-.284874059220D-05 0.000000000000D+00 -.197891074133D-06 0.283987224474D-05 0.000000000000D+00  7 2 -2 24 -11 11 -24 21 2 0.16456046D+00 0.31685244D-01 0.19399237D+06 0.19399237D+06 0.19399237D+06 0.10988441D+01  1  2  3  1  7  1        2 -.893868797513D-04 0.100000000000D+01
0.333917873734D-05 0.000000000000D+00 0.000000000000D+00 0.283987224474D-05 0.000000000000D+00  7 2 -2 24 -11 11 -24 21 2 0.16456046D+00 0.31685244D-01 0.19399237D+06 0.19399237D+06 0.19399237D+06 0.10988441D+01  1  2 15  1  7  1        2 0.104775692487D-03 0.100000000000D+01
-.463860352533D-05 0.000000000000D+00 -.149944428244D-04 0.283987224474D-05 0.000000000000D+00  7 2 -2 24 -11 11 -24 21 2 0.44158716D+00 0.31685244D-01 0.19399237D+06 0.19399237D+06 0.19399237D+06 0.10988441D+01  1  2  5  1  7  1        2 -.141131690279D-04 0.100000000000D+01
0.368166033100D-06 0.000000000000D+00 -.164913446610D-05 0.283987224474D-05 0.000000000000D+00  7 21 -2 24 -11 11 -24 -2 2 0.44158716D+00 0.31685244D-01 0.19399237D+06 0.19399237D+06 0.19399237D+06 0.10988441D+01  1  2  5  3  7  1        2 0.893657483102D-07 0.100000000000D+01
  </mgrwgt>
  </event>
  <event>
  9     66 -.26993063E-05 0.38640847E+03 0.75467711E-02 0.97496134E-01
        2 -1    0    0  502    0 0.00000000E+00 0.00000000E+00 0.84509805E+03 0.84509811E+03 0.32000000E+00 0.0000E+00 0.9000E+01
       -2 -1    0    0    0  501 0.00000000E+00 0.00000000E+00 -.22081574E+03 0.22081597E+03 0.32000000E+00 0.0000E+00 0.9000E+01
       25  2    1    2    0    0 -.34975139E+03 -.10911704E+03 0.29625618E+03 0.56031041E+03 0.30322840E+03 0.0000E+00 0.0000E+00
       23  2    1    2    0    0 0.34417293E+03 0.11647217E+03 0.32389064E+03 0.49546061E+03 0.92494834E+02 0.0000E+00 0.0000E+00
       24  1    3    3    0    0 -.21807012E+03 -.99101987E+02 0.32744209E+02 0.25478457E+03 0.80419002E+02 0.0000E+00 0.9000E+01
      -11  1    4    4    0    0 0.16476771E+03 0.77930691E+02 0.10697789E+03 0.21134299E+03 0.51099893E-03 0.0000E+00 0.9000E+01
       11  1    4    4    0    0 0.17940522E+03 0.38541482E+02 0.21691275E+03 0.28411762E+03 0.51099893E-03 0.0000E+00 0.9000E+01
      -24  1    3    3    0    0 -.13168127E+03 -.10015056E+02 0.26351197E+03 0.30552583E+03 0.80419002E+02 0.0000E+00 0.9000E+01
       21  1    1    2  502  501 0.55784572E+01 -.73551296E+01 0.41354922E+01 0.10143072E+02 0.75000000E+00 0.0000E+00 0.9000E+01
#aMCatNLO 2  0  0  1  2 0.92313117D+01 0.00000000D+00  -5  7  0 0.00000000D+00 0.00000000D+00 0.00000000D+00 0.00000000D+00 0.00000000D+00
  <mgrwgt>
 -.2097998103D-03    3    2    0
 0.427195840586384D+03 0.000000000000000D+00 0.000000000000000D+00 0.427195840586384D+03
 0.427195840586384D+03 0.000000000000000D+00 0.000000000000000D+00 -.427195840586384D+03
 0.290499511074242D+03 -.216171649434374D+03 -.101605096185432D+03 -.144460971857364D+03
 0.183913037122363D+03 0.165967119208475D+03 0.763492897204067D+02 -.212062850212074D+02
 0.194480731258820D+03 0.180672200232315D+03 0.368709829552782D+02 0.618129558433443D+02
 0.185498401717344D+03 -.130467670006417D+03 -.116151764902530D+02 0.103854301035227D+03
 0.000000000000000D+00 0.000000000000000D+00 -.000000000000000D+00 -.000000000000000D+00
 0.430845883560100D+03 0.000000000000000D+00 0.000000000000000D+00 0.430845883560100D+03
 0.433097641182940D+03 0.000000000000000D+00 0.000000000000000D+00 -.433097641182940D+03
 0.291053206114116D+03 -.218070118436367D+03 -.991019873166548D+02 -.144460971857364D+03
 0.183497408009042D+03 0.164767714029074D+03 0.779306912279710D+02 -.212062850212074D+02
 0.193629853605458D+03 0.179405219797124D+03 0.385414816363555D+02 0.618129558433443D+02
 0.186261082041307D+03 -.131681272548805D+03 -.100150559279293D+02 0.103854301035227D+03
 0.950197497311649D+01 0.557845715897378D+01 -.735512961974226D+01 -.225175762283963D+01
-.758628863120D-05 0.000000000000D+00 0.000000000000D+00 0.512449766589D-07 0.000000000000D+00  7 2 -2 24 -11 11 -24 21 2 0.13089127D+00 0.33507598D-01 0.15299434D+06 0.15299434D+06 0.15299434D+06 0.11068751D+01  1  2 13  1  7  1        2 -.301368651740D-03 0.100000000000D+01
-.571795894768D-04 0.000000000000D+00 0.000000000000D+00 0.512449766589D-07 0.000000000000D+00  7 2 -2 24 -11 11 -24 21 2 0.12890923D+00 0.33507598D-01 0.14931151D+06 0.14931151D+06 0.14931151D+06 0.11077096D+01  1  2  8  1  7  1        2 -.232146988483D-02 0.100000000000D+01
0.617199997987D-04 0.000000000000D+00 0.000000000000D+00 0.512449766589D-07 0.392937610339D-08  7 2 -2 24 -11 11 -24 21 2 0.13001066D+00 0.33970512D-01 0.15299434D+06 0.15299434D+06 0.15299434D+06 0.11068751D+01  1  2  1  1  7  1        2 0.241303872622D-02 0.100000000000D+01
  </mgrwgt>
  </event>
  <event>
  7     66 0.26993063E-05 0.25401271E+03 0.75467711E-02 0.94265667E-01
        2 -1    0    0  501    0 0.00000000E+00 0.00000000E+00 0.37966469E+03 0.37966483E+03 0.32000000E+00 0.0000E+00 0.9000E+01
       -2 -1    0    0    0  501 0.00000000E+00 0.00000000E+00 -.20390920E+03 0.20390945E+03 0.32000000E+00 0.0000E+00 0.9000E+01
       23  2    1    2    0    0 0.16494302E+03 -.90185723E+02 0.21201813E+02 0.20964028E+03 0.90331973E+02 0.0000E+00 0.0000E+00
       24  1    1    2    0    0 -.40111127E+02 0.13656519E+03 0.13665952E+02 0.16405160E+03 0.80419002E+02 0.0000E+00 0.9000E+01
      -13  1    3    3    0    0 0.72425826E+02 -.28774802E+02 0.52864039E+02 0.94170629E+02 0.10565837E+00 0.0000E+00 0.9000E+01
       13  1    3    3    0    0 0.92517192E+02 -.61410921E+02 -.31662227E+02 0.11546965E+03 0.10565837E+00 0.0000E+00 0.9000E+01
      -24  1    1    2    0    0 -.12483189E+03 -.46379468E+02 0.14088772E+03 0.20988240E+03 0.80419002E+02 0.0000E+00 0.9000E+01
#aMCatNLO 1  0  0  2  2 0.38905182D+03 0.00000000D+00  -5  7  0 0.00000000D+00 0.00000000D+00 0.00000000D+00 0.00000000D+00 0.00000000D+00
  <mgrwgt>
 0.1725423715D-02    5    2    0
 0.278239532027259D+03 0.000000000000000D+00 0.000000000000000D+00 0.278239532027259D+03
 0.278239532027259D+03 0.000000000000000D+00 0.000000000000000D+00 -.278239532027259D+03
 0.167723163645481D+03 -.401111275691557D+02 0.136565190422710D+03 -.374818606637682D+02
 0.820594653921816D+02 0.724257989085557D+02 -.287747576383537D+02 0.256957746674838D+02
 0.131092019390870D+03 0.925172199358749D+02 -.614109654384173D+02 -.696733441657179D+02
 0.175604415625985D+03 -.124831891275275D+03 -.463794673459391D+02 0.814594301620024D+02
 0.000000000000000D+00 0.000000000000000D+00 0.000000000000000D+00 -.000000000000000D+00
 0.434330485889537D+03 0.000000000000000D+00 0.000000000000000D+00 0.434330485889537D+03
 0.738510690630013D+03 0.000000000000000D+00 0.000000000000000D+00 -.738510690630013D+03
 0.125590991094313D+03 -.732518613986875D+02 0.503503327942388D+02 -.374818606637682D+02
 0.100735303687722D+03 0.517723367772038D+02 -.825042648468754D+02 0.256957746674838D+02
 0.176820515899060D+03 0.577270565226142D+02 -.151916776232285D+03 -.696733441657179D+02
 0.275845285180167D+03 -.175839911618211D+03 -.179075660326966D+03 0.814594301620024D+02
 0.493849080658287D+03 0.139592379717080D+03 0.363146368611887D+03 -.304180204740475D+03
0.177163319668D-04 0.000000000000D+00 0.000000000000D+00 0.835475955364D-09 0.000000000000D+00  7 2 -2 24 -13 13 -24 21 0 0.58409982D-01 0.31370676D-01 0.64522456D+05 0.64522456D+05 0.64522456D+05 0.11376802D+01  1  2  2  2  7  2       -2 0.165469950201D-02 0.100000000000D+01
-.974309477841D-06 0.000000000000D+00 -.680353795697D-07 0.835475955364D-09 0.000000000000D+00  7 2 -2 24 -13 13 -24 21 2 0.58409982D-01 0.31370676D-01 0.64522456D+05 0.64522456D+05 0.64522456D+05 0.11376802D+01  1  2  3  2  7  2       -2 -.117783014404D-03 0.100000000000D+01
0.114350128309D-05 0.000000000000D+00 0.000000000000D+00 0.835475955364D-09 0.000000000000D+00  7 2 -2 24 -13 13 -24 21 2 0.58409982D-01 0.31370676D-01 0.64522456D+05 0.64522456D+05 0.64522456D+05 0.11376802D+01  1  2 15  2  7  2       -2 0.138236393220D-03 0.100000000000D+01
0.223036725349D-05 0.000000000000D+00 -.605474975055D-05 0.835475955364D-09 0.000000000000D+00  7 2 -2 24 -13 13 -24 21 2 0.58409982D-01 0.11911184D+00 0.64522456D+05 0.64522456D+05 0.64522456D+05 0.11376802D+01  1  2  5  2  7  2       -2 0.167598663816D-04 0.100000000000D+01
0.473770096477D-06 0.000000000000D+00 -.957175528157D-06 0.835475955364D-09 0.000000000000D+00  7 2 21 24 -13 13 -24 2 2 0.58409982D-01 0.11911184D+00 0.64522456D+05 0.64522456D+05 0.64522456D+05 0.11376802D+01  1  2  5  4  7  2       -2 0.335109673420D-04 0.100000000000D+01
  </mgrwgt>
  </event>
  <event>
  8     66 0.26993063E-05 0.20377996E+03 0.75467711E-02 0.99385398E-01
        2 -1    0    0  501    0 0.00000000E+00 0.00000000E+00 0.27410450E+04 0.27410450E+04 0.32000000E+00 0.0000E+00 0.9000E+01
       -2 -1    0    0    0  501 0.00000000E+00 0.00000000E+00 -.19136718E+02 0.19139393E+02 0.32000000E+00 0.0000E+00 0.9000E+01
       25  2    1    2    0    0 -.87434227E+02 0.23615795E+01 0.22861636E+04 0.23062288E+04 0.29068308E+03 0.0000E+00 0.0000E+00
       23  2    1    2    0    0 0.87434227E+02 -.23615795E+01 0.43574460E+03 0.45395559E+03 0.92477047E+02 0.0000E+00 0.0000E+00
       24  1    3    3    0    0 0.67513580E+02 -.56364864E+02 0.85786677E+03 0.86610489E+03 0.80419002E+02 0.0000E+00 0.9000E+01
      -11  1    4    4    0    0 0.51271035E+02 -.29348564E+02 0.10784517E+03 0.12296601E+03 0.51099893E-03 0.0000E+00 0.9000E+01
       11  1    4    4    0    0 0.36163193E+02 0.26986985E+02 0.32789943E+03 0.33098959E+03 0.51099893E-03 0.0000E+00 0.9000E+01
      -24  1    3    3    0    0 -.15494781E+03 0.58726444E+02 0.14282969E+04 0.14401239E+04 0.80419002E+02 0.0000E+00 0.9000E+01
#aMCatNLO 1  0  0  2  2 0.20821538D+03 0.00000000D+00  -5  7  0 0.00000000D+00 0.00000000D+00 0.00000000D+00 0.00000000D+00 0.00000000D+00
  <mgrwgt>
 0.2258737645D-02    5    2    0
 0.229037816565200D+03 0.000000000000000D+00 0.000000000000000D+00 0.229037816565200D+03
 0.229037816565200D+03 0.000000000000000D+00 0.000000000000000D+00 -.229037816565200D+03
 0.121321817723796D+03 0.675135800678025D+02 -.563648642455355D+02 0.227307300024941D+02
 0.100123600534884D+03 0.512710348460008D+02 -.293485639837638D+02 -.808373562282942D+02
 0.460189024894651D+02 0.361631927922359D+02 0.269869845224822D+02 0.903689879271518D+01
 0.190611312382255D+03 -.154947807706039D+03 0.587264437068170D+02 0.490697274330850D+02
 0.000000000000000D+00 -.000000000000000D+00 -.000000000000000D+00 -.000000000000000D+00
 0.311236069052926D+03 0.000000000000000D+00 0.000000000000000D+00 0.311236069052926D+03
 0.433295673428965D+03 0.000000000000000D+00 0.000000000000000D+00 -.433295673428965D+03
 0.143777706476157D+03 0.114609513651702D+03 -.235114061520710D+02 0.227307300024941D+02
 0.121462991525097D+03 0.906367313867012D+02 -.188761007112953D+01 -.808373562282942D+02
 0.710496498372640D+02 0.569608640886366D+02 0.414951462762083D+02 0.903689879271518D+01
 0.166886488996431D+03 -.914369705556060D+02 0.103030706687091D+03 0.490697274330850D+02
 0.241354905646941D+03 -.170770138571433D+03 -.119126836740099D+03 -.122059604376039D+03
0.156991372369D-04 0.000000000000D+00 0.000000000000D+00 0.129048523967D-08 0.000000000000D+00  7 2 -2 24 -11 11 -24 21 0 0.42169943D+00 0.29443176D-02 0.41526274D+05 0.41526274D+05 0.41526274D+05 0.11544574D+01  1  2  2  2  7  2       -2 0.207658330875D-02 0.100000000000D+01
-.857696080317D-06 0.000000000000D+00 -.602888206674D-07 0.129048523967D-08 0.000000000000D+00  7 2 -2 24 -11 11 -24 21 2 0.42169943D+00 0.29443176D-02 0.41526274D+05 0.41526274D+05 0.41526274D+05 0.11544574D+01  1  2  3  2  7  2       -2 -.151203828033D-03 0.100000000000D+01
0.100885010572D-05 0.000000000000D+00 0.000000000000D+00 0.129048523967D-08 0.000000000000D+00  7 2 -2 24 -11 11 -24 21 2 0.42169943D+00 0.29443176D-02 0.41526274D+05 0.41526274D+05 0.41526274D+05 0.11544574D+01  1  2 15  2  7  2       -2 0.177850874449D-03 0.100000000000D+01
0.317325283536D-06 0.000000000000D+00 -.503665656445D-05 0.129048523967D-08 0.000000000000D+00  7 2 -2 24 -11 11 -24 21 2 0.42169943D+00 0.89867934D-02 0.41526274D+05 0.41526274D+05 0.41526274D+05 0.11544574D+01  1  2  5  2  7  2       -2 0.107132542816D-04 0.100000000000D+01
0.283761057164D-06 0.000000000000D+00 -.641570904497D-06 0.129048523967D-08 0.000000000000D+00  7 2 21 24 -11 11 -24 2 2 0.42169943D+00 0.89867934D-02 0.41526274D+05 0.41526274D+05 0.41526274D+05 0.11544574D+01  1  2  5  4  7  2       -2 0.144794035886D-03 0.100000000000D+01
  </mgrwgt>
  </event>
  <event>
  8     66 0.26993063E-05 0.21368006E+03 0.75467711E-02 0.98111343E-01
        2 -1    0    0  501    0 0.00000000E+00 0.00000000E+00 0.70959356E+03 0.70959363E+03 0.32000000E+00 0.0000E+00 0.9000E+01
       -2 -1    0    0    0  501 0.00000000E+00 0.00000000E+00 -.94820434E+02 0.94820974E+02 0.32000000E+00 0.0000E+00 0.9000E+01
       25  2    1    2    0    0 0.87077738E+02 0.37495220E+02 0.20631998E+03 0.37526767E+03 0.29877996E+03 0.0000E+00 0.0000E+00
       23  2    1    2    0    0 -.87077738E+02 -.37495220E+02 0.40845314E+03 0.42914693E+03 0.91349310E+02 0.0000E+00 0.0000E+00
       24  1    3    3    0    0 0.13249100E+03 -.55869061E+02 0.52280680E+02 0.17284589E+03 0.80419002E+02 0.0000E+00 0.9000E+01
      -11  1    4    4    0    0 -.27338984E+02 0.30376435E+02 0.14248606E+03 0.14823099E+03 0.51099893E-03 0.0000E+00 0.9000E+01
       11  1    4    4    0    0 -.59738753E+02 -.67871655E+02 0.26596708E+03 0.28091594E+03 0.51099893E-03 0.0000E+00 0.9000E+01
      -24  1    3    3    0    0 -.45413265E+02 0.93364281E+02 0.15403930E+03 0.20242178E+03 0.80419002E+02 0.0000E+00 0.9000E+01
#aMCatNLO 1  0  0  1  2 0.25407159D+03 0.00000000D+00  -5  7  0 0.00000000D+00 0.00000000D+00 0.00000000D+00 0.00000000D+00 0.00000000D+00
  <mgrwgt>
 0.8703958512D-03    3    2    0
 0.259392010607809D+03 0.000000000000000D+00 0.000000000000000D+00 0.259392010607809D+03
 0.259392010607809D+03 0.000000000000000D+00 0.000000000000000D+00 -.259392010607809D+03
 0.206056856235276D+03 0.132491002747877D+03 -.558690606445224D+02 -.123761845092725D+03
 0.609937244026605D+02 -.273389844002473D+02 0.303764354384601D+02 0.452778811178681D+02
 0.120403622569557D+03 -.597387533874037D+02 -.678716554111484D+02 0.795094463780357D+02
 0.131329818008123D+03 -.454132649602258D+02 0.933642806172107D+02 -.102548240317925D+01
 0.000000000000000D+00 -.000000000000000D+00 -.000000000000000D+00 -.000000000000000D+00
 0.361168337227140D+03 0.000000000000000D+00 0.000000000000000D+00 0.361168337227140D+03
 0.511918601372384D+03 0.000000000000000D+00 0.000000000000000D+00 -.511918601372384D+03
 0.293785534382498D+03 0.248294528350016D+03 -.536242216608017D+02 -.123761845092725D+03
 0.548173465556270D+02 -.507866086825310D+00 0.308965538031957D+02 0.452778811178681D+02
 0.104172214116096D+03 -.770900532800781D+01 -.668630642983167D+02 0.795094463780357D+02
 0.124883312308892D+03 0.139462138538859D+02 0.945149577783973D+02 -.102548240317925D+01
 0.295428531236411D+03 -.254023870789069D+03 -.492422562247461D+01 -.150750264145244D+03
0.520174075132D-05 0.000000000000D+00 0.000000000000D+00 0.139739122410D-06 0.000000000000D+00  7 2 -2 24 -11 11 -24 21 0 0.10916829D+00 0.14587806D-01 0.45659169D+05 0.45659169D+05 0.45659169D+05 0.11507809D+01  1  2  2  1  7  1        2 0.859314633215D-03 0.100000000000D+01
-.275780643836D-06 0.000000000000D+00 -.199760541349D-07 0.139739122410D-06 0.000000000000D+00  7 2 -2 24 -11 11 -24 21 2 0.10916829D+00 0.14587806D-01 0.45659169D+05 0.45659169D+05 0.45659169D+05 0.11507809D+01  1  2  3  1  7  1        2 -.603326773721D-04 0.100000000000D+01
0.326432886602D-06 0.000000000000D+00 0.000000000000D+00 0.139739122410D-06 0.000000000000D+00  7 2 -2 24 -11 11 -24 21 2 0.10916829D+00 0.14587806D-01 0.45659169D+05 0.45659169D+05 0.45659169D+05 0.11507809D+01  1  2 15  1  7  1        2 0.714138953230D-04 0.100000000000D+01
  </mgrwgt>
  </event>
  <event>
  8     66 0.26993063E-05 0.18750670E+03 0.75467711E-02 0.10722425E+00
        2 -1    0    0  501    0 0.00000000E+00 0.00000000E+00 0.11239583E+04 0.11239584E+04 0.32000000E+00 0.0000E+00 0.9000E+01
       -2 -1    0    0    0  501 0.00000000E+00 0.00000000E+00 -.56197541E+02 0.56198452E+02 0.32000000E+00 0.0000E+00 0.9000E+01
       25  2    1    2    0    0 0.19170040E+02 -.51820153E+02 0.39529136E+03 0.49932111E+03 0.30002248E+03 0.0000E+00 0.0000E+00
       23  2    1    2    0    0 -.19170040E+02 0.51820153E+02 0.67246940E+03 0.68083570E+03 0.90935859E+02 0.0000E+00 0.0000E+00
       24  1    3    3    0    0 0.10016685E+03 0.53655467E+02 0.25218875E+03 0.28806022E+03 0.80419002E+02 0.0000E+00 0.9000E+01
      -13  1    4    4    0    0 0.14246298E+02 0.43754326E+02 0.58570042E+03 0.58750523E+03 0.10565837E+00 0.0000E+00 0.9000E+01
       13  1    4    4    0    0 -.33416338E+02 0.80658273E+01 0.86768982E+02 0.93330470E+02 0.10565837E+00 0.0000E+00 0.9000E+01
      -24  1    3    3    0    0 -.80996812E+02 -.10547562E+03 0.14310261E+03 0.21126089E+03 0.80419002E+02 0.0000E+00 0.9000E+01
#aMCatNLO 1  0  0  2  2 0.99445150D+00 0.00000000D+00  -5  7  0 0.00000000D+00 0.00000000D+00 0.00000000D+00 0.00000000D+00 0.00000000D+00
  <mgrwgt>
 0.6062030207D-03    6    2    0
 0.251325004595244D+03 0.000000000000000D+00 0.000000000000000D+00 0.251325004595244D+03
 0.251325004595244D+03 0.000000000000000D+00 0.000000000000000D+00 -.251325004595244D+03
 0.140612696029693D+03 0.100166851489614D+03 0.536554654167853D+02 -.198092711611015D+02
 0.135204277161900D+03 0.142463616231662D+02 0.437543747661818D+02 0.127132971459784D+03
 0.348075323145580D+02 -.334164022468492D+02 0.806577937994471D+01 0.546365900288782D+01
 0.192025503684338D+03 -.809968108659311D+02 -.105475619562912D+03 -.112787359301571D+03
 0.000000000000000D+00 -.000000000000000D+00 0.000000000000000D+00 0.000000000000000D+00
 0.253383196608316D+03 0.000000000000000D+00 0.000000000000000D+00 0.253383196608316D+03
 0.251445646830103D+03 0.000000000000000D+00 0.000000000000000D+00 -.251445646830103D+03
 0.140800245617877D+03 0.100443985977167D+03 0.536292053714066D+02 -.198092711611015D+02
 0.135224435441967D+03 0.145126788801069D+02 0.437291397140087D+02 0.127132971459784D+03
 0.347402783393433D+02 -.333479118044652D+02 0.805928952680197D+01 0.546365900288782D+01
 0.191886033510388D+03 -.806187361174730D+02 -.105511444263543D+03 -.112787359301571D+03
 0.217785052884411D+01 -.990016935335954D+00 0.938096513252238D-01 0.193754977821288D+01
0.248079714941D-05 0.000000000000D+00 0.000000000000D+00 0.105345339977D-05 0.000000000000D+00  7 2 -2 24 -13 13 -24 21 0 0.17291674D+00 0.86458492D-02 0.35158761D+05 0.35158761D+05 0.35158761D+05 0.11609956D+01  1  2  2  2  7  2       -2 0.502091643432D-03 0.100000000000D+01
-.123442854418D-06 0.000000000000D+00 -.952691426263D-08 0.105345339977D-05 0.000000000000D+00  7 2 -2 24 -13 13 -24 21 2 0.17291674D+00 0.86458492D-02 0.35158761D+05 0.35158761D+05 0.35158761D+05 0.11609956D+01  1  2  3  2  7  2       -2 -.336758720611D-04 0.100000000000D+01
0.151735525149D-06 0.000000000000D+00 0.000000000000D+00 0.105345339977D-05 0.000000000000D+00  7 2 -2 24 -13 13 -24 21 2 0.17291674D+00 0.86458492D-02 0.35158761D+05 0.35158761D+05 0.35158761D+05 0.11609956D+01  1  2 15  2  7  2       -2 0.413942642215D-04 0.100000000000D+01
-.422519979347D-05 0.000000000000D+00 0.000000000000D+00 0.105345339977D-05 0.000000000000D+00  7 2 -2 24 -13 13 -24 21 2 0.17291674D+00 0.86458492D-02 0.35158761D+05 0.35158761D+05 0.35158761D+05 0.11609956D+01  1  2  4  2  7  2       -2 -.115265714122D-02 0.100000000000D+01
0.422532217180D-05 0.000000000000D+00 0.000000000000D+00 0.105345339977D-05 0.765530167717D-05  7 2 -2 24 -13 13 -24 21 2 0.17433281D+00 0.86499994D-02 0.35347011D+05 0.35347011D+05 0.35347011D+05 0.11607841D+01  1  2 11  2  7  2       -2 0.113769813926D-02 0.100000000000D+01
0.270984220630D-07 0.000000000000D+00 0.000000000000D+00 0.105345339977D-05 0.690886519101D-09  7 2 21 24 -13 13 -24 2 2 0.17433281D+00 0.86499994D-02 0.35347011D+05 0.35347011D+05 0.35347011D+05 0.11607841D+01  1  2 11  4  7  2       -2 0.111351987051D-03 0.100000000000D+01
  </mgrwgt>
  </event>
  <event>
  7     66 0.26993063E-05 0.84448226E+02 0.75467711E-02 0.10859919E+00
        2 -1    0    0  501    0 0.00000000E+00 0.00000000E+00 0.38602439E+03 0.38602452E+03 0.32000000E+00 0.0000E+00 0.9000E+01
       -2 -1    0    0    0  501 0.00000000E+00 0.00000000E+00 -.96123149E+02 0.96123682E+02 0.32000000E+00 0.0000E+00 0.9000E+01
       23  2    1    2    0    0 0.12896064E+02 -.35573308E+02 0.54724319E+02 0.11708978E+03 0.96350902E+02 0.0000E+00 0.0000E+00
       24  1    1    2    0    0 -.55565630E+02 0.11323458E+03 0.81701753E+02 0.17044648E+03 0.80419002E+02 0.0000E+00 0.9000E+01
      -11  1    3    3    0    0 0.98831774E+01 -.31277670E+02 0.82521443E+02 0.88801793E+02 0.51099893E-03 0.0000E+00 0.9000E+01
       11  1    3    3    0    0 0.30128869E+01 -.42956386E+01 -.27797124E+02 0.28287985E+02 0.51099893E-03 0.0000E+00 0.9000E+01
      -24  1    1    2    0    0 0.42669566E+02 -.77661276E+02 0.15347516E+03 0.19461194E+03 0.80419002E+02 0.0000E+00 0.9000E+01
#aMCatNLO 1  0  0  1  2 0.35329082D+02 0.00000000D+00  -5  7  0 0.00000000D+00 0.00000000D+00 0.00000000D+00 0.00000000D+00 0.00000000D+00
  <mgrwgt>
 0.6095338757D-02    9    2    0
 0.192629281175477D+03 0.000000000000000D+00 0.000000000000000D+00 0.192629281175477D+03
 0.192629281175477D+03 0.000000000000000D+00 0.000000000000000D+00 -.192629281175477D+03
 0.151833210447986D+03 -.555656536603497D+02 0.113234650122152D+03 -.260092288540786D+02
 0.490386171445072D+02 0.988319425029706D+01 -.312777124435184D+02 0.364528894212383D+02
 0.563191181111630D+02 0.301291390799371D+01 -.429571681034386D+01 -.560741672402496D+02
 0.128067616647297D+03 0.426695455020589D+02 -.776612208682900D+02 0.456305066730898D+02
 0.000000000000000D+00 0.000000000000000D+00 -.000000000000000D+00 0.000000000000000D+00
 0.323328955292173D+03 0.000000000000000D+00 0.000000000000000D+00 0.323328955292173D+03
 0.195839807954915D+03 0.000000000000000D+00 0.000000000000000D+00 -.195839807954915D+03
 0.158569864714726D+03 -.696982591099622D+02 0.114642307778292D+03 -.260092288540786D+02
 0.480582471555179D+02 0.546238858389860D+01 -.308373845107251D+02 0.364528894212383D+02
 0.562414507357650D+02 -.211195190676570D+01 -.378526198822670D+01 -.560741672402496D+02
 0.124005486843248D+03 0.311926949127927D+02 -.765180858209026D+02 0.456305066730898D+02
 0.132293713797831D+03 0.351551275200366D+02 -.350157545843743D+01 0.127489147337259D+03
0.197556159596D-04 0.000000000000D+00 0.000000000000D+00 0.110047559032D-10 0.000000000000D+00  7 2 -2 24 -11 11 -24 21 0 0.59388418D-01 0.14788228D-01 0.23608424D+05 0.23608424D+05 0.23608424D+05 0.11771151D+01  1  2  2  1  7  1        2 0.622044758995D-02 0.100000000000D+01
-.102932314965D-05 0.000000000000D+00 -.758667670581D-07 0.110047559032D-10 0.000000000000D+00  7 2 -2 24 -11 11 -24 21 2 0.59388418D-01 0.14788228D-01 0.23608424D+05 0.23608424D+05 0.23608424D+05 0.11771151D+01  1  2  3  1  7  1        2 -.449076862305D-03 0.100000000000D+01
0.127971337746D-05 0.000000000000D+00 0.000000000000D+00 0.110047559032D-10 0.000000000000D+00  7 2 -2 24 -11 11 -24 21 2 0.59388418D-01 0.14788228D-01 0.23608424D+05 0.23608424D+05 0.23608424D+05 0.11771151D+01  1  2 15  1  7  1        2 0.558318025196D-03 0.100000000000D+01
0.122605649007D-03 0.000000000000D+00 0.000000000000D+00 0.110047559032D-10 0.000000000000D+00  7 2 -2 24 -11 11 -24 21 2 0.99884902D-01 0.14788228D-01 0.29362235D+05 0.29362235D+05 0.29362235D+05 0.11682028D+01  1  2 12  1  7  1        2 0.299088688171D-01 0.100000000000D+01
-.112593650286D-03 0.000000000000D+00 0.000000000000D+00 0.110047559032D-10 0.000000000000D+00  7 2 -2 24 -11 11 -24 21 2 0.59388418D-01 0.14788228D-01 0.23608424D+05 0.23608424D+05 0.23608424D+05 0.11771151D+01  1  2  4  1  7  1        2 -.491227688827D-01 0.100000000000D+01
-.125295368711D-03 0.000000000000D+00 -.742555835945D-05 0.110047559032D-10 0.000000000000D+00  7 2 -2 24 -11 11 -24 21 2 0.10035688D+00 0.14788228D-01 0.23608424D+05 0.23608424D+05 0.23608424D+05 0.11771151D+01  1  2  5  1  7  1        2 -.308025611127D-01 0.100000000000D+01
0.114048842840D-03 0.000000000000D+00 0.650904709153D-05 0.110047559032D-10 0.000000000000D+00  7 2 -2 24 -11 11 -24 21 2 0.59388418D-01 0.14788228D-01 0.23608424D+05 0.23608424D+05 0.23608424D+05 0.11771151D+01  1  2  6  1  7  1        2 0.497576456042D-01 0.100000000000D+01
0.713233461094D-05 0.000000000000D+00 0.000000000000D+00 0.110047559032D-10 0.000000000000D+00  7 21 -2 24 -11 11 -24 -2 2 0.99884902D-01 0.14788228D-01 0.29362235D+05 0.29362235D+05 0.29362235D+05 0.11682028D+01  1  2 12  3  7  1        2 0.255132605915D-02 0.100000000000D+01
-.698923445061D-05 0.000000000000D+00 -.435137293293D-06 0.110047559032D-10 0.000000000000D+00  7 21 -2 24 -11 11 -24 -2 2 0.10035688D+00 0.14788228D-01 0.23608424D+05 0.23608424D+05 0.23608424D+05 0.11771151D+01  1  2  5  3  7  1        2 -.252686048078D-02 0.100000000000D+01
  </mgrwgt>
  </event>
  <event>
  8     66 0.26993063E-05 0.20287759E+03 0.75467711E-02 0.97216816E-01
        2 -1    0    0  501    0 0.00000000E+00 0.00000000E+00 0.13820823E+04 0.13820823E+04 0.32000000E+00 0.0000E+00 0.9000E+01
       -2 -1    0    0    0  501 0.00000000E+00 0.00000000E+00 -.40512729E+03 0.40512742E+03 0.32000000E+00 0.0000E+00 0.9000E+01
       25  2    1    2    0    0 0.17837552E+02 0.53733096E+02 -.34527838E+03 0.46066166E+03 0.29964409E+03 0.0000E+00 0.0000E+00
       23  2    1    2    0    0 -.17837552E+02 -.53733096E+02 0.13222334E+04 0.13265481E+04 0.90682329E+02 0.0000E+00 0.0000E+00
       24  1    3    3    0    0 -.71140994E+02 0.12065921E+03 -.14040241E+03 0.21400873E+03 0.80419002E+02 0.0000E+00 0.9000E+01
      -13  1    4    4    0    0 0.36192691E+02 -.33144172E+02 0.59854611E+03 0.60055467E+03 0.10565837E+00 0.0000E+00 0.9000E+01
       13  1    4    4    0    0 -.54030243E+02 -.20588924E+02 0.72368727E+03 0.72599342E+03 0.10565837E+00 0.0000E+00 0.9000E+01
      -24  1    3    3    0    0 0.88978546E+02 -.66926115E+02 -.20487597E+03 0.24665293E+03 0.80419002E+02 0.0000E+00 0.9000E+01
#aMCatNLO 1  0  0  2  2 0.31612887D+03 0.00000000D+00  -5  7  0 0.00000000D+00 0.00000000D+00 0.00000000D+00 0.00000000D+00 0.00000000D+00
  <mgrwgt>
 0.7810983029D-03    7    2    0
 0.748277624485469D+03 0.000000000000000D+00 0.000000000000000D+00 0.748277624485469D+03
 0.748277624485469D+03 0.000000000000000D+00 0.000000000000000D+00 -.748277624485469D+03
 0.347227627548132D+03 -.711409940541789D+02 0.120659211323897D+03 -.307376191443013D+03
 0.326459312490682D+03 0.361928129840047D+02 -.331441889099156D+02 0.322749478298103D+03
 0.394567965384230D+03 -.540303652660445D+02 -.205889070420106D+02 0.390308462428737D+03
 0.428300343547895D+03 0.889785463362187D+02 -.669261153719712D+02 -.405681749283826D+03
 0.000000000000000D+00 -.000000000000000D+00 -.000000000000000D+00 -.000000000000000D+00
 0.886344923568861D+03 0.000000000000000D+00 0.000000000000000D+00 0.886344923568861D+03
 0.970329771886457D+03 0.000000000000000D+00 0.000000000000000D+00 -.970329771886457D+03
 0.377024375322201D+03 -.566375393073858D+02 0.194915955498562D+03 -.307376191443013D+03
 0.328257439702630D+03 0.493037947276108D+02 0.339831841340091D+02 0.322749478298103D+03
 0.396818639181422D+03 -.381825115341286D+02 0.605510724203723D+02 0.390308462428737D+03
 0.427479578613322D+03 0.106115903671910D+03 0.208160385991481D+02 -.405681749283826D+03
 0.327094662635744D+03 -.605996475580069D+02 -.310266250652092D+03 -.839848483175960D+02
0.205231253005D-03 0.000000000000D+00 0.000000000000D+00 0.942231065856D-05 0.000000000000D+00  7 2 -2 24 -13 13 -24 21 0 0.21262806D+00 0.62327288D-01 0.41159315D+05 0.41159315D+05 0.41159315D+05 0.11548031D+01  1  2  2  2  7  2       -2 0.102999880228D-02 0.100000000000D+01
0.122132403389D-04 0.000000000000D+00 -.788142050170D-06 0.942231065856D-05 0.000000000000D+00  7 2 -2 24 -13 13 -24 21 2 0.21262806D+00 0.62327288D-01 0.41159315D+05 0.41159315D+05 0.41159315D+05 0.11548031D+01  1  2  3  2  7  2       -2 0.817410180348D-04 0.100000000000D+01
0.127322380902D-04 0.000000000000D+00 0.000000000000D+00 0.942231065856D-05 0.000000000000D+00  7 2 -2 24 -13 13 -24 21 2 0.21262806D+00 0.62327288D-01 0.41159315D+05 0.41159315D+05 0.41159315D+05 0.11548031D+01  1  2 15  2  7  2       -2 0.852145765147D-04 0.100000000000D+01
-.100641286885D-03 0.000000000000D+00 0.000000000000D+00 0.942231065856D-05 0.000000000000D+00  7 2 -2 24 -13 13 -24 21 2 0.21262806D+00 0.62327288D-01 0.41159315D+05 0.41159315D+05 0.41159315D+05 0.11548031D+01  1  2  4  2  7  2       -2 -.673574008049D-03 0.100000000000D+01
0.276395825096D-04 0.000000000000D+00 -.793006517569D-04 0.942231065856D-05 0.000000000000D+00  7 2 -2 24 -13 13 -24 21 2 0.21262806D+00 0.94057901D-01 0.41159315D+05 0.41159315D+05 0.41159315D+05 0.11548031D+01  1  2  5  2  7  2       -2 0.754059684325D-04 0.100000000000D+01
0.103739044613D-04 0.000000000000D+00 0.730294410777D-04 0.942231065856D-05 0.000000000000D+00  7 2 -2 24 -13 13 -24 21 2 0.21262806D+00 0.62327288D-01 0.41159315D+05 0.41159315D+05 0.41159315D+05 0.11548031D+01  1  2  6  2  7  2       -2 0.694306742627D-04 0.100000000000D+01
0.415530273346D-05 0.000000000000D+00 -.385436626715D-05 0.942231065856D-05 0.000000000000D+00  7 2 21 24 -13 13 -24 2 2 0.21262806D+00 0.94057901D-01 0.41159315D+05 0.41159315D+05 0.41159315D+05 0.11548031D+01  1  2  5  4  7  2       -2 0.112881271387D-03 0.100000000000D+01
  </mgrwgt>
  </event>
  <event>
  8     66 0.26993063E-05 0.15521797E+03 0.75467711E-02 0.97623869E-01
        2 -1    0    0  501    0 0.00000000E+00 0.00000000E+00 0.18764803E+04 0.18764804E+04 0.32000000E+00 0.0000E+00 0.9000E+01
       -2 -1    0    0    0  501 0.00000000E+00 0.00000000E+00 -.10311720E+03 0.10311770E+03 0.32000000E+00 0.0000E+00 0.9000E+01
       25  2    1    2    0    0 -.16283974E+03 0.18164861E+03 0.31470331E+03 0.49775691E+03 0.29868172E+03 0.0000E+00 0.0000E+00
       23  2    1    2    0    0 0.16283974E+03 -.18164861E+03 0.14586598E+04 0.14818412E+04 0.93014623E+02 0.0000E+00 0.0000E+00
       24  1    3    3    0    0 0.14365784E+01 0.31739456E+02 0.23139693E+03 0.24702472E+03 0.80419002E+02 0.0000E+00 0.9000E+01
      -13  1    4    4    0    0 0.14343714E+02 -.66409108E+02 0.27030753E+03 0.27871506E+03 0.10565837E+00 0.0000E+00 0.9000E+01
       13  1    4    4    0    0 0.14849602E+03 -.11523950E+03 0.11883523E+04 0.12031261E+04 0.10565837E+00 0.0000E+00 0.9000E+01
      -24  1    3    3    0    0 -.16427632E+03 0.14990916E+03 0.83306381E+02 0.25073219E+03 0.80419002E+02 0.0000E+00 0.9000E+01
#aMCatNLO 1  0  0  2  1 0.17254911D+03 0.00000000D+00  -5  7  0 0.00000000D+00 0.00000000D+00 0.00000000D+00 0.00000000D+00 0.00000000D+00
  <mgrwgt>
 0.2168701716D-03    7    2    0
 0.439883986862103D+03 0.000000000000000D+00 0.000000000000000D+00 0.439883986862103D+03
 0.439883986862103D+03 0.000000000000000D+00 0.000000000000000D+00 -.439883986862103D+03
 0.894086545598282D+02 0.143657837741708D+01 0.317394560366247D+02 0.227427950985112D+02
 0.822831957981550D+02 0.143435415107785D+02 -.664090446520155D+02 0.464179482107157D+02
 0.311816531892857D+03 0.148496197222781D+03 -.115239566616342D+03 0.248793631868140D+03
 0.396259591473366D+03 -.164276317110977D+03 0.149909155231733D+03 -.317954375177367D+03
 0.000000000000000D+00 -.000000000000000D+00 -.000000000000000D+00 -.000000000000000D+00
 0.462238290268025D+03 0.000000000000000D+00 0.000000000000000D+00 0.462238290268025D+03
 0.980932879190436D+03 0.000000000000000D+00 0.000000000000000D+00 -.980932879190436D+03
 0.938188548921556D+02 0.178015958551752D+02 0.387379663253114D+02 0.227427950985112D+02
 0.813160502025620D+02 0.289554550174204D+02 -.601602504082807D+02 0.464179482107157D+02
 0.335648741310137D+03 0.206324743514217D+03 -.905091514639932D+02 0.248793631868140D+03
 0.385745708578214D+03 -.944312897931914D+02 0.179778426252157D+03 -.317954375177367D+03
 0.546641814475393D+03 -.158650504593621D+03 -.678469907051945D+02 -.518694588922411D+03
0.273427980034D-04 0.000000000000D+00 0.000000000000D+00 0.249197859493D-06 0.000000000000D+00  7 2 -2 24 -13 13 -24 21 0 0.28868932D+00 0.15864225D-01 0.83770461D+05 0.83770461D+05 0.83770461D+05 0.11280885D+01  1  2  2  2  7  2       -2 0.838777322790D-03 0.100000000000D+01
-.119542369910D-05 0.000000000000D+00 -.105003543857D-06 0.249197859493D-06 0.000000000000D+00  7 2 -2 24 -13 13 -24 21 2 0.28868932D+00 0.15864225D-01 0.83770461D+05 0.83770461D+05 0.83770461D+05 0.11280885D+01  1  2  3  2  7  2       -2 -.466672198524D-04 0.100000000000D+01
0.166494451654D-05 0.000000000000D+00 0.000000000000D+00 0.249197859493D-06 0.000000000000D+00  7 2 -2 24 -13 13 -24 21 2 0.28868932D+00 0.15864225D-01 0.83770461D+05 0.83770461D+05 0.83770461D+05 0.11280885D+01  1  2 15  2  7  2       -2 0.649964793687D-04 0.100000000000D+01
0.309764785296D-04 0.000000000000D+00 0.000000000000D+00 0.249197859493D-06 0.000000000000D+00  7 2 -2 24 -13 13 -24 21 2 0.28868932D+00 0.35268608D-01 0.14978971D+06 0.14978971D+06 0.14978971D+06 0.11076000D+01  1  2 12  2  7  2       -2 0.293548368865D-03 0.100000000000D+01
-.664662595963D-04 0.000000000000D+00 -.833126262192D-05 0.249197859493D-06 0.000000000000D+00  7 2 -2 24 -13 13 -24 21 2 0.28868932D+00 0.36640245D-01 0.83770461D+05 0.83770461D+05 0.83770461D+05 0.11280885D+01  1  2  5  2  7  2       -2 -.625760000385D-03 0.100000000000D+01
0.268457075910D-05 0.000000000000D+00 0.000000000000D+00 0.249197859493D-06 0.000000000000D+00  7 2 21 24 -13 13 -24 2 2 0.28868932D+00 0.35268608D-01 0.14978971D+06 0.14978971D+06 0.14978971D+06 0.11076000D+01  1  2 12  4  7  2       -2 0.289319730756D-03 0.100000000000D+01
-.553095896400D-05 0.000000000000D+00 -.759329696534D-06 0.249197859493D-06 0.000000000000D+00  7 2 21 24 -13 13 -24 2 2 0.28868932D+00 0.36640245D-01 0.83770461D+05 0.83770461D+05 0.83770461D+05 0.11280885D+01  1  2  5  4  7  2       -2 -.597344509966D-03 0.100000000000D+01
  </mgrwgt>
  </event>
  <event>
  8     66 0.26993063E-05 0.75440597E+02 0.75467711E-02 0.10154425E+00
        2 -1    0    0  501    0 0.00000000E+00 0.00000000E+00 0.22008607E+04 0.22008607E+04 0.32000000E+00 0.0000E+00 0.9000E+01
       -2 -1    0    0    0  501 0.00000000E+00 0.00000000E+00 -.28555005E+02 0.28556798E+02 0.32000000E+00 0.0000E+00 0.9000E+01
       25  2    1    2    0    0 0.11109403E+02 0.13382133E+03 0.12278934E+04 0.12712977E+04 0.30073923E+03 0.0000E+00 0.0000E+00
       23  2    1    2    0    0 -.11109403E+02 -.13382133E+03 0.94441229E+03 0.95811982E+03 0.89707500E+02 0.0000E+00 0.0000E+00
       24  1    3    3    0    0 -.93474034E+01 0.10129698E+03 0.19266702E+03 0.23224179E+03 0.80419002E+02 0.0000E+00 0.9000E+01
      -11  1    4    4    0    0 -.24874188E+02 -.17588119E+02 0.40553988E+03 0.40668251E+03 0.51099893E-03 0.0000E+00 0.9000E+01
       11  1    4    4    0    0 0.13764785E+02 -.11623321E+03 0.53887241E+03 0.55143731E+03 0.51099893E-03 0.0000E+00 0.9000E+01
      -24  1    3    3    0    0 0.20456806E+02 0.32524343E+02 0.10352264E+04 0.10390559E+04 0.80419002E+02 0.0000E+00 0.9000E+01
#aMCatNLO 1  0  0  1  2 0.17065099D+03 0.00000000D+00  -5  7  0 0.00000000D+00 0.00000000D+00 0.00000000D+00 0.00000000D+00 0.00000000D+00
  <mgrwgt>
 0.1473338903D-02    8    2    0
 0.250694262971808D+03 0.000000000000000D+00 0.000000000000000D+00 0.250694262971808D+03
 0.250694262971808D+03 0.000000000000000D+00 0.000000000000000D+00 -.250694262971808D+03
 0.197914892316436D+03 -.934740336116814D+01 0.101296984577333D+03 -.149514666879872D+03
 0.512746389568136D+02 -.248741881950299D+02 -.175881193447138D+02 0.412434409295093D+02
 0.117251160532048D+03 0.137647854800655D+02 -.116233207935640D+03 0.694310447782854D+01
 0.134947834138319D+03 0.204568060761324D+02 0.325243427030208D+02 0.101328121472534D+03
 0.000000000000000D+00 0.000000000000000D+00 0.000000000000000D+00 0.000000000000000D+00
 0.416470965121603D+03 0.000000000000000D+00 0.000000000000000D+00 0.416470965121603D+03
 0.312823944717662D+03 0.000000000000000D+00 0.000000000000000D+00 -.312823944717662D+03
 0.194015609285927D+03 -.649324975048803D+02 0.678526038394902D+02 -.149514666879872D+03
 0.645036378812119D+02 -.412943095980016D+02 -.274677606482397D+02 0.412434409295093D+02
 0.140237806119249D+03 -.227532920713480D+02 -.138205366267978D+03 0.694310447782854D+01
 0.130876983784445D+03 -.172434940269786D+02 0.984086595438922D+01 0.101328121472534D+03
 0.199660872768431D+03 0.146223593201208D+03 0.879796571223387D+02 0.103647020403941D+03
0.626781989100D-05 0.000000000000D+00 0.000000000000D+00 0.943732504441D-07 0.000000000000D+00  7 2 -2 24 -11 11 -24 21 0 0.33859410D+00 0.43932174D-02 0.33545998D+05 0.33545998D+05 0.33545998D+05 0.11628608D+01  1  2  2  1  7  1        2 0.924903494348D-03 0.100000000000D+01
-.306496301727D-06 0.000000000000D+00 -.240700787363D-07 0.943732504441D-07 0.000000000000D+00  7 2 -2 24 -11 11 -24 21 2 0.33859410D+00 0.43932174D-02 0.33545998D+05 0.33545998D+05 0.33545998D+05 0.11628608D+01  1  2  3  1  7  1        2 -.611590328035D-04 0.100000000000D+01
0.400482078580D-06 0.000000000000D+00 0.000000000000D+00 0.943732504441D-07 0.000000000000D+00  7 2 -2 24 -11 11 -24 21 2 0.33859410D+00 0.43932174D-02 0.33545998D+05 0.33545998D+05 0.33545998D+05 0.11628608D+01  1  2 15  1  7  1        2 0.799131879993D-04 0.100000000000D+01
0.187879896403D-07 0.000000000000D+00 0.000000000000D+00 0.943732504441D-07 0.000000000000D+00  7 2 -2 24 -11 11 -24 21 2 0.58179286D+00 0.43932174D-02 0.80312163D+05 0.80312163D+05 0.80312163D+05 0.11296206D+01  1  2 12  1  7  1        2 0.354640744879D-06 0.100000000000D+01
-.219582670144D-05 0.000000000000D+00 -.160693416396D-05 0.943732504441D-07 0.000000000000D+00  7 2 -2 24 -11 11 -24 21 2 0.59189327D+00 0.43932174D-02 0.33545998D+05 0.33545998D+05 0.33545998D+05 0.11628608D+01  1  2  5  1  7  1        2 -.408696720169D-04 0.100000000000D+01
0.285764238257D-05 0.000000000000D+00 0.138520236319D-05 0.943732504441D-07 0.000000000000D+00  7 2 -2 24 -11 11 -24 21 2 0.33859410D+00 0.43932174D-02 0.33545998D+05 0.33545998D+05 0.33545998D+05 0.11628608D+01  1  2  6  1  7  1        2 0.570221053993D-03 0.100000000000D+01
0.112956592230D-08 0.000000000000D+00 0.000000000000D+00 0.943732504441D-07 0.000000000000D+00  7 21 -2 24 -11 11 -24 -2 2 0.58179286D+00 0.43932174D-02 0.80312163D+05 0.80312163D+05 0.80312163D+05 0.11296206D+01  1  2 12  3  7  1        2 0.551216428025D-09 0.100000000000D+01
-.540598228751D-07 0.000000000000D+00 -.991665536673D-07 0.943732504441D-07 0.000000000000D+00  7 21 -2 24 -11 11 -24 -2 2 0.59189327D+00 0.43932174D-02 0.33545998D+05 0.33545998D+05 0.33545998D+05 0.11628608D+01  1  2  5  3  7  1        2 -.253205073654D-07 0.100000000000D+01
  </mgrwgt>
  </event>
  <event>
  8     66 0.26993063E-05 0.48516944E+03 0.75467711E-02 0.84675144E-01
        2 -1    0    0  501    0 0.00000000E+00 0.00000000E+00 0.46889749E+03 0.46889760E+03 0.32000000E+00 0.0000E+00 0.9000E+01
       -2 -1    0    0    0  501 0.00000000E+00 0.00000000E+00 -.12475246E+04 0.12475246E+04 0.32000000E+00 0.0000E+00 0.9000E+01
       25  2    1    2    0    0 0.43000366E+03 0.15440850E+03 -.10439700E+04 0.11789060E+04 0.30199490E+03 0.0000E+00 0.0000E+00
       23  2    1    2    0    0 -.43000366E+03 -.15440850E+03 0.26534285E+03 0.53751625E+03 0.98852209E+02 0.0000E+00 0.0000E+00
       24  1    3    3    0    0 0.39086388E+03 0.13767065E+03 -.65356228E+03 0.77803512E+03 0.80419002E+02 0.0000E+00 0.9000E+01
      -13  1    4    4    0    0 -.14018999E+03 -.59040175E+02 0.37335619E+02 0.15662993E+03 0.10565837E+00 0.0000E+00 0.9000E+01
       13  1    4    4    0    0 -.28981367E+03 -.95368328E+02 0.22800723E+03 0.38088632E+03 0.10565837E+00 0.0000E+00 0.9000E+01
      -24  1    3    3    0    0 0.39139780E+02 0.16737848E+02 -.39040769E+03 0.40087087E+03 0.80419002E+02 0.0000E+00 0.9000E+01
#aMCatNLO 1  0  0  2  1 0.11527916D+04 0.00000000D+00  -5  7  0 0.00000000D+00 0.00000000D+00 0.00000000D+00 0.00000000D+00 0.00000000D+00
  <mgrwgt>
 0.9750797082D-03    3    2    0
 0.764827614959543D+03 0.000000000000000D+00 0.000000000000000D+00 0.764827614959543D+03
 0.764827614959543D+03 0.000000000000000D+00 0.000000000000000D+00 -.764827614959543D+03
 0.540354097860869D+03 0.390863877628678D+03 0.137670654361489D+03 -.337324110038723D+03
 0.194758271167524D+03 -.140189815620660D+03 -.590401330709517D+02 0.121621800970766D+03
 0.543452509995400D+03 -.289813842558528D+03 -.953683696415553D+02 0.449725962507917D+03
 0.251090350895292D+03 0.391397805505103D+02 0.167378483510182D+02 -.234023653439960D+03
 0.000000000000000D+00 -.000000000000000D+00 0.000000000000000D+00 0.000000000000000D+00
 0.186920924261808D+04 0.000000000000000D+00 0.000000000000000D+00 0.186920924261808D+04
 0.132218878243056D+04 0.000000000000000D+00 0.000000000000000D+00 -.132218878243056D+04
 0.574531602417174D+03 0.392968342341289D+03 -.235388344923444D+03 -.337324110038723D+03
 0.287770126784750D+03 -.139278992218700D+03 -.220502031112826D+03 0.121621800970766D+03
 0.751139691695237D+03 -.287370162811806D+03 -.528560105013478D+03 0.449725962507917D+03
 0.301962893588660D+03 0.401837270617279D+02 -.168322817407825D+03 -.234023653439960D+03
 0.127599371056281D+04 -.650291437251064D+01 0.115277329845757D+04 0.547020460187524D+03
0.811044030483D-03 0.000000000000D+00 0.000000000000D+00 0.393361014892D-07 0.000000000000D+00  7 2 -2 24 -13 13 -24 21 0 0.72138086D-01 0.19192687D+00 0.23538939D+06 0.23538939D+06 0.23538939D+06 0.10924321D+01  1  2  2  2  7  2       -2 0.953221131814D-03 0.100000000000D+01
-.337087593828D-04 0.000000000000D+00 -.311462262985D-05 0.393361014892D-07 0.000000000000D+00  7 2 -2 24 -13 13 -24 21 2 0.72138086D-01 0.19192687D+00 0.23538939D+06 0.23538939D+06 0.23538939D+06 0.10924321D+01  1  2  3  2  7  2       -2 -.472803714484D-04 0.100000000000D+01
0.492929324396D-04 0.000000000000D+00 0.000000000000D+00 0.393361014892D-07 0.000000000000D+00  7 2 -2 24 -13 13 -24 21 2 0.72138086D-01 0.19192687D+00 0.23538939D+06 0.23538939D+06 0.23538939D+06 0.10924321D+01  1  2 15  2  7  2       -2 0.691389478046D-04 0.100000000000D+01
  </mgrwgt>
  </event>
  <event>
  9     66 0.26993063E-05 0.18278542E+03 0.75467711E-02 0.10073076E+00
        2 -1    0    0  501    0 0.00000000E+00 0.00000000E+00 0.21119265E+04 0.21119265E+04 0.32000000E+00 0.0000E+00 0.9000E+01
       21 -1    0    0  502  501 0.00000000E+00 0.00000000E+00 -.72386091E+02 0.72389976E+02 0.75000000E+00 0.0000E+00 0.9000E+01
       25  2    1    2    0    0 0.19949660E+03 0.55393789E+02 0.13568298E+04 0.14048465E+04 0.29956514E+03 0.0000E+00 0.0000E+00
       23  2    1    2    0    0 -.40312245E+02 0.50229420E+02 0.50965603E+03 0.52170280E+03 0.90975107E+02 0.0000E+00 0.0000E+00
       24  1    3    3    0    0 0.12141042E+03 -.67550905E+02 0.97807261E+03 0.99115935E+03 0.80419002E+02 0.0000E+00 0.9000E+01
      -13  1    4    4    0    0 0.10060646E+02 -.45662830E+01 0.28141929E+03 0.28163610E+03 0.10565837E+00 0.0000E+00 0.9000E+01
       13  1    4    4    0    0 -.50372891E+02 0.54795703E+02 0.22823674E+03 0.24006670E+03 0.10565837E+00 0.0000E+00 0.9000E+01
      -24  1    3    3    0    0 0.78086175E+02 0.12294469E+03 0.37875720E+03 0.41368718E+03 0.80419002E+02 0.0000E+00 0.9000E+01
        2  1    1    2  502    0 -.15918435E+03 -.10562321E+03 0.17305453E+03 0.25776713E+03 0.32000000E+00 0.0000E+00 0.9000E+01
#aMCatNLO 2  0  0  2  1 0.19103906D+03 0.00000000D+00  -5  7  0 0.00000000D+00 0.00000000D+00 0.00000000D+00 0.00000000D+00 0.00000000D+00
  <mgrwgt>
 0.4923178633D-03    1    2    0
 0.218704713425987D+03 0.000000000000000D+00 0.000000000000000D+00 0.218704713425987D+03
 0.218704713425987D+03 0.000000000000000D+00 0.000000000000000D+00 -.218704713425987D+03
 0.164072863561799D+03 0.622463437991014D+02 -.106807925867842D+03 0.719037430072448D+02
 0.370396617393043D+02 -.270025731312310D+01 -.130335927070877D+02 0.345654540451989D+02
 0.885454116751389D+02 -.790899011469474D+02 0.357413150922246D+02 -.175395513273354D+02
 0.147751489875732D+03 0.195438146609691D+02 0.841002034827051D+02 -.889296457251084D+02
 0.000000000000000D+00 -.000000000000000D+00 -.000000000000000D+00 -.000000000000000D+00
 0.265760805765851D+03 0.000000000000000D+00 0.000000000000000D+00 0.265760805765851D+03
 0.575247715184196D+03 0.000000000000000D+00 0.000000000000000D+00 -.575247715184196D+03
 0.175900503990807D+03 0.121410452184104D+03 -.675509081496982D+02 0.719037430072448D+02
 0.362882857932134D+02 0.100606911890926D+02 -.456635141627183D+01 0.345654540451989D+02
 0.764699362883869D+02 -.503729872239994D+02 0.547957795210226D+02 -.175395513273354D+02
 0.188649274922225D+03 0.780861982970179D+02 0.122944689682134D+03 -.889296457251084D+02
 0.363700519955414D+03 -.159184354446215D+03 -.105623209637186D+03 -.309486909418346D+03
0.678479799451D-06 0.000000000000D+00 0.000000000000D+00 0.275072530097D-06 0.104237584593D-10  7 2 21 24 -13 13 -24 2 2 0.32491198D+00 0.11136620D-01 0.91030458D+05 0.91030458D+05 0.91030458D+05 0.11250867D+01  1  2  1  4  7  2       -2 0.492317863286D-03 0.100000000000D+01
  </mgrwgt>
  </event>
  <event>
  8     66 0.26993063E-05 0.39353174E+03 0.75467711E-02 0.94360570E-01
        2 -1    0    0  501    0 0.00000000E+00 0.00000000E+00 0.35111157E+04 0.35111158E+04 0.32000000E+00 0.0000E+00 0.9000E+01
       -2 -1    0    0    0  501 0.00000000E+00 0.00000000E+00 -.91655066E+02 0.91655625E+02 0.32000000E+00 0.0000E+00 0.9000E+01
       25  2    1    2    0    0 0.14946325E+03 0.31612582E+03 0.58099610E+03 0.74134436E+03 0.29960006E+03 0.0000E+00 0.0000E+00
       23  2    1    2    0    0 -.14946325E+03 -.31612582E+03 0.28384646E+04 0.28614270E+04 0.92782804E+02 0.0000E+00 0.0000E+00
       24  1    3    3    0    0 0.87856212E+02 0.30593474E+03 0.53920016E+03 0.63128346E+03 0.80419002E+02 0.0000E+00 0.9000E+01
      -11  1    4    4    0    0 -.65152717E+02 -.64946122E+02 0.95449513E+03 0.95891805E+03 0.51099893E-03 0.0000E+00 0.9000E+01
       11  1    4    4    0    0 -.84310537E+02 -.25117970E+03 0.18839695E+04 0.19025090E+04 0.51099893E-03 0.0000E+00 0.9000E+01
      -24  1    3    3    0    0 0.61607042E+02 0.10191085E+02 0.41795943E+02 0.11006090E+03 0.80419002E+02 0.0000E+00 0.9000E+01
#aMCatNLO 1  0  0  2  2 0.21413308D+03 0.00000000D+00  -5  7  0 0.00000000D+00 0.00000000D+00 0.00000000D+00 0.00000000D+00 0.00000000D+00
  <mgrwgt>
 0.1205370185D-02    4    2    0
 0.567285270423834D+03 0.000000000000000D+00 0.000000000000000D+00 0.567285270423834D+03
 0.567285270423834D+03 0.000000000000000D+00 0.000000000000000D+00 -.567285270423834D+03
 0.379523546767004D+03 0.878562117345109D+02 0.305934736164644D+03 -.190410424777023D+03
 0.168260977197477D+03 -.651527173427678D+02 -.649461219504803D+02 0.140886057201898D+03
 0.363261181927304D+03 -.843105365909004D+02 -.251179699064518D+03 0.248513940238439D+03
 0.223524834955884D+03 0.616070421991573D+02 0.101910848503544D+02 -.198989572663315D+03
 0.000000000000000D+00 0.000000000000000D+00 -.000000000000000D+00 0.000000000000000D+00
 0.781948180086122D+03 0.000000000000000D+00 0.000000000000000D+00 0.781948180086122D+03
 0.633314981689822D+03 0.000000000000000D+00 0.000000000000000D+00 -.633314981689822D+03
 0.390484330603606D+03 0.202106916627351D+02 0.330675361300662D+03 -.190410424777023D+03
 0.178569669373686D+03 -.956219374035444D+02 -.538023307443419D+02 0.140886057201898D+03
 0.368335139585035D+03 -.148581585116136D+03 -.227673250788645D+03 0.248513940238439D+03
 0.217211781962715D+03 0.228881426368039D+02 0.243521080597982D+02 -.198989572663315D+03
 0.260662240250903D+03 0.201104688220142D+03 -.735518878274724D+02 0.148633198396300D+03
0.349553135438D-03 0.000000000000D+00 0.000000000000D+00 0.187917869583D-05 0.000000000000D+00  7 2 -2 24 -11 11 -24 21 0 0.54017170D+00 0.14100823D-01 0.15486723D+06 0.15486723D+06 0.15486723D+06 0.11064592D+01  1  2  2  2  7  2       -2 0.132398683706D-02 0.100000000000D+01
-.162618996961D-04 0.000000000000D+00 -.134237607954D-05 0.187917869583D-05 0.000000000000D+00  7 2 -2 24 -11 11 -24 21 2 0.54017170D+00 0.14100823D-01 0.15486723D+06 0.15486723D+06 0.15486723D+06 0.11064592D+01  1  2  3  2  7  2       -2 -.754071481786D-04 0.100000000000D+01
0.221614715884D-04 0.000000000000D+00 0.000000000000D+00 0.187917869583D-05 0.000000000000D+00  7 2 -2 24 -11 11 -24 21 2 0.54017170D+00 0.14100823D-01 0.15486723D+06 0.15486723D+06 0.15486723D+06 0.11064592D+01  1  2 15  2  7  2       -2 0.102763723990D-03 0.100000000000D+01
-.314798006311D-04 0.000000000000D+00 0.000000000000D+00 0.187917869583D-05 0.000000000000D+00  7 2 -2 24 -11 11 -24 21 2 0.54017170D+00 0.14100823D-01 0.15486723D+06 0.15486723D+06 0.15486723D+06 0.11064592D+01  1  2  4  2  7  2       -2 -.145973227924D-03 0.100000000000D+01
  </mgrwgt>
  </event>
  <event>
  8     66 0.26993063E-05 0.25043757E+03 0.75467711E-02 0.96057771E-01
        2 -1    0    0  501    0 0.00000000E+00 0.00000000E+00 0.78305713E+03 0.78305719E+03 0.32000000E+00 0.0000E+00 0.9000E+01
       -2 -1    0    0    0  501 0.00000000E+00 0.00000000E+00 -.24446705E+03 0.24446726E+03 0.32000000E+00 0.0000E+00 0.9000E+01
       25  2    1    2    0    0 -.15650174E+03 -.93642667E+02 0.68992592E+03 0.77430154E+03 0.30047188E+03 0.0000E+00 0.0000E+00
       23  2    1    2    0    0 0.15650174E+03 0.93642667E+02 -.15133585E+03 0.25322292E+03 0.89205190E+02 0.0000E+00 0.0000E+00
       24  1    3    3    0    0 -.15641680E+03 0.16337782E+02 0.20501300E+03 0.27061169E+03 0.80419002E+02 0.0000E+00 0.9000E+01
      -11  1    4    4    0    0 0.11167495E+03 0.41272031E+02 -.13929705E+03 0.18324394E+03 0.51099893E-03 0.0000E+00 0.9000E+01
       11  1    4    4    0    0 0.44826795E+02 0.52370637E+02 -.12038797E+02 0.69978981E+02 0.51099893E-03 0.0000E+00 0.9000E+01
      -24  1    3    3    0    0 -.84938552E-01 -.10998045E+03 0.48491292E+03 0.50368985E+03 0.80419002E+02 0.0000E+00 0.9000E+01
#aMCatNLO 1  0  0  1  2 0.34601076D+03 0.00000000D+00  -5  7  0 0.00000000D+00 0.00000000D+00 0.00000000D+00 0.00000000D+00 0.00000000D+00
  <mgrwgt>
 0.7693370804D-03    5    2    0
 0.437529211175269D+03 0.000000000000000D+00 0.000000000000000D+00 0.437529211175269D+03
 0.437529211175269D+03 0.000000000000000D+00 0.000000000000000D+00 -.437529211175269D+03
 0.191578248756917D+03 -.156416802861232D+03 0.163377816232948D+02 0.741745921235633D+02
 0.300907495781304D+03 0.111674946013158D+03 0.412720305518896D+02 -.276352396306704D+03
 0.895815519554191D+02 0.448267953998628D+02 0.523706369163510D+02 -.572077726702939D+02
 0.292991125856898D+03 -.849385517891790D-01 -.109980449091535D+03 0.259385576853434D+03
 0.000000000000000D+00 0.000000000000000D+00 0.000000000000000D+00 0.000000000000000D+00
 0.839918037532369D+03 0.000000000000000D+00 0.000000000000000D+00 0.839918037532369D+03
 0.551511836326287D+03 0.000000000000000D+00 0.000000000000000D+00 -.551511836326287D+03
 0.251254700836920D+03 -.223483449303576D+03 -.348566565946654D+02 0.741745921235633D+02
 0.278574927307978D+03 0.239128614064735D+02 -.257199968806846D+02 -.276352396306704D+03
 0.696761375795752D+02 0.207073635304309D+02 0.339593873579965D+02 -.572077726702939D+02
 0.341478127426010D+03 -.961747284544855D+02 -.183329320303984D+03 0.259385576853434D+03
 0.450445980708173D+03 0.275037952821157D+03 0.209946586421338D+03 0.288406201206081D+03
0.263175424901D-04 0.000000000000D+00 0.000000000000D+00 0.992404235418D-06 0.000000000000D+00  7 2 -2 24 -11 11 -24 21 0 0.12047035D+00 0.37610337D-01 0.62718976D+05 0.62718976D+05 0.62718976D+05 0.11387370D+01  1  2  2  1  7  1        2 0.781394263851D-03 0.100000000000D+01
-.908710506627D-06 0.000000000000D+00 -.101066292730D-06 0.992404235418D-06 0.000000000000D+00  7 2 -2 24 -11 11 -24 21 2 0.12047035D+00 0.37610337D-01 0.62718976D+05 0.62718976D+05 0.62718976D+05 0.11387370D+01  1  2  3  1  7  1        2 -.349862400813D-04 0.100000000000D+01
0.160469780736D-05 0.000000000000D+00 0.000000000000D+00 0.992404235418D-06 0.000000000000D+00  7 2 -2 24 -11 11 -24 21 2 0.12047035D+00 0.37610337D-01 0.62718976D+05 0.62718976D+05 0.62718976D+05 0.11387370D+01  1  2 15  1  7  1        2 0.617824294279D-04 0.100000000000D+01
-.341513068310D-05 0.000000000000D+00 -.808234802362D-05 0.992404235418D-06 0.000000000000D+00  7 2 -2 24 -11 11 -24 21 2 0.26031426D+00 0.37610337D-01 0.62718976D+05 0.62718976D+05 0.62718976D+05 0.11387370D+01  1  2  5  1  7  1        2 -.396325216185D-04 0.100000000000D+01
0.221651392738D-06 0.000000000000D+00 -.674221775430D-06 0.992404235418D-06 0.000000000000D+00  7 21 -2 24 -11 11 -24 -2 2 0.26031426D+00 0.37610337D-01 0.62718976D+05 0.62718976D+05 0.62718976D+05 0.11387370D+01  1  2  5  3  7  1        2 0.779148784279D-06 0.100000000000D+01
  </mgrwgt>
  </event>
  <event>
  8     66 0.26993063E-05 0.16475298E+03 0.75467711E-02 0.96788980E-01
        4 -1    0    0  501    0 0.00000000E+00 0.00000000E+00 0.69652220E+03 0.69652393E+03 0.15500000E+01 0.0000E+00 0.9000E+01
       -4 -1    0    0    0  501 0.00000000E+00 0.00000000E+00 -.62039569E+02 0.62058929E+02 0.15500000E+01 0.0000E+00 0.9000E+01
       25  2    1    2    0    0 -.16536394E+02 -.51661713E+02 0.43191824E+03 0.52987117E+03 0.30210544E+03 0.0000E+00 0.0000E+00
       23  2    1    2    0    0 0.16536394E+02 0.51661713E+02 0.20256439E+03 0.22871169E+03 0.91292493E+02 0.0000E+00 0.0000E+00
       24  1    3    3    0    0 -.60172137E+02 -.12269947E+03 0.12528272E+03 0.20208617E+03 0.80419002E+02 0.0000E+00 0.9000E+01
      -13  1    4    4    0    0 0.58392689E+01 0.33673660E+02 0.10848511E+02 0.35856852E+02 0.10565837E+00 0.0000E+00 0.9000E+01
       13  1    4    4    0    0 0.10697125E+02 0.17988053E+02 0.19171588E+03 0.19285484E+03 0.10565837E+00 0.0000E+00 0.9000E+01
      -24  1    3    3    0    0 0.43635744E+02 0.71037757E+02 0.30663552E+03 0.32778499E+03 0.80419002E+02 0.0000E+00 0.9000E+01
#aMCatNLO 1  0  0  2  2 0.34731836D+03 0.00000000D+00  -5  7  0 0.00000000D+00 0.00000000D+00 0.00000000D+00 0.00000000D+00 0.00000000D+00
  <mgrwgt>
 0.8706989638D-04    5    2    0
 0.207894045254589D+03 0.000000000000000D+00 0.000000000000000D+00 0.207894045254589D+03
 0.207894045254589D+03 0.000000000000000D+00 0.000000000000000D+00 -.207894045254589D+03
 0.177517107733673D+03 -.601721188121556D+02 -.122699871496280D+03 -.798070500407717D+02
 0.488646695136779D+02 0.583952875168591D+01 0.336745125183927D+02 -.349239607903773D+02
 0.593001344122912D+02 0.106974541536772D+02 0.179890420185093D+02 0.554839146348028D+02
 0.130106178849535D+03 0.436351359067925D+02 0.710363169593781D+02 0.592470961963462D+02
 0.000000000000000D+00 -.000000000000000D+00 -.000000000000000D+00 -.000000000000000D+00
 0.398676332595905D+03 0.000000000000000D+00 0.000000000000000D+00 0.398676332595905D+03
 0.506868761204182D+03 0.000000000000000D+00 0.000000000000000D+00 -.506868761204182D+03
 0.141251993371925D+03 0.437894163114513D+02 -.720987618483413D+02 -.798070500407717D+02
 0.803663851337157D+02 0.479862072728741D+02 0.541885295402787D+02 -.349239607903773D+02
 0.918781412572964D+02 0.600018740658936D+02 0.419869404252592D+02 0.554839146348028D+02
 0.228268908720038D+03 0.160513541387654D+03 0.127924443940012D+03 0.592470961963462D+02
 0.363779665317112D+03 -.312291039037873D+03 -.152001152057208D+03 -.108192428608277D+03
0.598944530049D-05 0.000000000000D+00 0.000000000000D+00 0.415390450360D-07 0.000000000000D+00  7 4 -4 24 -13 13 -24 21 0 0.10715888D+00 0.95461709D-02 0.27143544D+05 0.27143544D+05 0.27143544D+05 0.11713893D+01  1  2  2  2  7  2       -4 0.689264277504D-04 0.100000000000D+01
-.310862029192D-06 0.000000000000D+00 -.230010470110D-07 0.415390450360D-07 0.000000000000D+00  7 4 -4 24 -13 13 -24 21 2 0.10715888D+00 0.95461709D-02 0.27143544D+05 0.27143544D+05 0.27143544D+05 0.11713893D+01  1  2  3  2  7  2       -4 -.490873240857D-05 0.100000000000D+01
0.387719595227D-06 0.000000000000D+00 0.000000000000D+00 0.415390450360D-07 0.000000000000D+00  7 4 -4 24 -13 13 -24 21 2 0.10715888D+00 0.95461709D-02 0.27143544D+05 0.27143544D+05 0.27143544D+05 0.11713893D+01  1  2 15  2  7  2       -4 0.612236800833D-05 0.100000000000D+01
0.370071268418D-05 0.000000000000D+00 -.235295070953D-05 0.415390450360D-07 0.000000000000D+00  7 4 -4 24 -13 13 -24 21 2 0.10715888D+00 0.44371721D-01 0.27143544D+05 0.27143544D+05 0.27143544D+05 0.11713893D+01  1  2  5  2  7  2       -4 0.339192812960D-05 0.100000000000D+01
0.654894859057D-06 0.000000000000D+00 -.438362500605D-06 0.415390450360D-07 0.000000000000D+00  7 4 21 24 -13 13 -24 4 2 0.10715888D+00 0.44371721D-01 0.27143544D+05 0.27143544D+05 0.27143544D+05 0.11713893D+01  1  2  5  4  7  2       -4 0.135379048982D-04 0.100000000000D+01
  </mgrwgt>
  </event>
  <event>
  8     66 0.26993063E-05 0.21637174E+03 0.75467711E-02 0.10457474E+00
        2 -1    0    0  501    0 0.00000000E+00 0.00000000E+00 0.14884434E+04 0.14884434E+04 0.32000000E+00 0.0000E+00 0.9000E+01
       -2 -1    0    0    0  501 0.00000000E+00 0.00000000E+00 -.43081711E+02 0.43082900E+02 0.32000000E+00 0.0000E+00 0.9000E+01
       25  2    1    2    0    0 -.75686053E+02 0.19178948E+02 0.61754061E+03 0.69488016E+03 0.30887833E+03 0.0000E+00 0.0000E+00
       23  2    1    2    0    0 0.75686053E+02 -.19178948E+02 0.82782105E+03 0.83664614E+03 0.92697718E+02 0.0000E+00 0.0000E+00
       24  1    3    3    0    0 0.94235032E+02 0.36460295E+02 0.22893010E+03 0.26284178E+03 0.80419002E+02 0.0000E+00 0.9000E+01
      -13  1    4    4    0    0 -.16106790E+02 -.16399847E+02 0.30135463E+03 0.30223006E+03 0.10565837E+00 0.0000E+00 0.9000E+01
       13  1    4    4    0    0 0.91792843E+02 -.27791016E+01 0.52646642E+03 0.53441608E+03 0.10565837E+00 0.0000E+00 0.9000E+01
      -24  1    3    3    0    0 -.16992109E+03 -.17281346E+02 0.38861051E+03 0.43203839E+03 0.80419002E+02 0.0000E+00 0.9000E+01
#aMCatNLO 1  0  0  2  1 0.20030900D+02 0.00000000D+00  -5  7  0 0.00000000D+00 0.00000000D+00 0.00000000D+00 0.00000000D+00 0.00000000D+00
  <mgrwgt>
 0.8877908408D-03    4    2    0
 0.253230377707044D+03 0.000000000000000D+00 0.000000000000000D+00 0.253230377707044D+03
 0.253230377707044D+03 0.000000000000000D+00 0.000000000000000D+00 -.253230377707044D+03
 0.141496275278640D+03 0.942350275742674D+02 0.364602957638765D+02 -.578306698408873D+02
 0.539169358812344D+02 -.161069057191025D+02 -.163998602485491D+02 0.487713865581566D+02
 0.113607919759350D+03 0.917929702930255D+02 -.277909105434392D+01 0.668811385200812D+02
 0.197439624494863D+03 -.169921092148190D+03 -.172813444609835D+02 -.578218552373505D+02
 0.000000000000000D+00 0.000000000000000D+00 -.000000000000000D+00 0.000000000000000D+00
 0.335945065838605D+03 0.000000000000000D+00 0.000000000000000D+00 0.335945065838605D+03
 0.254643982984761D+03 0.000000000000000D+00 0.000000000000000D+00 -.254643982984761D+03
 0.139125298500124D+03 0.894534524343993D+02 0.392724611107954D+02 -.578306698408873D+02
 0.541793814625825D+02 -.179487835788924D+02 -.153166052668652D+02 0.487713865581566D+02
 0.110511634200710D+03 0.879741459840342D+02 -.533143835366847D+00 0.668811385200812D+02
 0.203040404975093D+03 -.176744962911729D+03 -.132680533734767D+02 -.578218552373505D+02
 0.837323296848567D+02 0.172661480721884D+02 -.101546586350866D+02 0.813010828538443D+02
0.479100669339D-05 0.000000000000D+00 0.000000000000D+00 0.138217800070D-08 0.000000000000D+00  7 2 -2 24 -13 13 -24 21 0 0.22899138D+00 0.66280497D-02 0.46816731D+05 0.46816731D+05 0.46816731D+05 0.11498168D+01  1  2  2  2  7  2       -2 0.913345682508D-03 0.100000000000D+01
-.258159434455D-06 0.000000000000D+00 -.183987272036D-07 0.138217800070D-08 0.000000000000D+00  7 2 -2 24 -13 13 -24 21 2 0.22899138D+00 0.66280497D-02 0.46816731D+05 0.46816731D+05 0.46816731D+05 0.11498168D+01  1  2  3  2  7  2       -2 -.650659398390D-04 0.100000000000D+01
0.294805718343D-06 0.000000000000D+00 0.000000000000D+00 0.138217800070D-08 0.000000000000D+00  7 2 -2 24 -13 13 -24 21 2 0.22899138D+00 0.66280497D-02 0.46816731D+05 0.46816731D+05 0.46816731D+05 0.11498168D+01  1  2 15  2  7  2       -2 0.743021891662D-04 0.100000000000D+01
-.138039170725D-06 0.000000000000D+00 0.000000000000D+00 0.138217800070D-08 0.000000000000D+00  7 2 -2 24 -13 13 -24 21 2 0.22899138D+00 0.66280497D-02 0.46816731D+05 0.46816731D+05 0.46816731D+05 0.11498168D+01  1  2  4  2  7  2       -2 -.347910910045D-04 0.100000000000D+01
  </mgrwgt>
  </event>
  <event>
  9     66 0.26993063E-05 0.15593720E+03 0.75467711E-02 0.10721230E+00
        2 -1    0    0  501    0 0.00000000E+00 0.00000000E+00 0.69618076E+03 0.69618084E+03 0.32000000E+00 0.0000E+00 0.9000E+01
       21 -1    0    0  502  501 0.00000000E+00 0.00000000E+00 -.12718808E+03 0.12719030E+03 0.75000000E+00 0.0000E+00 0.9000E+01
       25  2    1    2    0    0 0.40250551E+02 -.31374854E+02 0.50925474E+03 0.59317965E+03 0.29986200E+03 0.0000E+00 0.0000E+00
       23  2    1    2    0    0 -.29804014E+01 0.79684281E+02 -.28480766E+02 0.12292775E+03 0.89115716E+02 0.0000E+00 0.0000E+00
       24  1    3    3    0    0 -.26031814E+02 0.34096033E+02 0.26406515E+02 0.94893176E+02 0.80419002E+02 0.0000E+00 0.9000E+01
      -11  1    4    4    0    0 0.29177243E+02 0.29539905E+02 0.20034819E+02 0.46101100E+02 0.51099893E-03 0.0000E+00 0.9000E+01
       11  1    4    4    0    0 -.32157644E+02 0.50144376E+02 -.48515585E+02 0.76826652E+02 0.51099893E-03 0.0000E+00 0.9000E+01
      -24  1    3    3    0    0 0.66282365E+02 -.65470886E+02 0.48284823E+03 0.49828648E+03 0.80419002E+02 0.0000E+00 0.9000E+01
        2  1    1    2  502    0 -.37270149E+02 -.48309427E+02 0.88218704E+02 0.10726373E+03 0.32000000E+00 0.0000E+00 0.9000E+01
#aMCatNLO 2  0  0  2  1 0.61015283D+02 0.00000000D+00  -5  7  0 0.00000000D+00 0.00000000D+00 0.00000000D+00 0.00000000D+00 0.00000000D+00
  <mgrwgt>
 0.1946540569D-03    1    2    0
 0.263601658212607D+03 0.000000000000000D+00 0.000000000000000D+00 0.263601658212607D+03
 0.263601658212607D+03 0.000000000000000D+00 0.000000000000000D+00 -.263601658212607D+03
 0.103529679551353D+03 -.333471557020487D+02 0.246139146245379D+02 -.503319084386296D+02
 0.395798414323913D+02 0.262308225885961D+02 0.257207662109345D+02 -.147292219638814D+02
 0.146276088945552D+03 -.425111744751269D+02 0.367241686374804D+02 -.135058615718651D+03
 0.237817706495916D+03 0.496275075885795D+02 -.870588494729528D+02 0.200119746121162D+03
 0.000000000000000D+00 -.000000000000000D+00 -.000000000000000D+00 0.000000000000000D+00
 0.308701262282312D+03 0.000000000000000D+00 0.000000000000000D+00 0.308701262282312D+03
 0.286835885988783D+03 0.000000000000000D+00 0.000000000000000D+00 -.286835885988783D+03
 0.104118738765600D+03 -.260318141280799D+02 0.340960328175459D+02 -.503319084386296D+02
 0.440552770945885D+02 0.291772426218580D+02 0.295399047595777D+02 -.147292219638814D+02
 0.147612337474974D+03 -.321576440156713D+02 0.501443758197138D+02 -.135058615718651D+03
 0.234935986132065D+03 0.662823647262340D+02 -.654708863860530D+02 0.200119746121162D+03
 0.648148088038666D+02 -.372701492043409D+02 -.483094270107844D+02 0.218653762935294D+02
0.103608348638D-06 0.000000000000D+00 0.000000000000D+00 0.286542453175D-06 0.879403056370D-11  7 2 21 24 -11 11 -24 2 2 0.10710476D+00 0.19567547D-01 0.35404831D+05 0.35404831D+05 0.35404831D+05 0.11607194D+01  1  2  1  4  7  2       -2 0.194654056950D-03 0.100000000000D+01
  </mgrwgt>
  </event>
  <event>
  8     66 0.26993063E-05 0.20553325E+03 0.75467711E-02 0.98466693E-01
        2 -1    0    0  501    0 0.00000000E+00 0.00000000E+00 0.74159325E+03 0.74159331E+03 0.32000000E+00 0.0000E+00 0.9000E+01
       -2 -1    0    0    0  501 0.00000000E+00 0.00000000E+00 -.88959199E+02 0.88959774E+02 0.32000000E+00 0.0000E+00 0.9000E+01
       25  2    1    2    0    0 0.13914156E+03 -.53581022E+02 0.48379309E+03 0.58784719E+03 0.29879301E+03 0.0000E+00 0.0000E+00
       23  2    1    2    0    0 -.13914156E+03 0.53581022E+02 0.16884096E+03 0.24270590E+03 0.90374703E+02 0.0000E+00 0.0000E+00
       24  1    3    3    0    0 0.82711715E+02 0.32002396E+02 0.43091050E+03 0.44723199E+03 0.80419002E+02 0.0000E+00 0.9000E+01
      -11  1    4    4    0    0 -.11487167E+03 0.67342052E+02 0.16855450E+03 0.21480473E+03 0.51099893E-03 0.0000E+00 0.9000E+01
       11  1    4    4    0    0 -.24269887E+02 -.13761030E+02 0.28645817E+00 0.27901172E+02 0.51099893E-03 0.0000E+00 0.9000E+01
      -24  1    3    3    0    0 0.56429844E+02 -.85583418E+02 0.52882593E+02 0.14061520E+03 0.80419002E+02 0.0000E+00 0.9000E+01
#aMCatNLO 1  0  0  1  2 0.24438510D+03 0.00000000D+00  -5  7  0 0.00000000D+00 0.00000000D+00 0.00000000D+00 0.00000000D+00 0.00000000D+00
  <mgrwgt>
 0.9693939521D-03    3    2    0
 0.256849778404123D+03 0.000000000000000D+00 0.000000000000000D+00 0.256849778404123D+03
 0.256849778404123D+03 0.000000000000000D+00 0.000000000000000D+00 -.256849778404123D+03
 0.175633887011836D+03 0.827117152024298D+02 0.320023957970399D+02 0.128509397104016D+03
 0.133156290936868D+03 -.114871672324729D+03 0.673420522042382D+02 -.380418592650511D+00
 0.447468803383766D+02 -.242698870097110D+02 -.137610301150963D+02 -.349841383304530D+02
 0.160162498521165D+03 0.564298441320099D+02 -.855834178861818D+02 -.931448401809126D+02
 0.000000000000000D+00 -.000000000000000D+00 -.000000000000000D+00 -.000000000000000D+00
 0.359475840224133D+03 0.000000000000000D+00 0.000000000000000D+00 0.359475840224133D+03
 0.483404081836706D+03 0.000000000000000D+00 0.000000000000000D+00 -.483404081836706D+03
 0.235954225913802D+03 0.161635116336310D+03 0.810345901150892D+02 0.128509397104016D+03
 0.117943377733890D+03 -.667224686603675D+02 0.972553741900139D+02 -.380418592650511D+00
 0.362902781764651D+02 -.873074006313183D+01 -.410713201041473D+01 -.349841383304530D+02
 0.178680567589372D+03 0.121404138549758D+03 -.452172884011518D+02 -.931448401809126D+02
 0.274011472647311D+03 -.207586046162569D+03 -.128965543893537D+03 -.123928241612573D+03
0.550373025262D-05 0.000000000000D+00 0.000000000000D+00 0.857537456881D-07 0.000000000000D+00  7 2 -2 24 -11 11 -24 21 0 0.11409132D+00 0.13686080D-01 0.42243917D+05 0.42243917D+05 0.42243917D+05 0.11537907D+01  1  2  2  1  7  1        2 0.953111504431D-03 0.100000000000D+01
-.287294691189D-06 0.000000000000D+00 -.211357733355D-07 0.857537456881D-07 0.000000000000D+00  7 2 -2 24 -11 11 -24 21 2 0.11409132D+00 0.13686080D-01 0.42243917D+05 0.42243917D+05 0.42243917D+05 0.11537907D+01  1  2  3  1  7  1        2 -.662320621682D-04 0.100000000000D+01
0.357923033887D-06 0.000000000000D+00 0.000000000000D+00 0.857537456881D-07 0.000000000000D+00  7 2 -2 24 -11 11 -24 21 2 0.11409132D+00 0.13686080D-01 0.42243917D+05 0.42243917D+05 0.42243917D+05 0.11537907D+01  1  2 15  1  7  1        2 0.825145098705D-04 0.100000000000D+01
  </mgrwgt>
  </event>
  <event>
  9     66 0.26993063E-05 0.28437280E+03 0.75467711E-02 0.99943469E-01
        2 -1    0    0  501    0 0.00000000E+00 0.00000000E+00 0.66561556E+03 0.66561564E+03 0.32000000E+00 0.0000E+00 0.9000E+01
       -2 -1    0    0    0  502 0.00000000E+00 0.00000000E+00 -.23996468E+03 0.23996489E+03 0.32000000E+00 0.0000E+00 0.9000E+01
       25  2    1    2    0    0 -.92414454E+02 0.26383829E+03 0.43651078E+02 0.41229786E+03 0.29988837E+03 0.0000E+00 0.0000E+00
       23  2    1    2    0    0 0.10867634E+03 -.19947205E+03 0.29180011E+03 0.38128263E+03 0.92895100E+02 0.0000E+00 0.0000E+00
       24  1    3    3    0    0 -.34780308E+02 0.47445339E+02 0.12588826E+03 0.16054843E+03 0.80419002E+02 0.0000E+00 0.9000E+01
      -13  1    4    4    0    0 -.10044585E+02 -.97512279E+01 0.59789373E+00 0.14012450E+02 0.10565837E+00 0.0000E+00 0.9000E+01
       13  1    4    4    0    0 0.11872092E+03 -.18972082E+03 0.29120221E+03 0.36727018E+03 0.10565837E+00 0.0000E+00 0.9000E+01
      -24  1    3    3    0    0 -.57634145E+02 0.21639295E+03 -.82237178E+02 0.25174943E+03 0.80419002E+02 0.0000E+00 0.9000E+01
       21  1    1    2  501  502 -.16261882E+02 -.64366241E+02 0.90199694E+02 0.11200004E+03 0.75000000E+00 0.0000E+00 0.9000E+01
#aMCatNLO 2  0  0  2  2 0.66388718D+02 0.00000000D+00  -5  7  0 0.00000000D+00 0.00000000D+00 0.00000000D+00 0.00000000D+00 0.00000000D+00
  <mgrwgt>
 0.2441121970D-03    1    2    0
 0.358062506631481D+03 0.000000000000000D+00 0.000000000000000D+00 0.358062506631481D+03
 0.358062506631481D+03 0.000000000000000D+00 0.000000000000000D+00 -.358062506631481D+03
 0.115469299390558D+03 -.374304072823336D+02 0.369559683233222D+02 0.640247152538777D+02
 0.163521558291392D+02 -.104020322076617D+02 -.111651520702438D+02 -.587623225030727D+01
 0.284944052350214D+03 0.112440118959099D+03 -.214581784707215D+03 0.150016633378075D+03
 0.299359505693051D+03 -.646076794691038D+02 0.188790968454137D+03 -.208165116381646D+03
 0.000000000000000D+00 -.000000000000000D+00 -.000000000000000D+00 0.000000000000000D+00
 0.423996816532946D+03 0.000000000000000D+00 0.000000000000000D+00 0.423996816532946D+03
 0.376707854925167D+03 0.000000000000000D+00 0.000000000000000D+00 -.376707854925167D+03
 0.118436101652259D+03 -.347803083677303D+02 0.474453391464244D+02 0.640247152538777D+02
 0.151825239155434D+02 -.100447509298837D+02 -.975099511553035D+01 -.587623225030727D+01
 0.269432301332537D+03 0.118721086250262D+03 -.189721054157974D+03 0.150016633378075D+03
 0.316144801987094D+03 -.576341453375931D+02 0.216392951553672D+03 -.208165116381646D+03
 0.815089425706794D+02 -.162618816150552D+02 -.643662414265918D+02 0.472889616077784D+02
0.523963858047D-05 0.000000000000D+00 0.000000000000D+00 0.125070171061D-05 0.194258965838D-08  7 2 -2 24 -13 13 -24 21 2 0.10240196D+00 0.36917501D-01 0.10296749D+06 0.10296749D+06 0.10296749D+06 0.11206813D+01  1  2  1  2  7  2       -2 0.244112196953D-03 0.100000000000D+01
  </mgrwgt>
  </event>
  <event>
  7     66 0.26993063E-05 0.40566997E+03 0.75467711E-02 0.88241117E-01
        2 -1    0    0  501    0 0.00000000E+00 0.00000000E+00 0.25630932E+04 0.25630933E+04 0.32000000E+00 0.0000E+00 0.9000E+01
       -2 -1    0    0    0  501 0.00000000E+00 0.00000000E+00 -.77918593E+02 0.77919250E+02 0.32000000E+00 0.0000E+00 0.9000E+01
       25  2    1    2    0    0 0.34134272E+03 -.53337731E+02 0.17283373E+04 0.17878230E+04 0.29966923E+03 0.0000E+00 0.0000E+00
       24  1    3    3    0    0 -.18394470E+02 -.29760805E+02 0.35654719E+03 0.36717458E+03 0.80419002E+02 0.0000E+00 0.9000E+01
      -13  1    1    2    0    0 -.46951240E+02 -.19757181E+02 0.17192018E+02 0.53761899E+02 0.10565837E+00 0.0000E+00 0.9000E+01
       13  1    1    2    0    0 -.29439148E+03 0.73094913E+02 0.73964537E+03 0.79942761E+03 0.10565837E+00 0.0000E+00 0.9000E+01
      -24  1    3    3    0    0 0.35973719E+03 -.23576927E+02 0.13717901E+04 0.14206484E+04 0.80419002E+02 0.0000E+00 0.9000E+01
#aMCatNLO 1  0  0  2  2 0.73468027D+03 0.00000000D+00  -5  7  0 0.00000000D+00 0.00000000D+00 0.00000000D+00 0.00000000D+00 0.00000000D+00
  <mgrwgt>
 0.2500874206D-02    5    2    0
 0.446893178149198D+03 0.000000000000000D+00 0.000000000000000D+00 0.446893178149198D+03
 0.446893178149198D+03 0.000000000000000D+00 0.000000000000000D+00 -.446893178149198D+03
 0.935689337658024D+02 -.183942641803193D+02 -.297608368207977D+02 0.326170668314773D+02
 0.111055580406424D+03 -.469524205378343D+02 -.197564122396718D+02 -.986838199527267D+02
 0.305610293145668D+03 -.294391353702344D+03 0.730943075469109D+02 -.372639818876099D+02
 0.383551548980502D+03 0.359738038420498D+03 -.235770584864414D+02 0.103330735008859D+03
 0.000000000000000D+00 0.000000000000000D+00 -.000000000000000D+00 -.000000000000000D+00
 0.815728517122403D+03 0.000000000000000D+00 0.000000000000000D+00 0.815728517122403D+03
 0.114728419841813D+04 0.000000000000000D+00 0.000000000000000D+00 -.114728419841813D+04
 0.120217049967190D+03 -.822428072404542D+02 0.125367761790599D+02 0.326170668314773D+02
 0.166964418233735D+03 -.129984860479852D+03 0.352499174708365D+02 -.986838199527267D+02
 0.630520840975740D+03 -.573972867809153D+03 0.258308098164908D+03 -.372639818876099D+02
 0.239280466920313D+03 0.173725297584594D+03 0.996504193513781D+02 0.103330735008859D+03
 0.806029939443556D+03 0.612475237944864D+03 -.405745211166183D+03 -.331555681295728D+03
0.115706597779D-03 0.000000000000D+00 0.000000000000D+00 0.108080184208D-08 0.000000000000D+00  7 2 -2 24 -13 13 -24 21 0 0.39432209D+00 0.11987528D-01 0.16456812D+06 0.16456812D+06 0.16456812D+06 0.11043892D+01  1  2  2  2  7  2       -2 0.226278255959D-02 0.100000000000D+01
-.635494025371D-05 0.000000000000D+00 -.444343801719D-06 0.108080184208D-08 0.000000000000D+00  7 2 -2 24 -13 13 -24 21 2 0.39432209D+00 0.11987528D-01 0.16456812D+06 0.16456812D+06 0.16456812D+06 0.11043892D+01  1  2  3  2  7  2       -2 -.151579499327D-03 0.100000000000D+01
0.740729092317D-05 0.000000000000D+00 0.000000000000D+00 0.108080184208D-08 0.000000000000D+00  7 2 -2 24 -13 13 -24 21 2 0.39432209D+00 0.11987528D-01 0.16456812D+06 0.16456812D+06 0.16456812D+06 0.11043892D+01  1  2 15  2  7  2       -2 0.176680409992D-03 0.100000000000D+01
0.125575506264D-03 0.000000000000D+00 -.635863696406D-04 0.108080184208D-08 0.000000000000D+00  7 2 -2 24 -13 13 -24 21 2 0.39432209D+00 0.88415842D-01 0.16456812D+06 0.16456812D+06 0.16456812D+06 0.11043892D+01  1  2  5  2  7  2       -2 0.752140636639D-04 0.100000000000D+01
0.239766872339D-04 0.000000000000D+00 -.154957204879D-04 0.108080184208D-08 0.000000000000D+00  7 2 21 24 -13 13 -24 2 2 0.39432209D+00 0.88415842D-01 0.16456812D+06 0.16456812D+06 0.16456812D+06 0.11043892D+01  1  2  5  4  7  2       -2 0.137776671860D-03 0.100000000000D+01
  </mgrwgt>
  </event>
  <event>
  9     66 0.26993063E-05 0.37486373E+03 0.75467711E-02 0.97556977E-01
        2 -1    0    0  501    0 0.00000000E+00 0.00000000E+00 0.29447746E+04 0.29447746E+04 0.32000000E+00 0.0000E+00 0.9000E+01
       -2 -1    0    0    0  502 0.00000000E+00 0.00000000E+00 -.62189328E+02 0.62190151E+02 0.32000000E+00 0.0000E+00 0.9000E+01
       25  2    1    2    0    0 -.12585071E+03 -.28218861E+03 0.10784165E+04 0.11612142E+04 0.29994601E+03 0.0000E+00 0.0000E+00
       23  2    1    2    0    0 0.10855328E+03 0.30382344E+03 0.13600332E+04 0.14007513E+04 0.91222634E+02 0.0000E+00 0.0000E+00
       24  1    3    3    0    0 -.19168825E+03 -.13511944E+03 0.56064089E+03 0.61301474E+03 0.80419002E+02 0.0000E+00 0.9000E+01
      -13  1    4    4    0    0 0.54319649E+02 0.15446301E+03 0.87995642E+03 0.89506020E+03 0.10565837E+00 0.0000E+00 0.9000E+01
       13  1    4    4    0    0 0.54233632E+02 0.14936043E+03 0.48007676E+03 0.50569114E+03 0.10565837E+00 0.0000E+00 0.9000E+01
      -24  1    3    3    0    0 0.65837536E+02 -.14706917E+03 0.51777557E+03 0.54819949E+03 0.80419002E+02 0.0000E+00 0.9000E+01
       21  1    1    2  501  502 0.17297428E+02 -.21634823E+02 0.44413564E+03 0.44499921E+03 0.75000000E+00 0.0000E+00 0.9000E+01
#aMCatNLO 2  0  0  2  2 0.27699577D+02 0.00000000D+00  -5  7  0 0.00000000D+00 0.00000000D+00 0.00000000D+00 0.00000000D+00 0.00000000D+00
  <mgrwgt>
 0.4156080076D-04    1    2    0
 0.392703341292192D+03 0.000000000000000D+00 0.000000000000000D+00 0.392703341292192D+03
 0.392703341292192D+03 0.000000000000000D+00 0.000000000000000D+00 -.392703341292192D+03
 0.258510214197843D+03 -.185992978894093D+03 -.142242817736510D+03 -.743902378993637D+02
 0.184594601332295D+03 0.584161968635925D+02 0.149339244962975D+03 0.914357955010590D+02
 0.156131821347734D+03 0.577021925405517D+02 0.145022104985516D+03 -.402388853519829D+01
 0.186170045706511D+03 0.698745894899487D+02 -.152118532211982D+03 -.130216690664970D+02
 0.000000000000000D+00 0.000000000000000D+00 -.000000000000000D+00 0.000000000000000D+00
 0.462816100281886D+03 0.000000000000000D+00 0.000000000000000D+00 0.462816100281886D+03
 0.395692882255245D+03 0.000000000000000D+00 0.000000000000000D+00 -.395692882255245D+03
 0.258848933761740D+03 -.191688246095923D+03 -.135119441122158D+03 -.743902378993637D+02
 0.187536536668484D+03 0.543196494779049D+02 0.154463016826992D+03 0.914357955010590D+02
 0.158952865816192D+03 0.542336320798335D+02 0.149360419869743D+03 -.402388853519829D+01
 0.180556646330853D+03 0.658375361017305D+02 -.147069172686359D+03 -.130216690664970D+02
 0.726139999598622D+02 0.172974284364537D+02 -.216348228882181D+02 0.671232180266416D+02
0.205587084551D-05 0.000000000000D+00 0.000000000000D+00 0.346151964549D-05 0.298670963274D-07  7 2 -2 24 -13 13 -24 21 2 0.45304011D+00 0.95676071D-02 0.15145836D+06 0.15145836D+06 0.15145836D+06 0.11072205D+01  1  2  1  2  7  2       -2 0.415608007641D-04 0.100000000000D+01
  </mgrwgt>
  </event>
  <event>
  8     66 0.26993063E-05 0.50070220E+03 0.75467711E-02 0.90037279E-01
        2 -1    0    0  501    0 0.00000000E+00 0.00000000E+00 0.30154572E+04 0.30154572E+04 0.32000000E+00 0.0000E+00 0.9000E+01
       -2 -1    0    0    0  501 0.00000000E+00 0.00000000E+00 -.20080837E+03 0.20080862E+03 0.32000000E+00 0.0000E+00 0.9000E+01
       25  2    1    2    0    0 0.69723595E+03 -.17355883E+03 0.18734912E+04 0.20287648E+04 0.29942770E+03 0.0000E+00 0.0000E+00
       23  2    1    2    0    0 -.69723595E+03 0.17355883E+03 0.94115764E+03 0.11875010E+04 0.90112476E+02 0.0000E+00 0.0000E+00
       24  1    3    3    0    0 0.19513366E+03 0.49558801E+02 0.41658648E+03 0.46962190E+03 0.80419002E+02 0.0000E+00 0.9000E+01
      -13  1    4    4    0    0 -.14011918E+03 0.72544336E+02 0.19505106E+03 0.25088044E+03 0.10565837E+00 0.0000E+00 0.9000E+01
       13  1    4    4    0    0 -.55711676E+03 0.10101449E+03 0.74610658E+03 0.93662055E+03 0.10565837E+00 0.0000E+00 0.9000E+01
      -24  1    3    3    0    0 0.50210229E+03 -.22311763E+03 0.14569047E+04 0.15591429E+04 0.80419002E+02 0.0000E+00 0.9000E+01
#aMCatNLO 1  0  0  1  2 0.34000118D+02 0.00000000D+00  -5  7  0 0.00000000D+00 0.00000000D+00 0.00000000D+00 0.00000000D+00 0.00000000D+00
  <mgrwgt>
 0.2757722246D-03    9    2    0
 0.778157745029559D+03 0.000000000000000D+00 0.000000000000000D+00 0.778157745029559D+03
 0.778157745029559D+03 0.000000000000000D+00 0.000000000000000D+00 -.778157745029559D+03
 0.217105231028184D+03 0.195133660574619D+03 0.495588008977812D+02 0.115864209208033D+02
 0.165709998740746D+03 -.140118609885473D+03 0.725442972077420D+02 -.506350055698184D+02
 0.586252322059415D+03 -.557117338172898D+03 0.101014530823028D+03 -.152013555940922D+03
 0.587247938230773D+03 0.502102287483751D+03 -.223117628928552D+03 0.191062140589937D+03
 0.000000000000000D+00 0.000000000000000D+00 0.000000000000000D+00 0.000000000000000D+00
 0.115504713106360D+04 0.000000000000000D+00 0.000000000000000D+00 0.115504713106360D+04
 0.779110605662471D+03 0.000000000000000D+00 0.000000000000000D+00 -.779110605662471D+03
 0.213460789448758D+03 0.191930723913105D+03 0.461155586126211D+02 0.115864209208033D+02
 0.166674029253510D+03 -.142591180730207D+03 0.698862176434655D+02 -.506350055698184D+02
 0.593066051119416D+03 -.565890167131552D+03 0.915835058533909D+02 -.152013555940922D+03
 0.583485968501430D+03 0.493393317494440D+03 -.232480003803990D+03 0.191062140589937D+03
 0.377470898402957D+03 0.231573064542140D+02 0.248947216945127D+02 0.375936525401130D+03
0.112146866080D-03 0.000000000000D+00 0.000000000000D+00 0.162380490182D-05 0.000000000000D+00  7 2 -2 24 -13 13 -24 21 0 0.46391651D+00 0.30893616D-01 0.55956298D+06 0.55956298D+06 0.55956298D+06 0.10650729D+01  1  2  2  1  7  1        2 0.224163168841D-03 0.100000000000D+01
-.621857799282D-05 0.000000000000D+00 -.430673494693D-06 0.162380490182D-05 0.000000000000D+00  7 2 -2 24 -13 13 -24 21 2 0.46391651D+00 0.30893616D-01 0.55956298D+06 0.55956298D+06 0.55956298D+06 0.10650729D+01  1  2  3  1  7  1        2 -.141002530862D-04 0.100000000000D+01
0.722798116970D-05 0.000000000000D+00 0.000000000000D+00 0.162380490182D-05 0.000000000000D+00  7 2 -2 24 -13 13 -24 21 2 0.46391651D+00 0.30893616D-01 0.55956298D+06 0.55956298D+06 0.55956298D+06 0.10650729D+01  1  2 15  1  7  1        2 0.163890143233D-04 0.100000000000D+01
0.472578955489D-02 0.000000000000D+00 0.000000000000D+00 0.162380490182D-05 0.000000000000D+00  7 2 -2 24 -13 13 -24 21 2 0.68878274D+00 0.30893616D-01 0.58561793D+06 0.58561793D+06 0.58561793D+06 0.10636925D+01  1  2 12  1  7  1        2 0.764058823165D-03 0.100000000000D+01
-.438734200061D-02 0.000000000000D+00 0.000000000000D+00 0.162380490182D-05 0.000000000000D+00  7 2 -2 24 -13 13 -24 21 2 0.46391651D+00 0.30893616D-01 0.55956298D+06 0.55956298D+06 0.55956298D+06 0.10650729D+01  1  2  4  1  7  1        2 -.994803517068D-02 0.100000000000D+01
-.474921553060D-02 0.000000000000D+00 -.284210887025D-04 0.162380490182D-05 0.000000000000D+00  7 2 -2 24 -13 13 -24 21 2 0.68871356D+00 0.30893616D-01 0.55956298D+06 0.55956298D+06 0.55956298D+06 0.10650729D+01  1  2  5  1  7  1        2 -.774053791354D-03 0.100000000000D+01
0.441350340979D-02 0.000000000000D+00 0.263382321111D-04 0.162380490182D-05 0.000000000000D+00  7 2 -2 24 -13 13 -24 21 2 0.46391651D+00 0.30893616D-01 0.55956298D+06 0.55956298D+06 0.55956298D+06 0.10650729D+01  1  2  6  1  7  1        2 0.100073545988D-01 0.100000000000D+01
0.222973286185D-03 0.000000000000D+00 0.000000000000D+00 0.162380490182D-05 0.000000000000D+00  7 21 -2 24 -13 13 -24 -2 2 0.68878274D+00 0.30893616D-01 0.58561793D+06 0.58561793D+06 0.58561793D+06 0.10636925D+01  1  2 12  3  7  1        2 0.408869784162D-06 0.100000000000D+01
-.223082873663D-03 0.000000000000D+00 -.134072076960D-05 0.162380490182D-05 0.000000000000D+00  7 21 -2 24 -13 13 -24 -2 2 0.68871356D+00 0.30893616D-01 0.55956298D+06 0.55956298D+06 0.55956298D+06 0.10650729D+01  1  2  5  3  7  1        2 -.413035186034D-06 0.100000000000D+01
  </mgrwgt>
  </event>
  <event>
  8     66 0.26993063E-05 0.17576513E+03 0.75467711E-02 0.81872554E-01
        2 -1    0    0  501    0 0.00000000E+00 0.00000000E+00 0.19192543E+04 0.19192543E+04 0.32000000E+00 0.0000E+00 0.9000E+01
       -2 -1    0    0    0  501 0.00000000E+00 0.00000000E+00 -.17685179E+03 0.17685207E+03 0.32000000E+00 0.0000E+00 0.9000E+01
       25  2    1    2    0    0 -.75452534E+02 0.54381226E+02 0.18778915E+04 0.19041134E+04 0.30086743E+03 0.0000E+00 0.0000E+00
       23  2    1    2    0    0 0.75452534E+02 -.54381226E+02 -.13548895E+03 0.19199297E+03 0.99265504E+02 0.0000E+00 0.0000E+00
       24  1    3    3    0    0 -.77176972E+02 0.74657327E+02 0.17246520E+04 0.17298617E+04 0.80419002E+02 0.0000E+00 0.9000E+01
      -11  1    4    4    0    0 0.54094249E+02 -.82780898E+02 -.85904772E+02 0.13099044E+03 0.51099893E-03 0.0000E+00 0.9000E+01
       11  1    4    4    0    0 0.21358285E+02 0.28399671E+02 -.49584180E+02 0.61002529E+02 0.51099893E-03 0.0000E+00 0.9000E+01
      -24  1    3    3    0    0 0.17244385E+01 -.20276101E+02 0.15323949E+03 0.17425169E+03 0.80419002E+02 0.0000E+00 0.9000E+01
#aMCatNLO 1  0  0  1  1 0.18229608D+04 0.00000000D+00  -5  7  0 0.00000000D+00 0.00000000D+00 0.00000000D+00 0.00000000D+00 0.00000000D+00
  <mgrwgt>
 0.1877462306D-02    3    2    0
 0.582600960762827D+03 0.000000000000000D+00 0.000000000000000D+00 0.582600960762827D+03
 0.582600960762827D+03 0.000000000000000D+00 0.000000000000000D+00 -.582600960762827D+03
 0.532900199206641D+03 -.771769721163264D+02 0.746573270160811D+02 0.515737728751618D+03
 0.364100484360918D+03 0.540942491379256D+02 -.827808976501599D+02 -.350414465891882D+03
 0.183885201368391D+03 0.213582845232534D+02 0.283996711563872D+02 -.180419094451576D+03
 0.843160365897027D+02 0.172443845514744D+01 -.202761005223084D+02 0.150958315918402D+02
 0.000000000000000D+00 0.000000000000000D+00 -.000000000000000D+00 -.000000000000000D+00
 0.162102541462895D+04 0.000000000000000D+00 0.000000000000000D+00 0.162102541462895D+04
 0.262239588930396D+04 0.000000000000000D+00 0.000000000000000D+00 -.262239588930396D+04
 0.114819757553131D+04 -.492545467565795D+03 0.896272287881376D+03 0.515737728751618D+03
 0.522294646007160D+03 -.164917766229305D+03 0.350433345621372D+03 -.350414465891882D+03
 0.366012283355560D+03 -.114511320632128D+03 0.297155008996163D+03 -.180419094451576D+03
 0.127030027492605D+03 -.504953062713124D+02 0.830165757154481D+02 0.150958315918402D+02
 0.207988677154628D+04 0.822469860698540D+03 -.162687721821436D+04 -.100137047467501D+04
0.133284865815D-03 0.000000000000D+00 0.000000000000D+00 0.718317560162D-07 0.000000000000D+00  7 2 -2 24 -11 11 -24 21 0 0.29526992D+00 0.27207991D-01 0.30893379D+05 0.30893379D+05 0.30893379D+05 0.11661553D+01  1  2  2  1  7  1        2 0.164922641936D-02 0.100000000000D+01
0.552413905251D-05 0.000000000000D+00 -.511848979442D-06 0.718317560162D-07 0.000000000000D+00  7 2 -2 24 -11 11 -24 21 2 0.29526992D+00 0.27207991D-01 0.30893379D+05 0.30893379D+05 0.30893379D+05 0.11661553D+01  1  2  3  1  7  1        2 0.929558776705D-04 0.100000000000D+01
0.803935802554D-05 0.000000000000D+00 0.000000000000D+00 0.718317560162D-07 0.000000000000D+00  7 2 -2 24 -11 11 -24 21 2 0.29526992D+00 0.27207991D-01 0.30893379D+05 0.30893379D+05 0.30893379D+05 0.11661553D+01  1  2 15  1  7  1        2 0.135280009078D-03 0.100000000000D+01
  </mgrwgt>
  </event>
  <event>
  8     66 0.26993063E-05 0.37718972E+03 0.75467711E-02 0.95915160E-01
        4 -1    0    0  501    0 0.00000000E+00 0.00000000E+00 0.38750150E+03 0.38750460E+03 0.15500000E+01 0.0000E+00 0.9000E+01
       -4 -1    0    0    0  501 0.00000000E+00 0.00000000E+00 -.37577815E+03 0.37578135E+03 0.15500000E+01 0.0000E+00 0.9000E+01
       25  2    1    2    0    0 -.30908334E+03 -.33768188E+02 -.42981394E+02 0.43381833E+03 0.29946310E+03 0.0000E+00 0.0000E+00
       23  2    1    2    0    0 0.30908334E+03 0.33768188E+02 0.54704741E+02 0.32946762E+03 0.94252330E+02 0.0000E+00 0.0000E+00
       24  1    3    3    0    0 -.32051886E+03 -.76943797E+02 -.41450547E+02 0.34181581E+03 0.80419002E+02 0.0000E+00 0.9000E+01
      -11  1    4    4    0    0 0.19031134E+02 0.26914520E+02 0.16397433E+02 0.36816453E+02 0.51099893E-03 0.0000E+00 0.9000E+01
       11  1    4    4    0    0 0.29005220E+03 0.68536684E+01 0.38307308E+02 0.29265116E+03 0.51099893E-03 0.0000E+00 0.9000E+01
      -24  1    3    3    0    0 0.11435521E+02 0.43175609E+02 -.15308466E+01 0.92002521E+02 0.80419002E+02 0.0000E+00 0.9000E+01
#aMCatNLO 1  0  0  2  1 0.12847834D+03 0.00000000D+00  -5  7  0 0.00000000D+00 0.00000000D+00 0.00000000D+00 0.00000000D+00 0.00000000D+00
  <mgrwgt>
 0.6148132142D-04    4    2    0
 0.381597957014453D+03 0.000000000000000D+00 0.000000000000000D+00 0.381597957014453D+03
 0.381597957014453D+03 0.000000000000000D+00 0.000000000000000D+00 -.381597957014453D+03
 0.342492853008324D+03 -.320518857380787D+03 -.769437971413091D+02 -.467060226545005D+02
 0.365689175144110D+02 0.190311335653814D+02 0.269145195879701D+02 0.158338346189792D+02
 0.292097254115077D+03 0.290052203209908D+03 0.685366839962747D+01 0.338164531569182D+02
 0.920368893910938D+02 0.114355206054974D+02 0.431756091537116D+02 -.294426512139697D+01
 0.000000000000000D+00 -.000000000000000D+00 -.000000000000000D+00 0.000000000000000D+00
 0.535118377006607D+03 0.000000000000000D+00 0.000000000000000D+00 0.535118377006607D+03
 0.414821749673025D+03 0.000000000000000D+00 0.000000000000000D+00 -.414821749673025D+03
 0.298139086976616D+03 -.280171308549313D+03 -.417406821032239D+02 -.467060226545005D+02
 0.424762723671954D+02 0.240094673941884D+02 0.312581008847048D+02 0.158338346189792D+02
 0.333758278995568D+03 0.329469121267762D+03 0.412448108859577D+02 0.338164531569182D+02
 0.995609116507307D+02 0.235025143831099D+02 0.537040249415321D+02 -.294426512139697D+01
 0.176005576689522D+03 -.968097944957473D+02 -.844662546089708D+02 0.120296627333582D+03
0.416131388692D-04 0.000000000000D+00 0.000000000000D+00 0.177992613727D-06 0.000000000000D+00  7 4 -4 24 -11 11 -24 21 0 0.59616100D-01 0.57812508D-01 0.14227208D+06 0.14227208D+06 0.14227208D+06 0.11093693D+01  1  2  2  2  7  2       -4 0.716586845762D-04 0.100000000000D+01
-.231146155902D-05 0.000000000000D+00 -.159805410249D-06 0.177992613727D-06 0.000000000000D+00  7 4 -4 24 -11 11 -24 21 2 0.59616100D-01 0.57812508D-01 0.14227208D+06 0.14227208D+06 0.14227208D+06 0.11093693D+01  1  2  3  2  7  2       -4 -.489865982319D-05 0.100000000000D+01
0.269537511899D-05 0.000000000000D+00 0.000000000000D+00 0.177992613727D-06 0.000000000000D+00  7 4 -4 24 -11 11 -24 21 2 0.59616100D-01 0.57812508D-01 0.14227208D+06 0.14227208D+06 0.14227208D+06 0.11093693D+01  1  2 15  2  7  2       -4 0.571228439959D-05 0.100000000000D+01
-.518616245208D-05 0.000000000000D+00 0.000000000000D+00 0.177992613727D-06 0.000000000000D+00  7 4 -4 24 -11 11 -24 21 2 0.59616100D-01 0.57812508D-01 0.14227208D+06 0.14227208D+06 0.14227208D+06 0.11093693D+01  1  2  4  2  7  2       -4 -.109909877330D-04 0.100000000000D+01
  </mgrwgt>
  </event>
  <event>
  8     66 0.26993063E-05 0.22623450E+03 0.75467711E-02 0.98677635E-01
        2 -1    0    0  501    0 0.00000000E+00 0.00000000E+00 0.21576640E+03 0.21576663E+03 0.32000000E+00 0.0000E+00 0.9000E+01
       -2 -1    0    0    0  501 0.00000000E+00 0.00000000E+00 -.60702845E+03 0.60702853E+03 0.32000000E+00 0.0000E+00 0.9000E+01
       25  2    1    2    0    0 -.20717495E+03 0.20427541E+03 -.21058685E+03 0.46838291E+03 0.30064236E+03 0.0000E+00 0.0000E+00
       23  2    1    2    0    0 0.20717495E+03 -.20427541E+03 -.18067521E+03 0.35441226E+03 0.91184520E+02 0.0000E+00 0.0000E+00
       24  1    3    3    0    0 -.21725015E+03 0.16200477E+03 -.24159489E+03 0.37185814E+03 0.80419002E+02 0.0000E+00 0.9000E+01
      -13  1    4    4    0    0 -.72605566E+01 -.19429248E+02 -.53838922E+01 0.21429158E+02 0.10565837E+00 0.0000E+00 0.9000E+01
       13  1    4    4    0    0 0.21443551E+03 -.18484616E+03 -.17529131E+03 0.33298310E+03 0.10565837E+00 0.0000E+00 0.9000E+01
      -24  1    3    3    0    0 0.10075201E+02 0.42270635E+02 0.31008040E+02 0.96524768E+02 0.80419002E+02 0.0000E+00 0.9000E+01
#aMCatNLO 1  0  0  1  2 0.32247798D+02 0.00000000D+00  -5  7  0 0.00000000D+00 0.00000000D+00 0.00000000D+00 0.00000000D+00 0.00000000D+00
  <mgrwgt>
 0.7606552868D-03    9    2    0
 0.361906719065419D+03 0.000000000000000D+00 0.000000000000000D+00 0.361906719065419D+03
 0.361906719065419D+03 0.000000000000000D+00 0.000000000000000D+00 -.361906719065419D+03
 0.292114183526043D+03 -.217250149909681D+03 0.162004770411215D+03 -.736227341990732D+02
 0.214489522124895D+02 -.726085415610563D+01 -.194290255784781D+02 0.546356230020916D+01
 0.283764143334196D+03 0.214435803212876D+03 -.184846380429401D+03 -.192663173644535D+02
 0.126486159058110D+03 0.100752008529100D+02 0.422706355966647D+02 0.874254892633175D+02
 0.000000000000000D+00 -.000000000000000D+00 0.000000000000000D+00 0.000000000000000D+00
 0.458597627163735D+03 0.000000000000000D+00 0.000000000000000D+00 0.458597627163735D+03
 0.364964517705398D+03 0.000000000000000D+00 0.000000000000000D+00 -.364964517705398D+03
 0.281220017326100D+03 -.210646625152347D+03 0.151080026845048D+03 -.736227341990732D+02
 0.220436865365685D+02 -.675991645464932D+01 -.202577672175485D+02 0.546356230020916D+01
 0.296035619750365D+03 0.221113796753353D+03 -.195894323709269D+03 -.192663173644535D+02
 0.125232120630941D+03 0.129744311610435D+02 0.374742050812129D+02 0.874254892633175D+02
 0.990307006251593D+02 -.166816863073998D+02 0.275978590005563D+02 0.936331094583366D+02
0.334573030569D-04 0.000000000000D+00 0.000000000000D+00 0.958352022893D-06 0.000000000000D+00  7 2 -2 24 -13 13 -24 21 0 0.33194855D-01 0.93389017D-01 0.11490189D+06 0.11490189D+06 0.11490189D+06 0.11168049D+01  1  2  2  1  7  1        2 0.643482594927D-03 0.100000000000D+01
-.184905230122D-05 0.000000000000D+00 -.128484853249D-06 0.958352022893D-06 0.000000000000D+00  7 2 -2 24 -13 13 -24 21 2 0.33194855D-01 0.93389017D-01 0.11490189D+06 0.11490189D+06 0.11490189D+06 0.11168049D+01  1  2  3  1  7  1        2 -.443557232081D-04 0.100000000000D+01
0.212860153997D-05 0.000000000000D+00 0.000000000000D+00 0.958352022893D-06 0.000000000000D+00  7 2 -2 24 -13 13 -24 21 2 0.33194855D-01 0.93389017D-01 0.11490189D+06 0.11490189D+06 0.11490189D+06 0.11168049D+01  1  2 15  1  7  1        2 0.510616496161D-04 0.100000000000D+01
0.330546725524D-03 0.000000000000D+00 0.000000000000D+00 0.958352022893D-06 0.000000000000D+00  7 2 -2 24 -13 13 -24 21 2 0.42178123D-01 0.93389017D-01 0.12605655D+06 0.12605655D+06 0.12605655D+06 0.11135617D+01  1  2 12  1  7  1        2 0.602987078000D-02 0.100000000000D+01
-.326032848461D-03 0.000000000000D+00 0.000000000000D+00 0.958352022893D-06 0.000000000000D+00  7 2 -2 24 -13 13 -24 21 2 0.33194855D-01 0.93389017D-01 0.11490189D+06 0.11490189D+06 0.11490189D+06 0.11168049D+01  1  2  4  1  7  1        2 -.782099174454D-02 0.100000000000D+01
-.370359483578D-03 0.000000000000D+00 -.221931810327D-04 0.958352022893D-06 0.000000000000D+00  7 2 -2 24 -13 13 -24 21 2 0.42260620D-01 0.93389017D-01 0.11490189D+06 0.11490189D+06 0.11490189D+06 0.11168049D+01  1  2  5  1  7  1        2 -.679290784085D-02 0.100000000000D+01
0.365639009980D-03 0.000000000000D+00 0.215615657915D-04 0.958352022893D-06 0.000000000000D+00  7 2 -2 24 -13 13 -24 21 2 0.33194855D-01 0.93389017D-01 0.11490189D+06 0.11490189D+06 0.11490189D+06 0.11168049D+01  1  2  6  1  7  1        2 0.877107841136D-02 0.100000000000D+01
0.108373008603D-04 0.000000000000D+00 0.000000000000D+00 0.958352022893D-06 0.000000000000D+00  7 21 -2 24 -13 13 -24 -2 2 0.42178123D-01 0.93389017D-01 0.12605655D+06 0.12605655D+06 0.12605655D+06 0.11135617D+01  1  2 12  3  7  1        2 0.750279254095D-03 0.100000000000D+01
-.118647947317D-04 0.000000000000D+00 -.732026762158D-06 0.958352022893D-06 0.000000000000D+00  7 21 -2 24 -13 13 -24 -2 2 0.42260620D-01 0.93389017D-01 0.11490189D+06 0.11490189D+06 0.11490189D+06 0.11168049D+01  1  2  5  3  7  1        2 -.826862094566D-03 0.100000000000D+01
  </mgrwgt>
  </event>
  <event>
  8     66 0.26993063E-05 0.37692602E+03 0.75467711E-02 0.89537618E-01
        2 -1    0    0  501    0 0.00000000E+00 0.00000000E+00 0.33015940E+04 0.33015940E+04 0.32000000E+00 0.0000E+00 0.9000E+01
       -2 -1    0    0    0  501 0.00000000E+00 0.00000000E+00 -.83537706E+02 0.83538319E+02 0.32000000E+00 0.0000E+00 0.9000E+01
       25  2    1    2    0    0 0.13704226E+03 -.29545576E+03 0.59696768E+03 0.74226025E+03 0.29749821E+03 0.0000E+00 0.0000E+00
       23  2    1    2    0    0 -.13704226E+03 0.29545576E+03 0.26210886E+04 0.26428721E+04 0.92696525E+02 0.0000E+00 0.0000E+00
       24  1    3    3    0    0 0.12316388E+03 -.29595268E+02 0.12889885E+03 0.19780634E+03 0.80419002E+02 0.0000E+00 0.9000E+01
      -13  1    4    4    0    0 -.63356055E+02 0.13278912E+03 0.83352108E+03 0.84640672E+03 0.10565837E+00 0.0000E+00 0.9000E+01
       13  1    4    4    0    0 -.73686201E+02 0.16266664E+03 0.17875675E+04 0.17964654E+04 0.10565837E+00 0.0000E+00 0.9000E+01
      -24  1    3    3    0    0 0.13878377E+02 -.26586049E+03 0.46806883E+03 0.54445391E+03 0.80419002E+02 0.0000E+00 0.9000E+01
#aMCatNLO 1  0  0  1  1 0.64291710D+03 0.00000000D+00  -5  7  0 0.00000000D+00 0.00000000D+00 0.00000000D+00 0.00000000D+00 0.00000000D+00
  <mgrwgt>
 0.9293883376D-03    3    2    0
 0.525174877778962D+03 0.000000000000000D+00 0.000000000000000D+00 0.525174877778962D+03
 0.525174877778962D+03 0.000000000000000D+00 0.000000000000000D+00 -.525174877778962D+03
 0.242582912560732D+03 0.123163878644949D+03 -.295952681694195D+02 -.190614880350905D+03
 0.174114212707072D+03 -.633560411175937D+02 0.132789080211374D+03 0.931065588297983D+02
 0.313019746408261D+03 -.736862146868125D+02 0.162666676416002D+03 0.257082196564431D+03
 0.320632883881857D+03 0.138783771594571D+02 -.265860488457957D+03 -.159573875043325D+03
 0.000000000000000D+00 0.000000000000000D+00 0.000000000000000D+00 -.000000000000000D+00
 0.776583966565731D+03 0.000000000000000D+00 0.000000000000000D+00 0.776583966565731D+03
 0.125823315033865D+04 0.000000000000000D+00 0.000000000000000D+00 -.125823315033865D+04
 0.211749419794074D+03 -.392061574323495D+01 -.449577244726716D+02 -.190614880350905D+03
 0.232887491385433D+03 -.177201352349664D+03 0.119027026645731D+03 0.931065588297983D+02
 0.399831403876729D+03 -.273082827158707D+03 0.138562856663143D+03 0.257082196564431D+03
 0.387025495955881D+03 -.184065728942612D+03 -.289788723724729D+03 -.159573875043325D+03
 0.803323305892268D+03 0.638270524194218D+03 0.771565648885266D+02 -.481649183772922D+03
0.148160421358D-03 0.000000000000D+00 0.000000000000D+00 0.146818673769D-06 0.000000000000D+00  7 2 -2 24 -13 13 -24 21 0 0.50793759D+00 0.12852003D-01 0.14207322D+06 0.14207322D+06 0.14207322D+06 0.11094174D+01  1  2  2  1  7  1        2 0.910623570972D-03 0.100000000000D+01
-.713013784013D-05 0.000000000000D+00 -.568975029549D-06 0.146818673769D-06 0.000000000000D+00  7 2 -2 24 -13 13 -24 21 2 0.50793759D+00 0.12852003D-01 0.14207322D+06 0.14207322D+06 0.14207322D+06 0.11094174D+01  1  2  3  1  7  1        2 -.539379682785D-04 0.100000000000D+01
0.961067940620D-05 0.000000000000D+00 0.000000000000D+00 0.146818673769D-06 0.000000000000D+00  7 2 -2 24 -13 13 -24 21 2 0.50793759D+00 0.12852003D-01 0.14207322D+06 0.14207322D+06 0.14207322D+06 0.11094174D+01  1  2 15  1  7  1        2 0.727027348657D-04 0.100000000000D+01
  </mgrwgt>
  </event>
  <event>
  8     66 0.26993063E-05 0.29663739E+03 0.75467711E-02 0.94500691E-01
        2 -1    0    0  501    0 0.00000000E+00 0.00000000E+00 0.70765520E+03 0.70765527E+03 0.32000000E+00 0.0000E+00 0.9000E+01
       -2 -1    0    0    0  501 0.00000000E+00 0.00000000E+00 -.20909775E+03 0.20909799E+03 0.32000000E+00 0.0000E+00 0.9000E+01
       25  2    1    2    0    0 0.17271693E+03 0.12084799E+03 0.56812197E+03 0.67556564E+03 0.29864860E+03 0.0000E+00 0.0000E+00
       23  2    1    2    0    0 -.17271693E+03 -.12084799E+03 -.69564528E+02 0.24118762E+03 0.94323224E+02 0.0000E+00 0.0000E+00
       24  1    3    3    0    0 -.52603790E+02 0.25437486E+01 0.11723127E+03 0.15160480E+03 0.80419002E+02 0.0000E+00 0.9000E+01
      -13  1    4    4    0    0 -.60526167E+02 -.98873837E+02 -.44314938E+02 0.12410994E+03 0.10565837E+00 0.0000E+00 0.9000E+01
       13  1    4    4    0    0 -.11219076E+03 -.21974156E+02 -.25249590E+02 0.11707768E+03 0.10565837E+00 0.0000E+00 0.9000E+01
      -24  1    3    3    0    0 0.22532072E+03 0.11830424E+03 0.45089071E+03 0.52396084E+03 0.80419002E+02 0.0000E+00 0.9000E+01
#aMCatNLO 1  0  0  2  2 0.33562141D+03 0.00000000D+00  -5  7  0 0.00000000D+00 0.00000000D+00 0.00000000D+00 0.00000000D+00 0.00000000D+00
  <mgrwgt>
 0.8826695139D-03    3    2    0
 0.384667719752700D+03 0.000000000000000D+00 0.000000000000000D+00 0.384667719752700D+03
 0.384667719752700D+03 0.000000000000000D+00 0.000000000000000D+00 -.384667719752700D+03
 0.104684731454324D+03 -.526037896204701D+02 0.254374872288321D+01 0.414493390211896D+02
 0.176609250120423D+03 -.605261047528250D+02 -.988739304754726D+02 -.133234243886020D+03
 0.155874394400498D+03 -.112190822865449D+03 -.219740622893363D+02 -.105958419585231D+03
 0.332167063530156D+03 0.225320717238744D+03 0.118304244041926D+03 0.197743324450062D+03
 0.000000000000000D+00 0.000000000000000D+00 0.000000000000000D+00 0.000000000000000D+00
 0.809408192541974D+03 0.000000000000000D+00 0.000000000000000D+00 0.809408192541974D+03
 0.491934317694067D+03 0.000000000000000D+00 0.000000000000000D+00 -.491934317694067D+03
 0.125065852490486D+03 -.772610700772638D+02 -.385607423427503D+02 0.414493390211896D+02
 0.243254937225944D+03 -.105586747661354D+03 -.173991492490914D+03 -.133234243886020D+03
 0.203458705262907D+03 -.150755151467713D+03 -.862620563875317D+02 -.105958419585231D+03
 0.267576658005790D+03 0.160955052132685D+03 0.110045801182596D+02 0.197743324450062D+03
 0.461986357250914D+03 0.172647917073646D+03 0.287809711102937D+03 0.317473874847907D+03
0.196683617920D-04 0.000000000000D+00 0.000000000000D+00 0.386321012637D-07 0.000000000000D+00  7 2 -2 24 -13 13 -24 21 0 0.10887005D+00 0.32168909D-01 0.87993742D+05 0.87993742D+05 0.87993742D+05 0.11263091D+01  1  2  2  2  7  2       -2 0.870826367485D-03 0.100000000000D+01
-.100296713186D-05 0.000000000000D+00 -.755316880800D-07 0.386321012637D-07 0.000000000000D+00  7 2 -2 24 -13 13 -24 21 2 0.10887005D+00 0.32168909D-01 0.87993742D+05 0.87993742D+05 0.87993742D+05 0.11263091D+01  1  2  3  2  7  2       -2 -.563333117767D-04 0.100000000000D+01
0.121382437046D-05 0.000000000000D+00 0.000000000000D+00 0.386321012637D-07 0.000000000000D+00  7 2 -2 24 -13 13 -24 21 2 0.10887005D+00 0.32168909D-01 0.87993742D+05 0.87993742D+05 0.87993742D+05 0.11263091D+01  1  2 15  2  7  2       -2 0.681764581626D-04 0.100000000000D+01
  </mgrwgt>
  </event>
  <event>
  7     66 0.26993063E-05 0.51458832E+03 0.75467711E-02 0.88198643E-01
        2 -1    0    0  501    0 0.00000000E+00 0.00000000E+00 0.25579619E+04 0.25579619E+04 0.32000000E+00 0.0000E+00 0.9000E+01
       -2 -1    0    0    0  501 0.00000000E+00 0.00000000E+00 -.19840735E+03 0.19840761E+03 0.32000000E+00 0.0000E+00 0.9000E+01
       23  2    1    2    0    0 -.17818517E+03 0.52183323E+03 0.81523292E+03 0.98834714E+03 0.90363114E+02 0.0000E+00 0.0000E+00
       24  1    1    2    0    0 0.22157106E+03 -.55649744E+03 0.15563324E+04 0.16695571E+04 0.80419002E+02 0.0000E+00 0.9000E+01
      -13  1    3    3    0    0 -.18798212E+03 0.50290292E+03 0.77474962E+03 0.94259514E+03 0.10565837E+00 0.0000E+00 0.9000E+01
       13  1    3    3    0    0 0.97969470E+01 0.18930311E+02 0.40483301E+02 0.45752002E+02 0.10565837E+00 0.0000E+00 0.9000E+01
      -24  1    1    2    0    0 -.43385884E+02 0.34664212E+02 -.12010747E+02 0.98465306E+02 0.80419002E+02 0.0000E+00 0.9000E+01
#aMCatNLO 1  0  0  1  2 0.49095204D+03 0.00000000D+00  -5  7  0 0.00000000D+00 0.00000000D+00 0.00000000D+00 0.00000000D+00 0.00000000D+00
  <mgrwgt>
 0.2408359841D-01    8    2    0
 0.712403553102697D+03 0.000000000000000D+00 0.000000000000000D+00 0.712403553102697D+03
 0.712403553102697D+03 0.000000000000000D+00 0.000000000000000D+00 -.712403553102697D+03
 0.652483703820171D+03 0.221570522979298D+03 -.556498540837702D+03 0.245934229396209D+03
 0.540486573427360D+03 -.187984998675767D+03 0.502911213751904D+03 -.621907341225966D+02
 0.214668797022919D+02 0.979711383969564D+01 0.189299521517008D+02 0.254958743702517D+01
 0.210369949255571D+03 -.433826381432266D+02 0.346573749340973D+02 -.186293082710638D+03
 0.000000000000000D+00 0.000000000000000D+00 -.000000000000000D+00 0.000000000000000D+00
 0.111705912984904D+04 0.000000000000000D+00 0.000000000000000D+00 0.111705912984904D+04
 0.919260553701345D+03 0.000000000000000D+00 0.000000000000000D+00 -.919260553701345D+03
 0.497456164384193D+03 0.219210259074783D+03 -.363948673108067D+03 0.245934229396209D+03
 0.745744470161576D+03 -.190625001678524D+03 0.718282142407094D+03 -.621907341225966D+02
 0.291864503057916D+02 0.969314733695297D+01 0.274115191125470D+02 0.254958743702517D+01
 0.234632887592322D+03 -.442960112353857D+02 0.109170173162558D+03 -.186293082710638D+03
 0.529299711106502D+03 0.601760650217422D+01 -.490915161574132D+03 0.197798576147696D+03
0.386077572777D-02 0.000000000000D+00 0.000000000000D+00 0.141203415263D-09 0.000000000000D+00  7 2 -2 24 -13 13 -24 21 0 0.39353263D+00 0.30524229D-01 0.39708780D+06 0.39708780D+06 0.39708780D+06 0.10756565D+01  1  2  2  1  7  1        2 0.153346508651D-01 0.100000000000D+01
-.210562093321D-03 0.000000000000D+00 -.148263953602D-04 0.141203415263D-09 0.000000000000D+00  7 2 -2 24 -13 13 -24 21 2 0.39353263D+00 0.30524229D-01 0.39708780D+06 0.39708780D+06 0.39708780D+06 0.10756565D+01  1  2  3  1  7  1        2 -.967668700521D-03 0.100000000000D+01
0.246178600932D-03 0.000000000000D+00 0.000000000000D+00 0.141203415263D-09 0.000000000000D+00  7 2 -2 24 -13 13 -24 21 2 0.39353263D+00 0.30524229D-01 0.39708780D+06 0.39708780D+06 0.39708780D+06 0.10756565D+01  1  2 15  1  7  1        2 0.113134953734D-02 0.100000000000D+01
0.135087255056D-03 0.000000000000D+00 0.000000000000D+00 0.141203415263D-09 0.000000000000D+00  7 2 -2 24 -13 13 -24 21 2 0.64802752D+00 0.30524229D-01 0.84477142D+06 0.84477142D+06 0.84477142D+06 0.10527758D+01  1  2 12  1  7  1        2 0.375912008383D-04 0.100000000000D+01
-.162990747751D-02 0.000000000000D+00 -.956651239928D-03 0.141203415263D-09 0.000000000000D+00  7 2 -2 24 -13 13 -24 21 2 0.65064065D+00 0.30524229D-01 0.39708780D+06 0.39708780D+06 0.39708780D+06 0.10756565D+01  1  2  5  1  7  1        2 -.489188631257D-03 0.100000000000D+01
0.196643776760D-02 0.000000000000D+00 0.847279296159D-03 0.141203415263D-09 0.000000000000D+00  7 2 -2 24 -13 13 -24 21 2 0.39353263D+00 0.30524229D-01 0.39708780D+06 0.39708780D+06 0.39708780D+06 0.10756565D+01  1  2  6  1  7  1        2 0.903705054038D-02 0.100000000000D+01
0.760171289793D-05 0.000000000000D+00 0.000000000000D+00 0.141203415263D-09 0.000000000000D+00  7 21 -2 24 -13 13 -24 -2 2 0.64802752D+00 0.30524229D-01 0.84477142D+06 0.84477142D+06 0.84477142D+06 0.10527758D+01  1  2 12  3  7  1        2 0.312282809900D-07 0.100000000000D+01
-.488852648403D-04 0.000000000000D+00 -.541774460898D-04 0.141203415263D-09 0.000000000000D+00  7 21 -2 24 -13 13 -24 -2 2 0.65064065D+00 0.30524229D-01 0.39708780D+06 0.39708780D+06 0.39708780D+06 0.10756565D+01  1  2  5  3  7  1        2 -.217626805926D-06 0.100000000000D+01
  </mgrwgt>
  </event>
  <event>
  8     66 0.26993063E-05 0.25796858E+03 0.75467711E-02 0.98193754E-01
        2 -1    0    0  501    0 0.00000000E+00 0.00000000E+00 0.16991347E+04 0.16991347E+04 0.32000000E+00 0.0000E+00 0.9000E+01
       -2 -1    0    0    0  501 0.00000000E+00 0.00000000E+00 -.11582257E+03 0.11582302E+03 0.32000000E+00 0.0000E+00 0.9000E+01
       25  2    1    2    0    0 0.16394202E+03 0.99754523E+02 0.18632924E+03 0.40190361E+03 0.29996663E+03 0.0000E+00 0.0000E+00
       23  2    1    2    0    0 -.16394202E+03 -.99754523E+02 0.13969829E+04 0.14130541E+04 0.91284461E+02 0.0000E+00 0.0000E+00
       24  1    3    3    0    0 0.46598195E+01 -.29958214E+02 0.15750899E+03 0.17943106E+03 0.80419002E+02 0.0000E+00 0.9000E+01
      -13  1    4    4    0    0 -.64469515E+02 -.88205155E+02 0.84843696E+03 0.85544243E+03 0.10565837E+00 0.0000E+00 0.9000E+01
       13  1    4    4    0    0 -.99472504E+02 -.11549368E+02 0.54854592E+03 0.55761170E+03 0.10565837E+00 0.0000E+00 0.9000E+01
      -24  1    3    3    0    0 0.15928220E+03 0.12971274E+03 0.28820255E+02 0.22247255E+03 0.80419002E+02 0.0000E+00 0.9000E+01
#aMCatNLO 1  0  0  1  2 0.19676273D+03 0.00000000D+00  -5  7  0 0.00000000D+00 0.00000000D+00 0.00000000D+00 0.00000000D+00 0.00000000D+00
  <mgrwgt>
 0.9297512343D-03    3    2    0
 0.443619861142701D+03 0.000000000000000D+00 0.000000000000000D+00 0.443619861142701D+03
 0.443619861142701D+03 0.000000000000000D+00 0.000000000000000D+00 -.443619861142701D+03
 0.859676383587468D+02 0.465981954514545D+01 -.299582139058428D+02 0.200259631184080D+01
 0.235845422384687D+03 -.644694678642069D+02 -.882052577592630D+02 0.209013357173028D+03
 0.161762564850308D+03 -.994725509841943D+02 -.115492655040353D+02 0.127039180782797D+03
 0.403664096691659D+03 0.159282199303256D+03 0.129712737169141D+03 -.338055134267666D+03
 0.000000000000000D+00 -.000000000000000D+00 -.000000000000000D+00 -.000000000000000D+00
 0.478893931943769D+03 0.000000000000000D+00 0.000000000000000D+00 0.478893931943769D+03
 0.849519148537138D+03 0.000000000000000D+00 0.000000000000000D+00 -.849519148537138D+03
 0.815230189436375D+02 0.620422721379569D+01 -.116740668151914D+02 0.200259631184080D+01
 0.220880258686226D+03 -.602580649377621D+02 -.383467183799467D+02 0.209013357173028D+03
 0.161283786650477D+03 -.964937862541320D+02 0.237161463289059D+02 0.127039180782797D+03
 0.445108784502207D+03 0.167108614028536D+03 0.222369178168634D+03 -.338055134267666D+03
 0.419617231698360D+03 -.165609900504371D+02 -.196064539302402D+03 -.370625216593369D+03
0.282924307267D-04 0.000000000000D+00 0.000000000000D+00 0.373272747050D-05 0.000000000000D+00  7 2 -2 24 -13 13 -24 21 0 0.26140537D+00 0.17818894D-01 0.66547791D+05 0.66547791D+05 0.66547791D+05 0.11365316D+01  1  2  2  1  7  1        2 0.899379528055D-03 0.100000000000D+01
-.101012491091D-05 0.000000000000D+00 -.108650383559D-06 0.373272747050D-05 0.000000000000D+00  7 2 -2 24 -13 13 -24 21 2 0.26140537D+00 0.17818894D-01 0.66547791D+05 0.66547791D+05 0.66547791D+05 0.11365316D+01  1  2  3  1  7  1        2 -.414773322321D-04 0.100000000000D+01
0.174978716576D-05 0.000000000000D+00 0.000000000000D+00 0.373272747050D-05 0.000000000000D+00  7 2 -2 24 -13 13 -24 21 2 0.26140537D+00 0.17818894D-01 0.66547791D+05 0.66547791D+05 0.66547791D+05 0.11365316D+01  1  2 15  1  7  1        2 0.718490384957D-04 0.100000000000D+01
  </mgrwgt>
  </event>
  <event>
  8     66 0.26993063E-05 0.18034132E+03 0.75467711E-02 0.10040211E+00
        2 -1    0    0  501    0 0.00000000E+00 0.00000000E+00 0.28893948E+04 0.28893948E+04 0.32000000E+00 0.0000E+00 0.9000E+01
       -2 -1    0    0    0  501 0.00000000E+00 0.00000000E+00 -.34475506E+02 0.34476991E+02 0.32000000E+00 0.0000E+00 0.9000E+01
       25  2    1    2    0    0 -.19843114E+03 -.86897349E+02 0.21075700E+04 0.21398599E+04 0.30037110E+03 0.0000E+00 0.0000E+00
       23  2    1    2    0    0 0.19843114E+03 0.86897349E+02 0.74734927E+03 0.78401194E+03 0.96008954E+02 0.0000E+00 0.0000E+00
       24  1    3    3    0    0 0.17865520E+02 -.16918458E+02 0.19793741E+03 0.21506243E+03 0.80419002E+02 0.0000E+00 0.9000E+01
      -11  1    4    4    0    0 0.13712564E+03 0.76996349E+02 0.37690136E+03 0.40839504E+03 0.51099893E-03 0.0000E+00 0.9000E+01
       11  1    4    4    0    0 0.61305501E+02 0.99009997E+01 0.37044792E+03 0.37561690E+03 0.51099893E-03 0.0000E+00 0.9000E+01
      -24  1    3    3    0    0 -.21629666E+03 -.69978891E+02 0.19096326E+04 0.19247974E+04 0.80419002E+02 0.0000E+00 0.9000E+01
#aMCatNLO 1  0  0  1  2 0.70064853D+02 0.00000000D+00  -5  7  0 0.00000000D+00 0.00000000D+00 0.00000000D+00 0.00000000D+00 0.00000000D+00
  <mgrwgt>
 0.1529046257D-02    9    2    0
 0.315619302365351D+03 0.000000000000000D+00 0.000000000000000D+00 0.315619302365351D+03
 0.315619302365351D+03 0.000000000000000D+00 0.000000000000000D+00 -.315619302365351D+03
 0.100943795015334D+03 0.178655202222430D+02 -.169184583626828D+02 -.558303031654496D+02
 0.187047807372568D+03 0.137125637764063D+03 0.769963492696460D+02 -.101266993190432D+03
 0.644078966387869D+02 0.613055010130249D+02 0.990099973802791D+01 0.170875071078913D+02
 0.278839105704013D+03 -.216296658999331D+03 -.699788906449911D+02 0.140009789247990D+03
 0.000000000000000D+00 0.000000000000000D+00 -.000000000000000D+00 0.000000000000000D+00
 0.362452318703997D+03 0.000000000000000D+00 0.000000000000000D+00 0.362452318703997D+03
 0.344894207106041D+03 0.000000000000000D+00 0.000000000000000D+00 -.344894207106041D+03
 0.988973299567944D+02 0.838256572443559D+01 -.112327983397741D+02 -.558303031654496D+02
 0.179537325512326D+03 0.119730268641692D+03 0.874260265211477D+02 -.101266993190432D+03
 0.595324918983744D+02 0.554242237478854D+02 0.134272154377633D+02 0.170875071078913D+02
 0.297148007376548D+03 -.243628668791751D+03 -.535915384270255D+02 0.140009789247990D+03
 0.722313710659938D+02 0.600916106777382D+02 -.360289051921114D+02 0.175581115979557D+02
0.171123397703D-04 0.000000000000D+00 0.000000000000D+00 0.104867509844D-06 0.000000000000D+00  7 2 -2 24 -11 11 -24 21 0 0.44452239D+00 0.53040396D-02 0.74147976D+05 0.74147976D+05 0.74147976D+05 0.11325404D+01  1  2  2  1  7  1        2 0.764417390786D-03 0.100000000000D+01
-.925494031738D-06 0.000000000000D+00 -.657158905004D-07 0.104867509844D-06 0.000000000000D+00  7 2 -2 24 -11 11 -24 21 2 0.44452239D+00 0.53040396D-02 0.74147976D+05 0.74147976D+05 0.74147976D+05 0.11325404D+01  1  2  3  1  7  1        2 -.530276245471D-04 0.100000000000D+01
0.109031789712D-05 0.000000000000D+00 0.000000000000D+00 0.104867509844D-06 0.000000000000D+00  7 2 -2 24 -11 11 -24 21 2 0.44452239D+00 0.53040396D-02 0.74147976D+05 0.74147976D+05 0.74147976D+05 0.11325404D+01  1  2 15  1  7  1        2 0.624714650802D-04 0.100000000000D+01
0.131390681835D-04 0.000000000000D+00 0.000000000000D+00 0.104867509844D-06 0.000000000000D+00  7 2 -2 24 -11 11 -24 21 2 0.52858646D+00 0.53040396D-02 0.95812329D+05 0.95812329D+05 0.95812329D+05 0.11232498D+01  1  2 12  1  7  1        2 0.326094501804D-03 0.100000000000D+01
-.124468619338D-04 0.000000000000D+00 0.000000000000D+00 0.104867509844D-06 0.000000000000D+00  7 2 -2 24 -11 11 -24 21 2 0.44452239D+00 0.53040396D-02 0.74147976D+05 0.74147976D+05 0.74147976D+05 0.11325404D+01  1  2  4  1  7  1        2 -.713162374668D-03 0.100000000000D+01
-.352699865207D-04 0.000000000000D+00 -.907703543967D-05 0.104867509844D-06 0.000000000000D+00  7 2 -2 24 -11 11 -24 21 2 0.52406370D+00 0.53040396D-02 0.74147976D+05 0.74147976D+05 0.74147976D+05 0.11325404D+01  1  2  5  1  7  1        2 -.942289011058D-03 0.100000000000D+01
0.363916183254D-04 0.000000000000D+00 0.895542689420D-05 0.104867509844D-06 0.000000000000D+00  7 2 -2 24 -11 11 -24 21 2 0.44452239D+00 0.53040396D-02 0.74147976D+05 0.74147976D+05 0.74147976D+05 0.11325404D+01  1  2  6  1  7  1        2 0.208511455184D-02 0.100000000000D+01
0.336214174553D-06 0.000000000000D+00 0.000000000000D+00 0.104867509844D-06 0.000000000000D+00  7 21 -2 24 -11 11 -24 -2 2 0.52858646D+00 0.53040396D-02 0.95812329D+05 0.95812329D+05 0.95812329D+05 0.11232498D+01  1  2 12  3  7  1        2 0.340575841505D-06 0.100000000000D+01
-.792496600010D-06 0.000000000000D+00 -.223096727100D-06 0.104867509844D-06 0.000000000000D+00  7 21 -2 24 -11 11 -24 -2 2 0.52406370D+00 0.53040396D-02 0.74147976D+05 0.74147976D+05 0.74147976D+05 0.11325404D+01  1  2  5  3  7  1        2 -.913217934906D-06 0.100000000000D+01
  </mgrwgt>
  </event>
  <event>
  9     66 0.26993063E-05 0.28571880E+03 0.75467711E-02 0.97764489E-01
        2 -1    0    0  501    0 0.00000000E+00 0.00000000E+00 0.18994844E+04 0.18994844E+04 0.32000000E+00 0.0000E+00 0.9000E+01
       21 -1    0    0  502  501 0.00000000E+00 0.00000000E+00 -.28696831E+03 0.28696929E+03 0.75000000E+00 0.0000E+00 0.9000E+01
       25  2    1    2    0    0 0.49385885E+02 0.31043530E+03 0.11261483E+04 0.12070052E+04 0.29973729E+03 0.0000E+00 0.0000E+00
       23  2    1    2    0    0 0.56472909E+02 -.17708409E+03 0.68612728E+03 0.71697463E+03 0.93455983E+02 0.0000E+00 0.0000E+00
       24  1    3    3    0    0 0.85483514E+02 0.39471683E+02 0.17703193E+03 0.21603927E+03 0.80419002E+02 0.0000E+00 0.9000E+01
      -11  1    4    4    0    0 0.42806264E+02 -.12062833E+03 0.59716068E+03 0.61072453E+03 0.51099893E-03 0.0000E+00 0.9000E+01
       11  1    4    4    0    0 0.13666645E+02 -.56455757E+02 0.88966599E+02 0.10625011E+03 0.51099893E-03 0.0000E+00 0.9000E+01
      -24  1    3    3    0    0 -.36097629E+02 0.27096361E+03 0.94911636E+03 0.99096589E+03 0.80419002E+02 0.0000E+00 0.9000E+01
        2  1    1    2  502    0 -.10585879E+03 -.13335121E+03 -.19975945E+03 0.26247394E+03 0.32000000E+00 0.0000E+00 0.9000E+01
#aMCatNLO 2  0  0  2  1 0.17026047D+03 0.00000000D+00  -5  7  0 0.00000000D+00 0.00000000D+00 0.00000000D+00 0.00000000D+00 0.00000000D+00
  <mgrwgt>
 0.6565378004D-03    2    2    0
 0.311595446341858D+03 0.000000000000000D+00 0.000000000000000D+00 0.311595446341858D+03
 0.311595446341858D+03 0.000000000000000D+00 0.000000000000000D+00 -.311595446341858D+03
 0.129192782834439D+03 0.624661166707642D+02 0.104764763299490D+02 -.788148900520612D+02
 0.167455040240822D+03 0.168587461796387D+02 -.153314639029554D+03 0.652042532243352D+02
 0.790653022056324D+02 0.149614443382143D+01 -.717870385375523D+02 -.331014299194023D+02
 0.247477767402823D+03 -.808210072842243D+02 0.214625201237158D+03 0.467120667471283D+02
 0.000000000000000D+00 -.000000000000000D+00 -.000000000000000D+00 -.000000000000000D+00
 0.328437210253117D+03 0.000000000000000D+00 0.000000000000000D+00 0.328437210253117D+03
 0.165965625102682D+04 0.000000000000000D+00 0.000000000000000D+00 -.165965625102682D+04
 0.146780270233370D+03 0.854835135669615D+02 0.394716833912516D+02 -.788148900520612D+02
 0.143649455048421D+03 0.428062637530453D+02 -.120628334485186D+03 0.652042532243352D+02
 0.668560721998713D+02 0.136666449699909D+02 -.564557573906287D+02 -.331014299194023D+02
 0.288744787855043D+03 -.360976285272746D+02 0.270963614889531D+03 0.467120667471283D+02
 0.134206287594323D+04 -.105858793762723D+03 -.133351206404968D+03 -.133121904077370D+04
-.645578687215D-05 0.000000000000D+00 0.000000000000D+00 0.351069141481D-06 0.000000000000D+00  7 2 21 24 -11 11 -24 2 2 0.27724340D+00 0.42968910D-01 0.14634894D+06 0.14634894D+06 0.14634894D+06 0.11083974D+01  1  2 13  4  7  2       -2 -.510555590501D-03 0.100000000000D+01
0.176224444083D-04 0.000000000000D+00 0.000000000000D+00 0.351069141481D-06 0.457755513445D-10  7 2 21 24 -11 11 -24 2 2 0.29222843D+00 0.44149045D-01 0.14634894D+06 0.14634894D+06 0.14634894D+06 0.11083974D+01  1  2  1  4  7  2       -2 0.116709339094D-02 0.100000000000D+01
  </mgrwgt>
  </event>
  <event>
  8     66 0.26993063E-05 0.18290321E+03 0.75467711E-02 0.98376247E-01
        2 -1    0    0  501    0 0.00000000E+00 0.00000000E+00 0.94541394E+03 0.94541399E+03 0.32000000E+00 0.0000E+00 0.9000E+01
       -2 -1    0    0    0  501 0.00000000E+00 0.00000000E+00 -.64764123E+02 0.64764914E+02 0.32000000E+00 0.0000E+00 0.9000E+01
       25  2    1    2    0    0 0.44594356E+02 0.63550215E+01 0.85400124E+03 0.90724706E+03 0.30290274E+03 0.0000E+00 0.0000E+00
       23  2    1    2    0    0 -.44594356E+02 -.63550215E+01 0.26648580E+02 0.10293185E+03 0.88632816E+02 0.0000E+00 0.0000E+00
       24  1    3    3    0    0 0.24028214E+02 0.11511516E+03 0.62023409E+03 0.63638542E+03 0.80419002E+02 0.0000E+00 0.9000E+01
      -11  1    4    4    0    0 0.18259766E+02 0.11002176E+02 0.30952173E+02 0.37583293E+02 0.51099893E-03 0.0000E+00 0.9000E+01
       11  1    4    4    0    0 -.62854122E+02 -.17357197E+02 -.43035928E+01 0.65348557E+02 0.51099893E-03 0.0000E+00 0.9000E+01
      -24  1    3    3    0    0 0.20566141E+02 -.10876014E+03 0.23376714E+03 0.27086164E+03 0.80419002E+02 0.0000E+00 0.9000E+01
#aMCatNLO 1  0  0  1  2 0.25998690D+03 0.00000000D+00  -5  7  0 0.00000000D+00 0.00000000D+00 0.00000000D+00 0.00000000D+00 0.00000000D+00
  <mgrwgt>
 0.1231042638D-02    3    2    0
 0.247445613172297D+03 0.000000000000000D+00 0.000000000000000D+00 0.247445613172297D+03
 0.247445613172297D+03 0.000000000000000D+00 0.000000000000000D+00 -.247445613172297D+03
 0.195303698877886D+03 0.240282142748815D+02 0.115115160474450D+03 0.133594399540982D+03
 0.216367239940126D+02 0.182597661541458D+02 0.110021759004997D+02 -.369876880102746D+01
 0.141048553680798D+03 -.628541218666172D+02 -.173571973937612D+02 -.125071106009563D+03
 0.136902249791898D+03 0.205661414375899D+02 -.108760138981189D+03 -.482452473039183D+01
 0.000000000000000D+00 0.000000000000000D+00 -.000000000000000D+00 -.000000000000000D+00
 0.351531798149040D+03 0.000000000000000D+00 0.000000000000000D+00 0.351531798149040D+03
 0.514151160343803D+03 0.000000000000000D+00 0.000000000000000D+00 -.514151160343803D+03
 0.229163147782528D+03 -.745257668781392D+02 0.150489131932296D+03 0.133594399540982D+03
 0.173646903477476D+02 0.920430120035621D+01 0.142524531096518D+02 -.369876880102746D+01
 0.187325774324740D+03 -.139097054825960D+03 0.100086715727973D+02 -.125071106009563D+03
 0.125172786344740D+03 -.402832237726711D+02 -.869194818814645D+02 -.482452473039183D+01
 0.306656559693086D+03 0.244701744276414D+03 -.878307747332807D+02 -.162619362194763D+03
0.582762100064D-05 0.000000000000D+00 0.000000000000D+00 0.648877497437D-08 0.000000000000D+00  7 2 -2 24 -11 11 -24 21 0 0.14544836D+00 0.99637762D-02 0.33453584D+05 0.33453584D+05 0.33453584D+05 0.11629707D+01  1  2  2  1  7  1        2 0.121097413716D-02 0.100000000000D+01
-.287799502353D-06 0.000000000000D+00 -.223795990903D-07 0.648877497437D-08 0.000000000000D+00  7 2 -2 24 -11 11 -24 21 2 0.14544836D+00 0.99637762D-02 0.33453584D+05 0.33453584D+05 0.33453584D+05 0.11629707D+01  1  2  3  1  7  1        2 -.808855837889D-04 0.100000000000D+01
0.359205361089D-06 0.000000000000D+00 0.000000000000D+00 0.648877497437D-08 0.000000000000D+00  7 2 -2 24 -11 11 -24 21 2 0.14544836D+00 0.99637762D-02 0.33453584D+05 0.33453584D+05 0.33453584D+05 0.11629707D+01  1  2 15  1  7  1        2 0.100954084681D-03 0.100000000000D+01
  </mgrwgt>
  </event>
  <event>
  8     66 0.26993063E-05 0.29196955E+03 0.75467711E-02 0.91039050E-01
        2 -1    0    0  501    0 0.00000000E+00 0.00000000E+00 0.43896040E+04 0.43896040E+04 0.32000000E+00 0.0000E+00 0.9000E+01
       -2 -1    0    0    0  501 0.00000000E+00 0.00000000E+00 -.82027535E+02 0.82028159E+02 0.32000000E+00 0.0000E+00 0.9000E+01
       25  2    1    2    0    0 0.44029544E+02 -.54744963E+03 0.26616453E+04 0.27340939E+04 0.29878708E+03 0.0000E+00 0.0000E+00
       23  2    1    2    0    0 -.44029544E+02 0.54744963E+03 0.16459311E+04 0.17375383E+04 0.91161079E+02 0.0000E+00 0.0000E+00
       24  1    3    3    0    0 -.83826398E+01 -.95068897E+02 0.10506513E+04 0.10580377E+04 0.80419002E+02 0.0000E+00 0.9000E+01
      -11  1    4    4    0    0 -.51383495E+02 0.33203239E+03 0.88363753E+03 0.94535764E+03 0.51099893E-03 0.0000E+00 0.9000E+01
       11  1    4    4    0    0 0.73539508E+01 0.21541724E+03 0.76229355E+03 0.79218062E+03 0.51099893E-03 0.0000E+00 0.9000E+01
      -24  1    3    3    0    0 0.52412184E+02 -.45238073E+03 0.16109940E+04 0.16760562E+04 0.80419002E+02 0.0000E+00 0.9000E+01
#aMCatNLO 1  0  0  2  1 0.22839335D+03 0.00000000D+00  -5  7  0 0.00000000D+00 0.00000000D+00 0.00000000D+00 0.00000000D+00 0.00000000D+00
  <mgrwgt>
 0.2859630038D-03    8    2    0
 0.600058173987430D+03 0.000000000000000D+00 0.000000000000000D+00 0.600058173987430D+03
 0.600058173987430D+03 0.000000000000000D+00 0.000000000000000D+00 -.600058173987430D+03
 0.171145502230359D+03 -.838263981704634D+01 -.950688969124044D+02 0.117111925818286D+03
 0.350762137352069D+03 -.513834949689470D+02 0.332032389058678D+03 -.100738801166951D+03
 0.215564566596345D+03 0.735395081495380D+01 0.215417241402173D+03 -.306820565787862D+01
 0.462644141796087D+03 0.524121839710395D+02 -.452380733548447D+03 -.133049189934555D+02
 0.000000000000000D+00 -.000000000000000D+00 0.000000000000000D+00 -.000000000000000D+00
 0.712849998535636D+03 0.000000000000000D+00 0.000000000000000D+00 0.712849998535636D+03
 0.738651925574468D+03 0.000000000000000D+00 0.000000000000000D+00 -.738651925574468D+03
 0.174682987262095D+03 0.240216740178218D+02 -.987658143942157D+02 0.117111925818286D+03
 0.340179220655408D+03 0.133580786336894D+02 0.324646204105920D+03 -.100738801166951D+03
 0.216177008946319D+03 0.478083666150441D+02 0.210801910315394D+03 -.306820565787862D+01
 0.490616533646886D+03 0.141733217466073D+03 -.462571120294607D+03 -.133049189934555D+02
 0.229846173599396D+03 -.226921336732629D+03 0.258888202675086D+02 -.258019270388314D+02
0.373790159166D-03 0.000000000000D+00 0.000000000000D+00 0.122761928767D-05 0.000000000000D+00  7 2 -2 24 -11 11 -24 21 0 0.67532373D+00 0.12619670D-01 0.32420637D+06 0.32420637D+06 0.32420637D+06 0.10820673D+01  1  2  2  2  7  2       -2 0.309180329607D-03 0.100000000000D+01
-.206966376579D-04 0.000000000000D+00 -.143545263241D-05 0.122761928767D-05 0.000000000000D+00  7 2 -2 24 -11 11 -24 21 2 0.67532373D+00 0.12619670D-01 0.32420637D+06 0.32420637D+06 0.32420637D+06 0.10820673D+01  1  2  3  2  7  2       -2 -.200443680528D-04 0.100000000000D+01
0.237174784766D-04 0.000000000000D+00 0.000000000000D+00 0.122761928767D-05 0.000000000000D+00  7 2 -2 24 -11 11 -24 21 2 0.67532373D+00 0.12619670D-01 0.32420637D+06 0.32420637D+06 0.32420637D+06 0.10820673D+01  1  2 15  2  7  2       -2 0.229700048736D-04 0.100000000000D+01
0.928455342409D-04 0.000000000000D+00 0.000000000000D+00 0.122761928767D-05 0.000000000000D+00  7 2 -2 24 -11 11 -24 21 2 0.67532373D+00 0.16483136D-01 0.48268890D+06 0.48268890D+06 0.48268890D+06 0.10695936D+01  1  2 12  2  7  2       -2 0.552050179932D-04 0.100000000000D+01
-.100712728615D-03 0.000000000000D+00 0.000000000000D+00 0.122761928767D-05 0.000000000000D+00  7 2 -2 24 -11 11 -24 21 2 0.67532373D+00 0.12619670D-01 0.32420637D+06 0.32420637D+06 0.32420637D+06 0.10820673D+01  1  2  4  2  7  2       -2 -.975386936430D-04 0.100000000000D+01
-.598080772979D-04 0.000000000000D+00 -.115214305102D-03 0.122761928767D-05 0.000000000000D+00  7 2 -2 24 -11 11 -24 21 2 0.67532373D+00 0.27456149D-01 0.32420637D+06 0.32420637D+06 0.32420637D+06 0.10820673D+01  1  2  5  2  7  2       -2 -.158776510562D-04 0.100000000000D+01
0.329842963599D-05 0.000000000000D+00 0.000000000000D+00 0.122761928767D-05 0.000000000000D+00  7 2 21 24 -11 11 -24 2 2 0.67532373D+00 0.16483136D-01 0.48268890D+06 0.48268890D+06 0.48268890D+06 0.10695936D+01  1  2 12  4  7  2       -2 0.252211541911D-04 0.100000000000D+01
0.220072380649D-05 0.000000000000D+00 -.970026457861D-05 0.122761928767D-05 0.000000000000D+00  7 2 21 24 -11 11 -24 2 2 0.67532373D+00 0.27456149D-01 0.32420637D+06 0.32420637D+06 0.32420637D+06 0.10820673D+01  1  2  5  4  7  2       -2 0.684720988842D-05 0.100000000000D+01
  </mgrwgt>
  </event>
  <event>
  9     66 0.26993063E-05 0.21449431E+03 0.75467711E-02 0.10355383E+00
        2 -1    0    0  501    0 0.00000000E+00 0.00000000E+00 0.17778129E+04 0.17778130E+04 0.32000000E+00 0.0000E+00 0.9000E+01
       -2 -1    0    0    0  502 0.00000000E+00 0.00000000E+00 -.35795199E+02 0.35796629E+02 0.32000000E+00 0.0000E+00 0.9000E+01
       25  2    1    2    0    0 0.12818774E+03 0.27720474E+02 0.11164634E+04 0.11633736E+04 0.29957817E+03 0.0000E+00 0.0000E+00
       23  2    1    2    0    0 -.81773499E+02 0.66364850E+00 0.40505527E+03 0.42312294E+03 0.90971994E+02 0.0000E+00 0.0000E+00
       24  1    3    3    0    0 -.47683769E+02 0.81838784E+02 0.36648206E+03 0.38697241E+03 0.80419002E+02 0.0000E+00 0.9000E+01
      -13  1    4    4    0    0 -.94956979E+02 0.11236933E+01 0.24872674E+03 0.26623879E+03 0.10565837E+00 0.0000E+00 0.9000E+01
       13  1    4    4    0    0 0.13183480E+02 -.46004484E+00 0.15632853E+03 0.15688415E+03 0.10565837E+00 0.0000E+00 0.9000E+01
      -24  1    3    3    0    0 0.17587151E+03 -.54118309E+02 0.74998137E+03 0.77640121E+03 0.80419002E+02 0.0000E+00 0.9000E+01
       21  1    1    2  501  502 -.46414242E+02 -.28384123E+02 0.22049903E+03 0.22711302E+03 0.75000000E+00 0.0000E+00 0.9000E+01
#aMCatNLO 2  0  0  2  2 0.54405333D+02 0.00000000D+00  -5  7  0 0.00000000D+00 0.00000000D+00 0.00000000D+00 0.00000000D+00 0.00000000D+00
  <mgrwgt>
 0.5709503070D-03    1    2    0
 0.223042738334546D+03 0.000000000000000D+00 0.000000000000000D+00 0.223042738334546D+03
 0.223042738334546D+03 0.000000000000000D+00 0.000000000000000D+00 -.223042738334546D+03
 0.126010310334130D+03 -.607110819789337D+02 0.738720644497875D+02 -.163849008238325D+02
 0.108320167874278D+03 -.105640057233779D+03 -.540933119863590D+01 -.233275847858081D+02
 0.234046773927045D+02 0.106972575512010D+02 -.198055664847209D+01 0.207225722366226D+02
 0.188350321067980D+03 0.155653881661512D+03 -.664821766026795D+02 0.189899133730180D+02
 0.000000000000000D+00 -.000000000000000D+00 -.000000000000000D+00 0.000000000000000D+00
 0.257053182546683D+03 0.000000000000000D+00 0.000000000000000D+00 0.257053182546683D+03
 0.247564339953717D+03 0.000000000000000D+00 0.000000000000000D+00 -.247564339953717D+03
 0.125327602581352D+03 -.476837607019056D+02 0.818387805672550D+02 -.163849008238325D+02
 0.977869918688743D+02 -.949571317796605D+02 0.112369524534261D+01 -.233275847858081D+02
 0.245651083717306D+02 0.131836226343457D+02 -.460047223658422D+00 0.207225722366226D+02
 0.201711210248664D+03 0.175871511494303D+03 -.541183057791428D+02 0.189899133730180D+02
 0.552266094297796D+02 -.464142416470822D+02 -.283841228097964D+02 0.948884259296528D+01
0.248639146032D-05 0.000000000000D+00 0.000000000000D+00 0.374790214624D-06 0.894604173075D-09  7 2 -2 24 -13 13 -24 21 2 0.27350703D+00 0.55070101D-02 0.59445272D+05 0.59445272D+05 0.59445272D+05 0.11407435D+01  1  2  1  2  7  2       -2 0.570950306989D-03 0.100000000000D+01
  </mgrwgt>
  </event>
  <event>
  9     66 0.26993063E-05 0.22620236E+03 0.75467711E-02 0.10200963E+00
        2 -1    0    0  501    0 0.00000000E+00 0.00000000E+00 0.17376656E+04 0.17376657E+04 0.32000000E+00 0.0000E+00 0.9000E+01
       21 -1    0    0  502  501 0.00000000E+00 0.00000000E+00 -.18248082E+03 0.18248236E+03 0.75000000E+00 0.0000E+00 0.9000E+01
       25  2    1    2    0    0 0.23032968E+02 0.18809386E+03 0.14831833E+04 0.15250481E+04 0.30004906E+03 0.0000E+00 0.0000E+00
       23  2    1    2    0    0 -.34228083E+02 -.71047385E+02 -.11991575E+03 0.17002753E+03 0.91160741E+02 0.0000E+00 0.0000E+00
       24  1    3    3    0    0 0.38670554E+02 -.43993245E+02 0.60083257E+03 0.60901380E+03 0.80419002E+02 0.0000E+00 0.9000E+01
      -13  1    4    4    0    0 0.20865949E+01 -.25773909E+02 0.10009753E+02 0.27728227E+02 0.10565837E+00 0.0000E+00 0.9000E+01
       13  1    4    4    0    0 -.36314678E+02 -.45273477E+02 -.12992551E+03 0.14229930E+03 0.10565837E+00 0.0000E+00 0.9000E+01
      -24  1    3    3    0    0 -.15637586E+02 0.23208710E+03 0.88235068E+03 0.91603433E+03 0.80419002E+02 0.0000E+00 0.9000E+01
        2  1    1    2  502    0 0.11195115E+02 -.11704647E+03 0.19191731E+03 0.22507235E+03 0.32000000E+00 0.0000E+00 0.9000E+01
#aMCatNLO 2  0  0  2  2 0.11758064D+03 0.00000000D+00  -5  7  0 0.00000000D+00 0.00000000D+00 0.00000000D+00 0.00000000D+00 0.00000000D+00
  <mgrwgt>
 0.1798526115D-03    1    2    0
 0.500239451286337D+03 0.000000000000000D+00 0.000000000000000D+00 0.500239451286337D+03
 0.500239451286337D+03 0.000000000000000D+00 0.000000000000000D+00 -.500239451286337D+03
 0.218706398166826D+03 0.410702007322598D+02 -.690818814384398D+02 0.186832023254776D+03
 0.363776353102386D+02 0.247409426926179D+01 -.298247023874559D+02 -.206808688359848D+02
 0.423021796154395D+03 -.316406533933628D+02 -.941416123536872D+02 -.411197842769122D+03
 0.322373072941214D+03 -.119036416081588D+02 0.193048196179583D+03 0.245046688350332D+03
 0.000000000000000D+00 0.000000000000000D+00 -.000000000000000D+00 0.000000000000000D+00
 0.572356567395942D+03 0.000000000000000D+00 0.000000000000000D+00 0.572356567395942D+03
 0.554011136319094D+03 0.000000000000000D+00 0.000000000000000D+00 -.554011136319094D+03
 0.211670116641139D+03 0.386705542404243D+02 -.439932454561870D+02 0.186832023254776D+03
 0.331111075772937D+02 0.208664650583881D+01 -.257738824305454D+02 -.206808688359848D+02
 0.415273543013143D+03 -.363147292328704D+02 -.452735029509752D+02 -.411197842769122D+03
 0.347309735558729D+03 -.156375860655519D+02 0.232087101946838D+03 0.245046688350332D+03
 0.119003200924731D+03 0.111951145521591D+02 -.117046471109130D+03 0.183454310768479D+02
0.819959227248D-06 0.000000000000D+00 0.000000000000D+00 0.926308453200D-05 0.829690293839D-10  7 2 21 24 -13 13 -24 2 2 0.26733319D+00 0.28074082D-01 0.74826410D+05 0.74826410D+05 0.74826410D+05 0.11322062D+01  1  2  1  4  7  2       -2 0.179852611532D-03 0.100000000000D+01
  </mgrwgt>
  </event>
  <event>
  8     66 0.26993063E-05 0.15578728E+03 0.75467711E-02 0.10309602E+00
        2 -1    0    0  501    0 0.00000000E+00 0.00000000E+00 0.28445067E+03 0.28445085E+03 0.32000000E+00 0.0000E+00 0.9000E+01
       -2 -1    0    0    0  501 0.00000000E+00 0.00000000E+00 -.27439386E+03 0.27439404E+03 0.32000000E+00 0.0000E+00 0.9000E+01
       25  2    1    2    0    0 -.10013200E+03 0.10661821E+03 -.10839827E+03 0.35054986E+03 0.29956830E+03 0.0000E+00 0.0000E+00
       23  2    1    2    0    0 0.10013200E+03 -.10661821E+03 0.11845508E+03 0.20829503E+03 0.89226426E+02 0.0000E+00 0.0000E+00
       24  1    3    3    0    0 -.17502375E+03 0.92107404E+02 -.31910194E+02 0.21587626E+03 0.80419002E+02 0.0000E+00 0.9000E+01
      -13  1    4    4    0    0 0.13767389E+02 -.71537391E+02 0.77843579E+02 0.10661507E+03 0.10565837E+00 0.0000E+00 0.9000E+01
       13  1    4    4    0    0 0.86364610E+02 -.35080816E+02 0.40611505E+02 0.10167996E+03 0.10565837E+00 0.0000E+00 0.9000E+01
      -24  1    3    3    0    0 0.74891746E+02 0.14510804E+02 -.76488073E+02 0.13467360E+03 0.80419002E+02 0.0000E+00 0.9000E+01
#aMCatNLO 1  0  0  2  1 0.14063740D+02 0.00000000D+00  -5  7  0 0.00000000D+00 0.00000000D+00 0.00000000D+00 0.00000000D+00 0.00000000D+00
  <mgrwgt>
 0.5116329878D-03    9    2    0
 0.279377200493542D+03 0.000000000000000D+00 0.000000000000000D+00 0.279377200493542D+03
 0.279377200493542D+03 0.000000000000000D+00 0.000000000000000D+00 -.279377200493542D+03
 0.216485569268949D+03 -.175023745954270D+03 0.921074040638750D+02 -.358008409968193D+02
 0.105231265366347D+03 0.137672896520818D+02 -.715374417169560D+02 0.759373121649127D+02
 0.100965474193980D+03 0.863647103705362D+02 -.350807666646588D+02 0.387879310101539D+02
 0.136072092157808D+03 0.748917459316518D+02 0.145108043177398D+02 -.789244021782473D+02
 0.000000000000000D+00 -.000000000000000D+00 -.000000000000000D+00 -.000000000000000D+00
 0.285929509145863D+03 0.000000000000000D+00 0.000000000000000D+00 0.285929509145863D+03
 0.287115513902511D+03 0.000000000000000D+00 0.000000000000000D+00 -.287115513902511D+03
 0.216354614779065D+03 -.172296200678761D+03 0.968216008823016D+02 -.358008409968193D+02
 0.103879610174113D+03 0.150850032139415D+02 -.692599502535898D+02 0.759373121649127D+02
 0.101321806807541D+03 0.876394250063891D+02 -.328775930877809D+02 0.387879310101539D+02
 0.137375331998450D+03 0.766148766790843D+02 0.174890051051727D+02 -.789244021782473D+02
 0.141136592892046D+02 -.704310422065410D+01 -.121730626461036D+02 -.118600475664820D+01
0.382149239964D-05 0.000000000000D+00 0.000000000000D+00 0.123049297666D-06 0.000000000000D+00  7 2 -2 24 -13 13 -24 21 0 0.43761670D-01 0.42214468D-01 0.60127279D+05 0.60127279D+05 0.60127279D+05 0.11403156D+01  1  2  2  2  7  2       -2 0.284912543810D-03 0.100000000000D+01
-.207912219361D-06 0.000000000000D+00 -.146755370367D-07 0.123049297666D-06 0.000000000000D+00  7 2 -2 24 -13 13 -24 21 2 0.43761670D-01 0.42214468D-01 0.60127279D+05 0.60127279D+05 0.60127279D+05 0.11403156D+01  1  2  3  2  7  2       -2 -.201562041768D-04 0.100000000000D+01
0.239992738260D-06 0.000000000000D+00 0.000000000000D+00 0.123049297666D-06 0.000000000000D+00  7 2 -2 24 -13 13 -24 21 2 0.43761670D-01 0.42214468D-01 0.60127279D+05 0.60127279D+05 0.60127279D+05 0.11403156D+01  1  2 15  2  7  2       -2 0.232662738544D-04 0.100000000000D+01
0.670167411927D-05 0.000000000000D+00 0.000000000000D+00 0.123049297666D-06 0.000000000000D+00  7 2 -2 24 -13 13 -24 21 2 0.43761670D-01 0.43866205D-01 0.63595671D+05 0.63595671D+05 0.63595671D+05 0.11382191D+01  1  2 12  2  7  2       -2 0.602204193163D-03 0.100000000000D+01
-.543385858026D-05 0.000000000000D+00 0.000000000000D+00 0.123049297666D-06 0.000000000000D+00  7 2 -2 24 -13 13 -24 21 2 0.43761670D-01 0.42214468D-01 0.60127279D+05 0.60127279D+05 0.60127279D+05 0.11403156D+01  1  2  4  2  7  2       -2 -.526789446760D-03 0.100000000000D+01
-.614266673992D-04 0.000000000000D+00 -.992450095467D-05 0.123049297666D-06 0.000000000000D+00  7 2 -2 24 -13 13 -24 21 2 0.43761670D-01 0.44308964D-01 0.60127279D+05 0.60127279D+05 0.60127279D+05 0.11403156D+01  1  2  5  2  7  2       -2 -.543623433797D-02 0.100000000000D+01
0.618463505611D-04 0.000000000000D+00 0.991287641142D-05 0.123049297666D-06 0.000000000000D+00  7 2 -2 24 -13 13 -24 21 2 0.43761670D-01 0.42214468D-01 0.60127279D+05 0.60127279D+05 0.60127279D+05 0.11403156D+01  1  2  6  2  7  2       -2 0.599574028566D-02 0.100000000000D+01
0.939560296217D-07 0.000000000000D+00 0.000000000000D+00 0.123049297666D-06 0.000000000000D+00  7 2 21 24 -13 13 -24 2 2 0.43761670D-01 0.43866205D-01 0.63595671D+05 0.63595671D+05 0.63595671D+05 0.11382191D+01  1  2 12  4  7  2       -2 0.943942905464D-04 0.100000000000D+01
-.511159439213D-06 0.000000000000D+00 -.839124579090D-07 0.123049297666D-06 0.000000000000D+00  7 2 21 24 -13 13 -24 2 2 0.43761670D-01 0.44308964D-01 0.60127279D+05 0.60127279D+05 0.60127279D+05 0.11403156D+01  1  2  5  4  7  2       -2 -.505704610313D-03 0.100000000000D+01
  </mgrwgt>
  </event>
  <event>
  8     66 0.26993063E-05 0.14896846E+03 0.75467711E-02 0.10514215E+00
        2 -1    0    0  501    0 0.00000000E+00 0.00000000E+00 0.19663280E+04 0.19663280E+04 0.32000000E+00 0.0000E+00 0.9000E+01
       -2 -1    0    0    0  501 0.00000000E+00 0.00000000E+00 -.63145856E+02 0.63146667E+02 0.32000000E+00 0.0000E+00 0.9000E+01
       25  2    1    2    0    0 0.81225942E+02 -.87294039E+02 0.37971086E+03 0.49820305E+03 0.29967989E+03 0.0000E+00 0.0000E+00
       23  2    1    2    0    0 -.81225942E+02 0.87294039E+02 0.15234713E+04 0.15312716E+04 0.98031573E+02 0.0000E+00 0.0000E+00
       24  1    3    3    0    0 0.74833714E+02 -.69529466E+02 0.39353112E+03 0.41444950E+03 0.80419002E+02 0.0000E+00 0.9000E+01
      -13  1    4    4    0    0 0.21400377E+02 0.22654357E+02 0.42006765E+03 0.42122208E+03 0.10565837E+00 0.0000E+00 0.9000E+01
       13  1    4    4    0    0 -.10262632E+03 0.64639683E+02 0.11034036E+04 0.11100495E+04 0.10565837E+00 0.0000E+00 0.9000E+01
      -24  1    3    3    0    0 0.63922278E+01 -.17764573E+02 -.13820263E+02 0.83753545E+02 0.80419002E+02 0.0000E+00 0.9000E+01
#aMCatNLO 1  0  0  2  1 0.67930480D+02 0.00000000D+00  -5  7  0 0.00000000D+00 0.00000000D+00 0.00000000D+00 0.00000000D+00 0.00000000D+00
  <mgrwgt>
 0.7411373600D-03    9    2    0
 0.352372404511340D+03 0.000000000000000D+00 0.000000000000000D+00 0.352372404511340D+03
 0.352372404511340D+03 0.000000000000000D+00 0.000000000000000D+00 -.352372404511340D+03
 0.130761339245581D+03 0.748337150179378D+02 -.695294675019291D+02 0.140313980928338D+02
 0.786017501670143D+02 0.214004941746713D+02 0.226543091260198D+02 0.721597966766836D+02
 0.216872143978143D+03 -.102626439358151D+03 0.646397337687216D+02 0.179786110688932D+03
 0.278509575631941D+03 0.639223016554150D+01 -.177645753928123D+02 -.265977305458450D+03
 0.000000000000000D+00 -.000000000000000D+00 0.000000000000000D+00 -.000000000000000D+00
 0.364255158678501D+03 0.000000000000000D+00 0.000000000000000D+00 0.364255158678501D+03
 0.466560179491674D+03 0.000000000000000D+00 0.000000000000000D+00 -.466560179491674D+03
 0.139376711791083D+03 0.774318333543172D+02 -.822562027221880D+02 0.140313980928338D+02
 0.772391310158132D+02 0.228993317112747D+02 0.153123385161983D+02 0.721597966766836D+02
 0.209793932811179D+03 -.985228747053246D+02 0.445386552056451D+02 0.179786110688932D+03
 0.281601379598874D+03 0.117792333574562D+02 -.441525048008815D+02 -.265977305458450D+03
 0.122804182953226D+03 -.135875237177234D+02 0.665577138012261D+02 -.102305020813173D+03
0.165613793178D-04 0.000000000000D+00 0.000000000000D+00 0.766826668677D-07 0.000000000000D+00  7 2 -2 24 -13 13 -24 21 0 0.30251206D+00 0.97148114D-02 0.33317676D+05 0.33317676D+05 0.33317676D+05 0.11631328D+01  1  2  2  2  7  2       -2 0.100029386648D-02 0.100000000000D+01
-.436071961782D-06 0.000000000000D+00 -.636000572917D-07 0.766826668677D-07 0.000000000000D+00  7 2 -2 24 -13 13 -24 21 2 0.30251206D+00 0.97148114D-02 0.33317676D+05 0.33317676D+05 0.33317676D+05 0.11631328D+01  1  2  3  2  7  2       -2 -.356326321913D-04 0.100000000000D+01
0.101104054700D-05 0.000000000000D+00 0.000000000000D+00 0.766826668677D-07 0.000000000000D+00  7 2 -2 24 -13 13 -24 21 2 0.30251206D+00 0.97148114D-02 0.33317676D+05 0.33317676D+05 0.33317676D+05 0.11631328D+01  1  2 15  2  7  2       -2 0.826148872185D-04 0.100000000000D+01
0.339474609641D-04 0.000000000000D+00 0.000000000000D+00 0.766826668677D-07 0.000000000000D+00  7 2 -2 24 -13 13 -24 21 2 0.30251206D+00 0.12988013D-01 0.47254960D+05 0.47254960D+05 0.47254960D+05 0.11494587D+01  1  2 12  2  7  2       -2 0.171844554290D-02 0.100000000000D+01
-.399830354031D-04 0.000000000000D+00 0.000000000000D+00 0.766826668677D-07 0.000000000000D+00  7 2 -2 24 -13 13 -24 21 2 0.30251206D+00 0.97148114D-02 0.33317676D+05 0.33317676D+05 0.33317676D+05 0.11631328D+01  1  2  4  2  7  2       -2 -.326712313397D-02 0.100000000000D+01
-.411190438016D-04 0.000000000000D+00 -.816653608531D-05 0.766826668677D-07 0.000000000000D+00  7 2 -2 24 -13 13 -24 21 2 0.30251206D+00 0.13306716D-01 0.33317676D+05 0.33317676D+05 0.33317676D+05 0.11631328D+01  1  2  5  2  7  2       -2 -.207063364298D-02 0.100000000000D+01
0.419815827468D-04 0.000000000000D+00 0.777838254986D-05 0.766826668677D-07 0.000000000000D+00  7 2 -2 24 -13 13 -24 21 2 0.30251206D+00 0.97148114D-02 0.33317676D+05 0.33317676D+05 0.33317676D+05 0.11631328D+01  1  2  6  2  7  2       -2 0.343042990133D-02 0.100000000000D+01
0.128165479203D-05 0.000000000000D+00 0.000000000000D+00 0.766826668677D-07 0.000000000000D+00  7 2 21 24 -13 13 -24 2 2 0.30251206D+00 0.12988013D-01 0.47254960D+05 0.47254960D+05 0.47254960D+05 0.11494587D+01  1  2 12  4  7  2       -2 0.917762835825D-03 0.100000000000D+01
-.144797337571D-05 0.000000000000D+00 -.326704616133D-06 0.766826668677D-07 0.000000000000D+00  7 2 21 24 -13 13 -24 2 2 0.30251206D+00 0.13306716D-01 0.33317676D+05 0.33317676D+05 0.33317676D+05 0.11631328D+01  1  2  5  4  7  2       -2 -.103502026461D-02 0.100000000000D+01
  </mgrwgt>
  </event>
  <event>
  9     66 0.26993063E-05 0.60453319E+03 0.75467711E-02 0.92219404E-01
        2 -1    0    0  502    0 0.00000000E+00 0.00000000E+00 0.24442753E+04 0.24442753E+04 0.32000000E+00 0.0000E+00 0.9000E+01
       -2 -1    0    0    0  501 0.00000000E+00 0.00000000E+00 -.18006273E+03 0.18006302E+03 0.32000000E+00 0.0000E+00 0.9000E+01
       25  2    1    2    0    0 -.28102348E+03 -.48246705E+03 0.15339157E+04 0.16597694E+04 0.30031374E+03 0.0000E+00 0.0000E+00
       23  2    1    2    0    0 0.27554386E+03 0.51555026E+03 0.71390507E+03 0.92723563E+03 0.91591311E+02 0.0000E+00 0.0000E+00
       24  1    3    3    0    0 -.18155121E+03 -.10627530E+03 0.71342616E+03 0.74813059E+03 0.80419002E+02 0.0000E+00 0.9000E+01
      -11  1    4    4    0    0 0.26181090E+03 0.45286844E+03 0.66747238E+03 0.84802957E+03 0.51099893E-03 0.0000E+00 0.9000E+01
       11  1    4    4    0    0 0.13732961E+02 0.62681821E+02 0.46432688E+02 0.79206057E+02 0.51099893E-03 0.0000E+00 0.9000E+01
      -24  1    3    3    0    0 -.99472273E+02 -.37619175E+03 0.82048952E+03 0.91163877E+03 0.80419002E+02 0.0000E+00 0.9000E+01
       21  1    1    2  502  501 0.54796145E+01 -.33083214E+02 0.16391822E+02 0.37333357E+02 0.75000000E+00 0.0000E+00 0.9000E+01
#aMCatNLO 2  0  0  1  1 0.33533942D+02 0.00000000D+00  -5  7  0 0.00000000D+00 0.00000000D+00 0.00000000D+00 0.00000000D+00 0.00000000D+00
  <mgrwgt>
 0.5148500886D-03    2    2    0
 0.640072676817269D+03 0.000000000000000D+00 0.000000000000000D+00 0.640072676817269D+03
 0.640072676817269D+03 0.000000000000000D+00 0.000000000000000D+00 -.640072676817269D+03
 0.261130141580083D+03 -.180438044015156D+03 -.112996023047113D+03 0.128045874337225D+03
 0.531151195770350D+03 0.264106334967290D+03 0.439009754878317D+03 -.140142326654364D+03
 0.769722281447730D+02 0.140656646054385D+02 0.606731232507936D+02 -.452288967339720D+02
 0.410891788139332D+03 -.977339555575721D+02 -.386686855081998D+03 0.573253490511105D+02
 0.000000000000000D+00 0.000000000000000D+00 -.000000000000000D+00 -.000000000000000D+00
 0.647404262434453D+03 0.000000000000000D+00 0.000000000000000D+00 0.647404262434453D+03
 0.679821317389634D+03 0.000000000000000D+00 0.000000000000000D+00 -.679821317389634D+03
 0.259071885168296D+03 -.181551205779884D+03 -.106275300401222D+03 0.128045874337225D+03
 0.541548377529245D+03 0.261810903406785D+03 0.452868440434727D+03 -.140142326654364D+03
 0.785064205579858D+02 0.137329613900179D+02 0.626818214517998D+02 -.452288967339720D+02
 0.401457812851780D+03 -.994722734973688D+02 -.376191747260353D+03 0.573253490511105D+02
 0.466410837167802D+02 0.547961448045068D+01 -.330832142249519D+02 -.324170549551817D+02
-.166044394928D-04 0.000000000000D+00 0.000000000000D+00 0.722791608513D-05 0.000000000000D+00  7 2 -2 24 -11 11 -24 21 2 0.37178213D+00 0.26082148D-01 0.36546037D+06 0.36546037D+06 0.36546037D+06 0.10782664D+01  1  2  8  1  7  1        2 -.122793316776D-03 0.100000000000D+01
0.100001861738D-03 0.000000000000D+00 0.000000000000D+00 0.722791608513D-05 0.397717587199D-07  7 2 -2 24 -11 11 -24 21 2 0.37604064D+00 0.27701854D-01 0.38648856D+06 0.38648856D+06 0.38648856D+06 0.10765051D+01  1  2  1  1  7  1        2 0.637643405417D-03 0.100000000000D+01
  </mgrwgt>
  </event>
  <event>
  8     66 0.26993063E-05 0.52436673E+03 0.75467711E-02 0.87525927E-01
        2 -1    0    0  501    0 0.00000000E+00 0.00000000E+00 0.36444468E+04 0.36444468E+04 0.32000000E+00 0.0000E+00 0.9000E+01
       -2 -1    0    0    0  501 0.00000000E+00 0.00000000E+00 -.25821982E+03 0.25822001E+03 0.32000000E+00 0.0000E+00 0.9000E+01
       25  2    1    2    0    0 0.83273276E+02 0.93168353E+03 0.19954068E+04 0.22240581E+04 0.29969533E+03 0.0000E+00 0.0000E+00
       23  2    1    2    0    0 -.83273276E+02 -.93168353E+03 0.13908201E+04 0.16786087E+04 0.91531365E+02 0.0000E+00 0.0000E+00
       24  1    3    3    0    0 0.57644128E+02 0.71454963E+03 0.12513622E+04 0.14443956E+04 0.80419002E+02 0.0000E+00 0.9000E+01
      -13  1    4    4    0    0 -.73798158E+02 -.76634124E+03 0.12023221E+04 0.14276917E+04 0.10565837E+00 0.0000E+00 0.9000E+01
       13  1    4    4    0    0 -.94751178E+01 -.16534229E+03 0.18849802E+03 0.25091705E+03 0.10565837E+00 0.0000E+00 0.9000E+01
      -24  1    3    3    0    0 0.25629148E+02 0.21713390E+03 0.74404465E+03 0.77966251E+03 0.80419002E+02 0.0000E+00 0.9000E+01
#aMCatNLO 1  0  0  2  1 0.78942189D+02 0.00000000D+00  -5  7  0 0.00000000D+00 0.00000000D+00 0.00000000D+00 0.00000000D+00 0.00000000D+00
  <mgrwgt>
 0.9090570312D-03    9    2    0
 0.970087003564495D+03 0.000000000000000D+00 0.000000000000000D+00 0.970087003564495D+03
 0.970087003564495D+03 0.000000000000000D+00 0.000000000000000D+00 -.970087003564495D+03
 0.721377704200189D+03 0.576441279524922D+02 0.714549632457961D+03 -.381489574615678D+01
 0.773369253825609D+03 -.737982436554021D+02 -.766342039051720D+03 -.733055330668072D+02
 0.175730122285518D+03 -.947503208765131D+01 -.165341489214249D+03 -.587664154924877D+02
 0.269696926817674D+03 0.256291477905612D+02 0.217133895808008D+03 0.135886844305452D+03
 0.000000000000000D+00 -.000000000000000D+00 0.000000000000000D+00 -.000000000000000D+00
 0.991960097212485D+03 0.000000000000000D+00 0.000000000000000D+00 0.991960097212485D+03
 0.104483063931773D+04 0.000000000000000D+00 0.000000000000000D+00 -.104483063931773D+04
 0.693146610296966D+03 0.597244915156958D+02 0.685859635126197D+03 -.381489574615678D+01
 0.804891420543211D+03 -.714770704054666D+02 -.798353008444329D+03 -.733055330668072D+02
 0.182557474421272D+03 -.894809278113146D+01 -.172608434072087D+03 -.587664154924877D+02
 0.261183845524207D+03 0.264099226445997D+02 0.206366341100129D+03 0.135886844305452D+03
 0.950113857445544D+02 -.570925097369748D+01 0.787354662900896D+02 -.528705421052405D+02
0.147791164108D-02 0.000000000000D+00 0.000000000000D+00 0.189596434484D-04 0.000000000000D+00  7 2 -2 24 -13 13 -24 21 0 0.56068414D+00 0.39726142D-01 0.89286376D+06 0.89286376D+06 0.89286376D+06 0.10511558D+01  1  2  2  2  7  2       -2 0.660284934341D-03 0.100000000000D+01
-.820371980595D-04 0.000000000000D+00 -.567556984481D-05 0.189596434484D-04 0.000000000000D+00  7 2 -2 24 -13 13 -24 21 2 0.56068414D+00 0.39726142D-01 0.89286376D+06 0.89286376D+06 0.89286376D+06 0.10511558D+01  1  2  3  2  7  2       -2 -.404974737223D-04 0.100000000000D+01
0.941182372513D-04 0.000000000000D+00 0.000000000000D+00 0.189596434484D-04 0.000000000000D+00  7 2 -2 24 -13 13 -24 21 2 0.56068414D+00 0.39726142D-01 0.89286376D+06 0.89286376D+06 0.89286376D+06 0.10511558D+01  1  2 15  2  7  2       -2 0.464612508720D-04 0.100000000000D+01
0.430902770706D-02 0.000000000000D+00 0.000000000000D+00 0.189596434484D-04 0.000000000000D+00  7 2 -2 24 -13 13 -24 21 2 0.56068414D+00 0.43211329D-01 0.96974819D+06 0.96974819D+06 0.96974819D+06 0.10487532D+01  1  2 12  2  7  2       -2 0.178986618880D-02 0.100000000000D+01
-.429297761129D-02 0.000000000000D+00 0.000000000000D+00 0.189596434484D-04 0.000000000000D+00  7 2 -2 24 -13 13 -24 21 2 0.56068414D+00 0.39726142D-01 0.89286376D+06 0.89286376D+06 0.89286376D+06 0.10511558D+01  1  2  4  2  7  2       -2 -.211921850229D-02 0.100000000000D+01
-.105795147517D-01 0.000000000000D+00 -.179890480288D-02 0.189596434484D-04 0.000000000000D+00  7 2 -2 24 -13 13 -24 21 2 0.56068414D+00 0.44217789D-01 0.89286376D+06 0.89286376D+06 0.89286376D+06 0.10511558D+01  1  2  5  2  7  2       -2 -.425002584879D-02 0.100000000000D+01
0.107209148959D-01 0.000000000000D+00 0.178863341297D-02 0.189596434484D-04 0.000000000000D+00  7 2 -2 24 -13 13 -24 21 2 0.56068414D+00 0.39726142D-01 0.89286376D+06 0.89286376D+06 0.89286376D+06 0.10511558D+01  1  2  6  2  7  2       -2 0.529235492612D-02 0.100000000000D+01
0.606103636109D-04 0.000000000000D+00 0.000000000000D+00 0.189596434484D-04 0.000000000000D+00  7 2 21 24 -13 13 -24 2 2 0.56068414D+00 0.43211329D-01 0.96974819D+06 0.96974819D+06 0.96974819D+06 0.10487532D+01  1  2 12  4  7  2       -2 0.262048344474D-03 0.100000000000D+01
-.175555227158D-03 0.000000000000D+00 -.309975466516D-04 0.189596434484D-04 0.000000000000D+00  7 2 21 24 -13 13 -24 2 2 0.56068414D+00 0.44217789D-01 0.89286376D+06 0.89286376D+06 0.89286376D+06 0.10511558D+01  1  2  5  4  7  2       -2 -.732216788604D-03 0.100000000000D+01
  </mgrwgt>
  </event>
  <event>
  8     66 0.26993063E-05 0.15326854E+03 0.75467711E-02 0.10468176E+00
        2 -1    0    0  501    0 0.00000000E+00 0.00000000E+00 0.88305533E+03 0.88305539E+03 0.32000000E+00 0.0000E+00 0.9000E+01
       -2 -1    0    0    0  501 0.00000000E+00 0.00000000E+00 -.96921642E+02 0.96922170E+02 0.32000000E+00 0.0000E+00 0.9000E+01
       25  2    1    2    0    0 0.10547941E+03 -.44499745E+01 0.19645865E+03 0.37392390E+03 0.30012893E+03 0.0000E+00 0.0000E+00
       23  2    1    2    0    0 -.10547941E+03 0.44499745E+01 0.58967503E+03 0.60605365E+03 0.91862262E+02 0.0000E+00 0.0000E+00
       24  1    3    3    0    0 -.37535482E+02 -.85201176E+02 0.29980793E+02 0.12662629E+03 0.80419002E+02 0.0000E+00 0.9000E+01
      -11  1    4    4    0    0 0.34924988E+01 0.22878082E+02 0.48891865E+02 0.54092686E+02 0.51099893E-03 0.0000E+00 0.9000E+01
       11  1    4    4    0    0 -.10897191E+03 -.18428108E+02 0.54078317E+03 0.55196097E+03 0.51099893E-03 0.0000E+00 0.9000E+01
      -24  1    3    3    0    0 0.14301490E+03 0.80751201E+02 0.16647786E+03 0.24729762E+03 0.80419002E+02 0.0000E+00 0.9000E+01
#aMCatNLO 1  0  0  2  1 0.83961118D+01 0.00000000D+00  -5  7  0 0.00000000D+00 0.00000000D+00 0.00000000D+00 0.00000000D+00 0.00000000D+00
  <mgrwgt>
 0.5061404888D-03   11    2    0
 0.292553344971796D+03 0.000000000000000D+00 0.000000000000000D+00 0.292553344971796D+03
 0.292553344971796D+03 0.000000000000000D+00 0.000000000000000D+00 -.292553344971796D+03
 0.171801160888117D+03 -.375354820842510D+02 -.852011759072401D+02 -.119917764058794D+03
 0.249084078572338D+02 0.349249881337812D+01 0.228780824229132D+02 0.921002598645897D+01
 0.197880994488021D+03 -.108971913591299D+03 -.184281079244518D+02 0.164141447739878D+03
 0.190516126710220D+03 0.143014896862172D+03 0.807512014087787D+02 -.534337096675435D+02
 0.000000000000000D+00 0.000000000000000D+00 0.000000000000000D+00 -.000000000000000D+00
 0.294815763782506D+03 0.000000000000000D+00 0.000000000000000D+00 0.294815763782506D+03
 0.300478314094276D+03 0.000000000000000D+00 0.000000000000000D+00 -.300478314094276D+03
 0.173129954492526D+03 -.389497355097682D+02 -.872319503110658D+02 -.119917764058794D+03
 0.246129292445699D+02 0.328945618396751D+01 0.225865266329445D+02 0.921002598645897D+01
 0.199012006371274D+03 -.110599216148245D+03 -.207648067934800D+02 0.164141447739878D+03
 0.188412037623177D+03 0.141461252002264D+03 0.785202701222008D+02 -.534337096675435D+02
 0.101271501452354D+02 0.479824347178167D+01 0.688996034940045D+01 -.566255031177080D+01
0.436819737368D-05 0.000000000000D+00 0.000000000000D+00 0.184018244982D-05 0.000000000000D+00  7 2 -2 24 -11 11 -24 21 0 0.13585471D+00 0.14911067D-01 0.48302712D+05 0.48302712D+05 0.48302712D+05 0.11486170D+01  1  2  2  2  7  2       -2 0.531802328559D-03 0.100000000000D+01
-.218538544821D-06 0.000000000000D+00 -.167750280877D-07 0.184018244982D-05 0.000000000000D+00  7 2 -2 24 -11 11 -24 21 2 0.13585471D+00 0.14911067D-01 0.48302712D+05 0.48302712D+05 0.48302712D+05 0.11486170D+01  1  2  3  2  7  2       -2 -.351015665237D-04 0.100000000000D+01
0.270173386903D-06 0.000000000000D+00 0.000000000000D+00 0.184018244982D-05 0.000000000000D+00  7 2 -2 24 -11 11 -24 21 2 0.13585471D+00 0.14911067D-01 0.48302712D+05 0.48302712D+05 0.48302712D+05 0.11486170D+01  1  2 15  2  7  2       -2 0.433951325202D-04 0.100000000000D+01
0.853195218112D-05 0.000000000000D+00 0.000000000000D+00 0.184018244982D-05 0.000000000000D+00  7 2 -2 24 -11 11 -24 21 2 0.13585471D+00 0.15371624D-01 0.50468439D+05 0.50468439D+05 0.50468439D+05 0.11469393D+01  1  2 12  2  7  2       -2 0.130200040459D-02 0.100000000000D+01
-.855554562822D-05 0.000000000000D+00 0.000000000000D+00 0.184018244982D-05 0.000000000000D+00  7 2 -2 24 -11 11 -24 21 2 0.13585471D+00 0.14911067D-01 0.48302712D+05 0.48302712D+05 0.48302712D+05 0.11486170D+01  1  2  4  2  7  2       -2 -.137418803745D-02 0.100000000000D+01
-.127040107854D-03 0.000000000000D+00 -.164428113155D-04 0.184018244982D-05 0.000000000000D+00  7 2 -2 24 -11 11 -24 21 2 0.13585471D+00 0.15428266D-01 0.48302712D+05 0.48302712D+05 0.48302712D+05 0.11486170D+01  1  2  5  2  7  2       -2 -.193305415974D-01 0.100000000000D+01
0.127536175065D-03 0.000000000000D+00 0.164332573671D-04 0.184018244982D-05 0.000000000000D+00  7 2 -2 24 -11 11 -24 21 2 0.13585471D+00 0.14911067D-01 0.48302712D+05 0.48302712D+05 0.48302712D+05 0.11486170D+01  1  2  6  2  7  2       -2 0.204848052635D-01 0.100000000000D+01
0.696651616160D-07 0.000000000000D+00 0.000000000000D+00 0.184018244982D-05 0.183226240678D-06  7 2 -2 24 -11 11 -24 21 2 0.13690532D+00 0.15314992D-01 0.50468439D+05 0.50468439D+05 0.50468439D+05 0.11469393D+01  1  2 11  2  7  2       -2 0.105871266870D-04 0.100000000000D+01
0.224226123160D-06 0.000000000000D+00 0.000000000000D+00 0.184018244982D-05 0.000000000000D+00  7 2 21 24 -11 11 -24 2 2 0.13585471D+00 0.15371624D-01 0.50468439D+05 0.50468439D+05 0.50468439D+05 0.11469393D+01  1  2 12  4  7  2       -2 0.468843918118D-03 0.100000000000D+01
-.765357925757D-06 0.000000000000D+00 -.999491572108D-07 0.184018244982D-05 0.000000000000D+00  7 2 21 24 -11 11 -24 2 2 0.13585471D+00 0.15428266D-01 0.48302712D+05 0.48302712D+05 0.48302712D+05 0.11486170D+01  1  2  5  4  7  2       -2 -.159626805160D-02 0.100000000000D+01
0.386605346554D-09 0.000000000000D+00 0.000000000000D+00 0.184018244982D-05 0.880579412164D-09  7 2 21 24 -11 11 -24 2 2 0.13690532D+00 0.15314992D-01 0.50468439D+05 0.50468439D+05 0.50468439D+05 0.11469393D+01  1  2 11  4  7  2       -2 0.805567888104D-06 0.100000000000D+01
  </mgrwgt>
  </event>
  <event>
  8     66 0.26993063E-05 0.16869164E+03 0.75467711E-02 0.98860725E-01
        2 -1    0    0  501    0 0.00000000E+00 0.00000000E+00 0.40518915E+03 0.40518928E+03 0.32000000E+00 0.0000E+00 0.9000E+01
       -2 -1    0    0    0  501 0.00000000E+00 0.00000000E+00 -.50674480E+03 0.50674490E+03 0.32000000E+00 0.0000E+00 0.9000E+01
       25  2    1    2    0    0 0.12113153E+03 0.25067229E+03 -.34088778E+03 0.53257645E+03 0.29987288E+03 0.0000E+00 0.0000E+00
       23  2    1    2    0    0 -.12113153E+03 -.25067229E+03 0.23933214E+03 0.37935774E+03 0.95514263E+02 0.0000E+00 0.0000E+00
       24  1    3    3    0    0 0.14455036E+03 0.30337757E+02 -.10056107E+03 0.19594624E+03 0.80419002E+02 0.0000E+00 0.9000E+01
      -11  1    4    4    0    0 0.15420193E+02 -.32525407E+02 0.40146572E+02 0.53920605E+02 0.51099893E-03 0.0000E+00 0.9000E+01
       11  1    4    4    0    0 -.13655173E+03 -.21814688E+03 0.19918556E+03 0.32543713E+03 0.51099893E-03 0.0000E+00 0.9000E+01
      -24  1    3    3    0    0 -.23418822E+02 0.22033453E+03 -.24032672E+03 0.33663021E+03 0.80419002E+02 0.0000E+00 0.9000E+01
#aMCatNLO 1  0  0  2  1 0.25186751D+01 0.00000000D+00  -5  7  0 0.00000000D+00 0.00000000D+00 0.00000000D+00 0.00000000D+00 0.00000000D+00
  <mgrwgt>
 0.6189122287D-03   11    2    0
 0.453130887931943D+03 0.000000000000000D+00 0.000000000000000D+00 0.453130887931943D+03
 0.453130887931943D+03 0.000000000000000D+00 0.000000000000000D+00 -.453130887931943D+03
 0.185903825051525D+03 0.144550356838384D+03 0.303377568361434D+02 -.792327650815269D+02
 0.587569240118468D+02 0.154201924997358D+02 -.325254069167335D+02 0.464401947401810D+02
 0.349794808437086D+03 -.136551727345902D+03 -.218146884792608D+03 0.236900760707239D+03
 0.311806218363429D+03 -.234188219922183D+02 0.220334534873198D+03 -.204108190365893D+03
 0.000000000000000D+00 -.000000000000000D+00 -.000000000000000D+00 -.000000000000000D+00
 0.453319870313046D+03 0.000000000000000D+00 0.000000000000000D+00 0.453319870313046D+03
 0.461603025088738D+03 0.000000000000000D+00 0.000000000000000D+00 -.461603025088738D+03
 0.186233738656192D+03 0.144892775986536D+03 0.307252642615755D+02 -.792327650815269D+02
 0.587177908504715D+02 0.155282858386391D+02 -.324030803129472D+02 0.464401947401810D+02
 0.349090550807767D+03 -.135908654050684D+03 -.217419134378125D+03 0.236900760707239D+03
 0.312223195482972D+03 -.228446267452197D+02 0.220984337675002D+03 -.204108190365893D+03
 0.865761960438142D+01 -.166778102927146D+01 -.188738724550545D+01 -.828315477569235D+01
0.293516857388D-04 0.000000000000D+00 0.000000000000D+00 0.448419927078D-06 0.000000000000D+00  7 2 -2 24 -11 11 -24 21 0 0.62336810D-01 0.77960756D-01 0.12153864D+06 0.12153864D+06 0.12153864D+06 0.11148358D+01  1  2  2  2  7  2       -2 0.424932972950D-03 0.100000000000D+01
-.149435880745D-05 0.000000000000D+00 -.112718201713D-06 0.448419927078D-06 0.000000000000D+00  7 2 -2 24 -11 11 -24 21 2 0.62336810D-01 0.77960756D-01 0.12153864D+06 0.12153864D+06 0.12153864D+06 0.11148358D+01  1  2  3  2  7  2       -2 -.268883476348D-04 0.100000000000D+01
0.185980262150D-05 0.000000000000D+00 0.000000000000D+00 0.448419927078D-06 0.000000000000D+00  7 2 -2 24 -11 11 -24 21 2 0.62336810D-01 0.77960756D-01 0.12153864D+06 0.12153864D+06 0.12153864D+06 0.11148358D+01  1  2 15  2  7  2       -2 0.334638636785D-04 0.100000000000D+01
0.114524745355D-05 0.000000000000D+00 0.000000000000D+00 0.448419927078D-06 0.000000000000D+00  7 2 -2 24 -11 11 -24 21 2 0.62336810D-01 0.79434477D-01 0.12238120D+06 0.12238120D+06 0.12238120D+06 0.11145943D+01  1  2 12  2  7  2       -2 0.197556101380D-04 0.100000000000D+01
-.430081773728D-02 0.000000000000D+00 0.000000000000D+00 0.448419927078D-06 0.000000000000D+00  7 2 -2 24 -11 11 -24 21 2 0.62336810D-01 0.77960756D-01 0.12153864D+06 0.12153864D+06 0.12153864D+06 0.11148358D+01  1  2  4  2  7  2       -2 -.773856197440D-01 0.100000000000D+01
-.548761403993D-02 0.000000000000D+00 -.186770725856D-03 0.448419927078D-06 0.000000000000D+00  7 2 -2 24 -11 11 -24 21 2 0.62336810D-01 0.79434581D-01 0.12153864D+06 0.12153864D+06 0.12153864D+06 0.11148358D+01  1  2  5  2  7  2       -2 -.947165961217D-01 0.100000000000D+01
0.549018181500D-02 0.000000000000D+00 0.186737976060D-03 0.448419927078D-06 0.000000000000D+00  7 2 -2 24 -11 11 -24 21 2 0.62336810D-01 0.77960756D-01 0.12153864D+06 0.12153864D+06 0.12153864D+06 0.11148358D+01  1  2  6  2  7  2       -2 0.987861258518D-01 0.100000000000D+01
0.430023114689D-02 0.000000000000D+00 0.000000000000D+00 0.448419927078D-06 0.468414502745D-06  7 2 -2 24 -11 11 -24 21 2 0.62362809D-01 0.79418380D-01 0.12238120D+06 0.12238120D+06 0.12238120D+06 0.11145943D+01  1  2 11  2  7  2       -2 0.741789046002D-01 0.100000000000D+01
0.772198302254D-07 0.000000000000D+00 0.000000000000D+00 0.448419927078D-06 0.000000000000D+00  7 2 21 24 -11 11 -24 2 2 0.62336810D-01 0.79434477D-01 0.12238120D+06 0.12238120D+06 0.12238120D+06 0.11145943D+01  1  2 12  4  7  2       -2 0.131433049589D-04 0.100000000000D+01
-.187606759354D-04 0.000000000000D+00 -.637810592176D-06 0.448419927078D-06 0.000000000000D+00  7 2 21 24 -11 11 -24 2 2 0.62336810D-01 0.79434581D-01 0.12153864D+06 0.12153864D+06 0.12153864D+06 0.11148358D+01  1  2  5  4  7  2       -2 -.319574826086D-02 0.100000000000D+01
0.146138304915D-04 0.000000000000D+00 0.000000000000D+00 0.448419927078D-06 0.158649431011D-08  7 2 21 24 -11 11 -24 2 2 0.62362809D-01 0.79418380D-01 0.12238120D+06 0.12238120D+06 0.12238120D+06 0.11145943D+01  1  2 11  4  7  2       -2 0.248743849921D-02 0.100000000000D+01
  </mgrwgt>
  </event>
  <event>
  9     66 0.26993063E-05 0.51843145E+03 0.75467711E-02 0.92360811E-01
        2 -1    0    0  501    0 0.00000000E+00 0.00000000E+00 0.14929658E+04 0.14929658E+04 0.32000000E+00 0.0000E+00 0.9000E+01
       21 -1    0    0  502  501 0.00000000E+00 0.00000000E+00 -.43767517E+03 0.43767582E+03 0.75000000E+00 0.0000E+00 0.9000E+01
       25  2    1    2    0    0 -.34579715E+03 0.21543245E+03 0.10273227E+04 0.11448192E+04 0.29871767E+03 0.0000E+00 0.0000E+00
       23  2    1    2    0    0 0.51567862E+03 -.26117885E+03 0.10285991E+03 0.59461219E+03 0.94046127E+02 0.0000E+00 0.0000E+00
       24  1    3    3    0    0 -.29956989E+02 0.71012375E+02 0.47168003E+03 0.48465394E+03 0.80419002E+02 0.0000E+00 0.9000E+01
      -11  1    4    4    0    0 0.38157206E+03 -.15319403E+03 0.48336093E+02 0.41400727E+03 0.51099893E-03 0.0000E+00 0.9000E+01
       11  1    4    4    0    0 0.13410656E+03 -.10798482E+03 0.54523816E+02 0.18060492E+03 0.51099893E-03 0.0000E+00 0.9000E+01
      -24  1    3    3    0    0 -.31584016E+03 0.14442007E+03 0.55564270E+03 0.66016528E+03 0.80419002E+02 0.0000E+00 0.9000E+01
        2  1    1    2  502    0 -.16988146E+03 0.45746400E+02 -.74892001E+02 0.19121025E+03 0.32000000E+00 0.0000E+00 0.9000E+01
#aMCatNLO 2  0  0  2  1 0.17593307D+03 0.00000000D+00  -5  7  0 0.00000000D+00 0.00000000D+00 0.00000000D+00 0.00000000D+00 0.00000000D+00
  <mgrwgt>
 0.5560252611D-04    2    2    0
 0.655239726554939D+03 0.000000000000000D+00 0.000000000000000D+00 0.655239726554939D+03
 0.655239726554939D+03 0.000000000000000D+00 0.000000000000000D+00 -.655239726554939D+03
 0.242869438724500D+03 -.607540623033201D+02 0.793055414260482D+02 0.206247238344538D+03
 0.453023924758961D+03 0.319861941534109D+03 -.136576465066802D+03 -.290285865918234D+03
 0.171544748181650D+03 0.110713540082046D+03 -.101685448929195D+03 -.826449160400984D+02
 0.443041341444767D+03 -.369821419312835D+03 0.158956372569949D+03 0.166683543613795D+03
 0.000000000000000D+00 -.000000000000000D+00 0.000000000000000D+00 -.000000000000000D+00
 0.687916138473190D+03 0.000000000000000D+00 0.000000000000000D+00 0.687916138473190D+03
 0.949875335420178D+03 0.000000000000000D+00 0.000000000000000D+00 -.949875335420178D+03
 0.234404176325922D+03 -.299569889452687D+02 0.710123750711648D+02 0.206247238344538D+03
 0.503320501841196D+03 0.381572056094825D+03 -.153194026088948D+03 -.290285865918234D+03
 0.190985531713429D+03 0.134106560924533D+03 -.107984820662817D+03 -.826449160400984D+02
 0.393526093444430D+03 -.315840164433456D+03 0.144420071618385D+03 0.166683543613795D+03
 0.315555170568392D+03 -.169881463640634D+03 0.457464000622162D+02 -.261959196946988D+03
-.601394706911D-05 0.000000000000D+00 0.000000000000D+00 0.232229557099D-06 0.000000000000D+00  7 2 21 24 -11 11 -24 2 2 0.21877680D+00 0.68085603D-01 0.37647889D+06 0.37647889D+06 0.37647889D+06 0.10773301D+01  1  2 13  4  7  2       -2 -.244397459121D-03 0.100000000000D+01
0.787665898507D-05 0.000000000000D+00 0.000000000000D+00 0.232229557099D-06 0.244562396451D-11  7 2 21 24 -11 11 -24 2 2 0.22968707D+00 0.67334686D-01 0.37647889D+06 0.37647889D+06 0.37647889D+06 0.10773301D+01  1  2  1  4  7  2       -2 0.299999985235D-03 0.100000000000D+01
  </mgrwgt>
  </event>
  <event>
  8     66 0.26993063E-05 0.13226947E+03 0.75467711E-02 0.10201336E+00
        2 -1    0    0  501    0 0.00000000E+00 0.00000000E+00 0.92600584E+03 0.92600590E+03 0.32000000E+00 0.0000E+00 0.9000E+01
       -2 -1    0    0    0  501 0.00000000E+00 0.00000000E+00 -.70667467E+02 0.70668192E+02 0.32000000E+00 0.0000E+00 0.9000E+01
       25  2    1    2    0    0 0.11595488E+03 0.31117411E+02 0.73936032E+03 0.80655881E+03 0.29911470E+03 0.0000E+00 0.0000E+00
       23  2    1    2    0    0 -.11595488E+03 -.31117411E+02 0.11597805E+03 0.19011528E+03 0.90989463E+02 0.0000E+00 0.0000E+00
       24  1    3    3    0    0 -.10557995E+01 0.12719715E+03 0.36531475E+03 0.39509785E+03 0.80419002E+02 0.0000E+00 0.9000E+01
      -13  1    4    4    0    0 -.10025973E+02 -.41423611E+02 0.21197082E+02 0.47600033E+02 0.10565837E+00 0.0000E+00 0.9000E+01
       13  1    4    4    0    0 -.10592891E+03 0.10306200E+02 0.94780972E+02 0.14251525E+03 0.10565837E+00 0.0000E+00 0.9000E+01
      -24  1    3    3    0    0 0.11701068E+03 -.96079740E+02 0.37404557E+03 0.41146096E+03 0.80419002E+02 0.0000E+00 0.9000E+01
#aMCatNLO 1  0  0  2  1 0.71458095D+02 0.00000000D+00  -5  7  0 0.00000000D+00 0.00000000D+00 0.00000000D+00 0.00000000D+00 0.00000000D+00
  <mgrwgt>
 0.6021920839D-03    9    2    0
 0.255810234558481D+03 0.000000000000000D+00 0.000000000000000D+00 0.255810234558481D+03
 0.255810234558481D+03 0.000000000000000D+00 0.000000000000000D+00 -.255810234558481D+03
 0.158938258743962D+03 -.105579800730521D+01 0.127197149164430D+03 0.511265554599712D+02
 0.572905131628125D+02 -.100258447120364D+02 -.414236804490821D+02 -.382852978873205D+02
 0.119173287398372D+03 -.105929038300982D+03 0.103062693140572D+02 -.536198851806873D+02
 0.176218409811815D+03 0.117010681020324D+03 -.960797380294054D+02 0.407786276080366D+02
 0.000000000000000D+00 -.000000000000000D+00 0.000000000000000D+00 -.000000000000000D+00
 0.266890648089258D+03 0.000000000000000D+00 0.000000000000000D+00 0.266890648089258D+03
 0.406777287054745D+03 0.000000000000000D+00 0.000000000000000D+00 -.406777287054745D+03
 0.148559757096630D+03 0.149078049183995D+02 0.112989460364906D+03 0.511265554599712D+02
 0.606470643001186D+02 -.390317542751726D+01 -.468728876375659D+02 -.382852978873205D+02
 0.108321182548948D+03 -.941187787254692D+02 -.204922518477257D+00 -.536198851806873D+02
 0.199058642968709D+03 0.136492998138177D+03 -.113419100577593D+03 0.407786276080366D+02
 0.157081288229598D+03 -.533788489035900D+02 0.475074503687294D+02 -.139886638965487D+03
0.288992138308D-05 0.000000000000D+00 0.000000000000D+00 0.158326079372D-06 0.000000000000D+00  7 2 -2 24 -13 13 -24 21 0 0.14246250D+00 0.10871978D-01 0.55454320D+05 0.55454320D+05 0.55454320D+05 0.11433611D+01  1  2  2  2  7  2       -2 0.541688090374D-03 0.100000000000D+01
-.159213577763D-06 0.000000000000D+00 -.110980590448D-07 0.158326079372D-06 0.000000000000D+00  7 2 -2 24 -13 13 -24 21 2 0.14246250D+00 0.10871978D-01 0.55454320D+05 0.55454320D+05 0.55454320D+05 0.11433611D+01  1  2  3  2  7  2       -2 -.390130775496D-04 0.100000000000D+01
0.185830942942D-06 0.000000000000D+00 0.000000000000D+00 0.158326079372D-06 0.000000000000D+00  7 2 -2 24 -13 13 -24 21 2 0.14246250D+00 0.10871978D-01 0.55454320D+05 0.55454320D+05 0.55454320D+05 0.11433611D+01  1  2 15  2  7  2       -2 0.455352934717D-04 0.100000000000D+01
0.601787063269D-05 0.000000000000D+00 0.000000000000D+00 0.158326079372D-06 0.000000000000D+00  7 2 -2 24 -13 13 -24 21 2 0.14246250D+00 0.17407647D-01 0.74784263D+05 0.74784263D+05 0.74784263D+05 0.11322269D+01  1  2 12  2  7  2       -2 0.687685971222D-03 0.100000000000D+01
-.607865249533D-05 0.000000000000D+00 0.000000000000D+00 0.158326079372D-06 0.000000000000D+00  7 2 -2 24 -13 13 -24 21 2 0.14246250D+00 0.10871978D-01 0.55454320D+05 0.55454320D+05 0.55454320D+05 0.11433611D+01  1  2  4  2  7  2       -2 -.148948943005D-02 0.100000000000D+01
-.687593536443D-05 0.000000000000D+00 -.104845096728D-05 0.158326079372D-06 0.000000000000D+00  7 2 -2 24 -13 13 -24 21 2 0.14246250D+00 0.17929873D-01 0.55454320D+05 0.55454320D+05 0.55454320D+05 0.11433611D+01  1  2  5  2  7  2       -2 -.765107761470D-03 0.100000000000D+01
0.666734150474D-05 0.000000000000D+00 0.929665984081D-06 0.158326079372D-06 0.000000000000D+00  7 2 -2 24 -13 13 -24 21 2 0.14246250D+00 0.10871978D-01 0.55454320D+05 0.55454320D+05 0.55454320D+05 0.11433611D+01  1  2  6  2  7  2       -2 0.163373950155D-02 0.100000000000D+01
0.323671936542D-06 0.000000000000D+00 0.000000000000D+00 0.158326079372D-06 0.000000000000D+00  7 2 21 24 -13 13 -24 2 2 0.14246250D+00 0.17407647D-01 0.74784263D+05 0.74784263D+05 0.74784263D+05 0.11322269D+01  1  2 12  4  7  2       -2 0.490693986642D-03 0.100000000000D+01
-.340535061329D-06 0.000000000000D+00 -.591405460390D-07 0.158326079372D-06 0.000000000000D+00  7 2 21 24 -13 13 -24 2 2 0.14246250D+00 0.17929873D-01 0.55454320D+05 0.55454320D+05 0.55454320D+05 0.11433611D+01  1  2  5  4  7  2       -2 -.503540490301D-03 0.100000000000D+01
  </mgrwgt>
  </event>
  <event>
  8     66 0.26993063E-05 0.35494377E+03 0.75467711E-02 0.93486797E-01
        2 -1    0    0  501    0 0.00000000E+00 0.00000000E+00 0.28000068E+04 0.28000068E+04 0.32000000E+00 0.0000E+00 0.9000E+01
       -2 -1    0    0    0  501 0.00000000E+00 0.00000000E+00 -.47671122E+02 0.47672196E+02 0.32000000E+00 0.0000E+00 0.9000E+01
       25  2    1    2    0    0 -.28191283E+03 -.85584850E+02 0.18222626E+04 0.18700518E+04 0.29942152E+03 0.0000E+00 0.0000E+00
       23  2    1    2    0    0 0.28191283E+03 0.85584850E+02 0.93007307E+03 0.97762717E+03 0.62604862E+02 0.0000E+00 0.0000E+00
       24  1    3    3    0    0 0.26449980E+02 -.26692976E+02 0.26648509E+03 0.28088011E+03 0.80419002E+02 0.0000E+00 0.9000E+01
      -11  1    4    4    0    0 0.38521849E+02 -.14917027E+01 0.18534250E+03 0.18930927E+03 0.51099893E-03 0.0000E+00 0.9000E+01
       11  1    4    4    0    0 0.24339098E+03 0.87076553E+02 0.74473056E+03 0.78831790E+03 0.51099893E-03 0.0000E+00 0.9000E+01
      -24  1    3    3    0    0 -.30836281E+03 -.58891874E+02 0.15557775E+04 0.15891717E+04 0.80419002E+02 0.0000E+00 0.9000E+01
#aMCatNLO 1  0  0  1  1 0.32631557D+03 0.00000000D+00  -5  7  0 0.00000000D+00 0.00000000D+00 0.00000000D+00 0.00000000D+00 0.00000000D+00
  <mgrwgt>
 0.6468523938D-02    3    2    0
 0.365350540591362D+03 0.000000000000000D+00 0.000000000000000D+00 0.365350540591362D+03
 0.365350540591362D+03 0.000000000000000D+00 0.000000000000000D+00 -.365350540591362D+03
 0.908715910074893D+02 0.264499798272920D+02 -.266929764309877D+02 -.194502872537260D+02
 0.396431118005682D+02 0.385218493851603D+02 -.149170266618318D+01 0.924219975628573D+01
 0.267041937680756D+03 0.243390982938850D+03 0.870765530643428D+02 -.670067146693990D+02
 0.333144440693911D+03 -.308362812151302D+03 -.588918739671719D+02 0.772148021668393D+02
 0.000000000000000D+00 -.000000000000000D+00 0.000000000000000D+00 -.000000000000000D+00
 0.442419470477524D+03 0.000000000000000D+00 0.000000000000000D+00 0.442419470477524D+03
 0.102956173054688D+04 0.000000000000000D+00 0.000000000000000D+00 -.102956173054688D+04
 0.116287151630045D+03 0.561414446645951D+02 -.593743227041648D+02 -.194502872537260D+02
 0.554776416378274D+02 0.521552325098857D+02 -.164979449386851D+02 0.924219975628573D+01
 0.336768223498266D+03 0.329933351080279D+03 -.818048851406621D+01 -.670067146693990D+02
 0.291720645105335D+03 -.218802702416859D+03 -.157470538729369D+03 0.772148021668393D+02
 0.671727539152930D+03 -.219427325837901D+03 0.241523294886285D+03 -.587142260069356D+03
0.209333540545D-03 0.000000000000D+00 0.000000000000D+00 0.130438006099D-08 0.000000000000D+00  7 2 -2 24 -11 11 -24 21 0 0.43077035D+00 0.73341027D-02 0.12598508D+06 0.12598508D+06 0.12598508D+06 0.11135815D+01  1  2  2  1  7  1        2 0.639846461031D-02 0.100000000000D+01
-.116178330271D-04 0.000000000000D+00 -.803895914481D-06 0.130438006099D-08 0.000000000000D+00  7 2 -2 24 -11 11 -24 21 2 0.43077035D+00 0.73341027D-02 0.12598508D+06 0.12598508D+06 0.12598508D+06 0.11135815D+01  1  2  3  1  7  1        2 -.440358209531D-03 0.100000000000D+01
0.134661863879D-04 0.000000000000D+00 0.000000000000D+00 0.130438006099D-08 0.000000000000D+00  7 2 -2 24 -11 11 -24 21 2 0.43077035D+00 0.73341027D-02 0.12598508D+06 0.12598508D+06 0.12598508D+06 0.11135815D+01  1  2 15  1  7  1        2 0.510417537687D-03 0.100000000000D+01
  </mgrwgt>
  </event>
  <event>
  9     66 0.26993063E-05 0.34183964E+03 0.75467711E-02 0.98256681E-01
        2 -1    0    0  501    0 0.00000000E+00 0.00000000E+00 0.14992247E+04 0.14992248E+04 0.32000000E+00 0.0000E+00 0.9000E+01
       -2 -1    0    0    0  502 0.00000000E+00 0.00000000E+00 -.10400201E+03 0.10400250E+03 0.32000000E+00 0.0000E+00 0.9000E+01
       25  2    1    2    0    0 0.31599313E+03 -.40858584E+02 0.69922646E+03 0.82615586E+03 0.30347123E+03 0.0000E+00 0.0000E+00
       23  2    1    2    0    0 -.27382490E+03 0.63571701E+02 0.56460839E+03 0.63722369E+03 0.90829302E+02 0.0000E+00 0.0000E+00
       24  1    3    3    0    0 0.26370087E+03 -.89086127E+02 0.31842066E+03 0.43050368E+03 0.80419002E+02 0.0000E+00 0.9000E+01
      -13  1    4    4    0    0 -.24237817E+03 0.30667247E+02 0.42304166E+03 0.48852013E+03 0.10565837E+00 0.0000E+00 0.9000E+01
       13  1    4    4    0    0 -.31446729E+02 0.32904454E+02 0.14156673E+03 0.14870356E+03 0.10565837E+00 0.0000E+00 0.9000E+01
      -24  1    3    3    0    0 0.52292257E+02 0.48227543E+02 0.38080580E+03 0.39565218E+03 0.80419002E+02 0.0000E+00 0.9000E+01
       21  1    1    2  501  502 -.42168233E+02 -.22713117E+02 0.13138788E+03 0.13984771E+03 0.75000000E+00 0.0000E+00 0.9000E+01
#aMCatNLO 2  0  0  2  1 0.47896196D+02 0.00000000D+00  -5  7  0 0.00000000D+00 0.00000000D+00 0.00000000D+00 0.00000000D+00 0.00000000D+00
  <mgrwgt>
 0.3943156688D-03    1    2    0
 0.368071717414823D+03 0.000000000000000D+00 0.000000000000000D+00 0.368071717414823D+03
 0.368071717414823D+03 0.000000000000000D+00 0.000000000000000D+00 -.368071717414823D+03
 0.296766601404154D+03 0.246384376086784D+03 -.984133254116583D+02 -.105890303410400D+03
 0.257775705075759D+03 -.256743990847469D+03 0.229295254936306D+02 0.225258776890456D+01
 0.533473164121548D+02 -.344734286374636D+02 0.312740302966772D+02 0.260663368227830D+02
 0.128253811937579D+03 0.448330433981480D+02 0.442097696213506D+02 0.775713788187122D+02
 0.000000000000000D+00 -.000000000000000D+00 -.000000000000000D+00 0.000000000000000D+00
 0.405531220009189D+03 0.000000000000000D+00 0.000000000000000D+00 0.405531220009189D+03
 0.384484971654502D+03 0.000000000000000D+00 0.000000000000000D+00 -.384484971654502D+03
 0.308471167377763D+03 0.263700875142871D+03 -.890861226093397D+02 -.105890303410400D+03
 0.244321248112209D+03 -.242378460696497D+03 0.306672450319133D+02 0.225258776890456D+01
 0.524503207321148D+02 -.314464452298814D+02 0.329044573264323D+02 0.260663368227830D+02
 0.132457204274814D+03 0.522922640532623D+02 0.482275369294046D+02 0.775713788187122D+02
 0.523162511667909D+02 -.421682332697552D+02 -.227131166784106D+02 0.210462483546870D+02
0.670496240517D-05 0.000000000000D+00 0.000000000000D+00 0.485170013048D-07 0.140172990181D-09  7 2 -2 24 -13 13 -24 21 2 0.23064841D+00 0.16000239D-01 0.13498837D+06 0.13498837D+06 0.13498837D+06 0.11111840D+01  1  2  1  2  7  2       -2 0.394315668761D-03 0.100000000000D+01
  </mgrwgt>
  </event>
  <event>
  8     66 0.26993063E-05 0.49616875E+03 0.75467711E-02 0.83834780E-01
        2 -1    0    0  501    0 0.00000000E+00 0.00000000E+00 0.18033082E+03 0.18033111E+03 0.32000000E+00 0.0000E+00 0.9000E+01
       -2 -1    0    0    0  501 0.00000000E+00 0.00000000E+00 -.18097779E+04 0.18097780E+04 0.32000000E+00 0.0000E+00 0.9000E+01
       25  2    1    2    0    0 -.35104828E+03 0.31634350E+03 -.44487557E+03 0.71176885E+03 0.29221997E+03 0.0000E+00 0.0000E+00
       23  2    1    2    0    0 0.35104828E+03 -.31634350E+03 -.11845716E+04 0.12783402E+04 0.87383462E+02 0.0000E+00 0.0000E+00
       24  1    3    3    0    0 -.21442536E+03 0.26950748E+03 -.41243706E+03 0.54330844E+03 0.80419002E+02 0.0000E+00 0.9000E+01
      -11  1    4    4    0    0 0.26536444E+03 -.25461907E+03 -.81815223E+03 0.89700737E+03 0.51099893E-03 0.0000E+00 0.9000E+01
       11  1    4    4    0    0 0.85683845E+02 -.61724431E+02 -.36641933E+03 0.38133286E+03 0.51099893E-03 0.0000E+00 0.9000E+01
      -24  1    3    3    0    0 -.13662292E+03 0.46836019E+02 -.32438507E+02 0.16846041E+03 0.80419002E+02 0.0000E+00 0.9000E+01
#aMCatNLO 1  0  0  1  1 0.13010064D+04 0.00000000D+00  -5  7  0 0.00000000D+00 0.00000000D+00 0.00000000D+00 0.00000000D+00 0.00000000D+00
  <mgrwgt>
 0.4365038163D-02    5    2    0
 0.571278437813439D+03 0.000000000000000D+00 0.000000000000000D+00 0.571278437813439D+03
 0.571278437813439D+03 0.000000000000000D+00 0.000000000000000D+00 -.571278437813439D+03
 0.358142939806967D+03 -.214425362683873D+03 0.269507478228242D+03 0.564502648014141D+02
 0.395609817875274D+03 0.265364440292295D+03 -.254619066855455D+03 -.145801140672225D+03
 0.141641148056452D+03 0.856838447011811D+02 -.617244306537043D+02 -.943959122020109D+02
 0.247162969888184D+03 -.136622922309604D+03 0.468360192809167D+02 0.183746788072822D+03
 0.000000000000000D+00 -.000000000000000D+00 0.000000000000000D+00 0.000000000000000D+00
 0.243098876791650D+04 0.000000000000000D+00 0.000000000000000D+00 0.243098876791650D+04
 0.113608843802993D+04 0.000000000000000D+00 0.000000000000000D+00 -.113608843802993D+04
 0.200344521803186D+03 -.173443190769649D+03 0.200384291218110D+02 0.564502648014141D+02
 0.934604514519251D+03 0.362976430176161D+03 -.848808421892133D+03 -.145801140672225D+03
 0.299820946586695D+03 0.118078619337872D+03 -.258919777975638D+03 -.943959122020109D+02
 0.296718912578210D+03 -.967125172594936D+02 -.196108908531659D+03 0.183746788072822D+03
 0.183558831045909D+04 -.210899341484890D+03 0.128379867927762D+04 0.129490032988657D+04
0.423673733241D-02 0.000000000000D+00 0.000000000000D+00 0.327443843789D-08 0.000000000000D+00  7 2 -2 24 -11 11 -24 21 0 0.27743227D-01 0.27842740D+00 0.24618343D+06 0.24618343D+06 0.24618343D+06 0.10909621D+01  1  2  2  1  7  1        2 0.392611962627D-02 0.100000000000D+01
-.229687912279D-03 0.000000000000D+00 -.162701869150D-04 0.327443843789D-08 0.000000000000D+00  7 2 -2 24 -11 11 -24 21 2 0.27743227D-01 0.27842740D+00 0.24618343D+06 0.24618343D+06 0.24618343D+06 0.10909621D+01  1  2  3  1  7  1        2 -.253331646243D-03 0.100000000000D+01
0.266649406188D-03 0.000000000000D+00 0.000000000000D+00 0.327443843789D-08 0.000000000000D+00  7 2 -2 24 -11 11 -24 21 2 0.27743227D-01 0.27842740D+00 0.24618343D+06 0.24618343D+06 0.24618343D+06 0.10909621D+01  1  2 15  1  7  1        2 0.294097901666D-03 0.100000000000D+01
0.527980469364D-02 0.000000000000D+00 -.292139749940D-02 0.327443843789D-08 0.000000000000D+00  7 2 -2 24 -11 11 -24 21 2 0.24021005D+00 0.27842740D+00 0.24618343D+06 0.24618343D+06 0.24618343D+06 0.10909621D+01  1  2  5  1  7  1        2 0.375231673934D-03 0.100000000000D+01
0.983051706953D-03 0.000000000000D+00 -.760868021282D-03 0.327443843789D-08 0.000000000000D+00  7 21 -2 24 -11 11 -24 -2 2 0.24021005D+00 0.27842740D+00 0.24618343D+06 0.24618343D+06 0.24618343D+06 0.10909621D+01  1  2  5  3  7  1        2 0.229206071021D-04 0.100000000000D+01
  </mgrwgt>
  </event>
  <event>
  8     66 0.26993063E-05 0.28084211E+03 0.75467711E-02 0.94106137E-01
        2 -1    0    0  501    0 0.00000000E+00 0.00000000E+00 0.46159029E+04 0.46159029E+04 0.32000000E+00 0.0000E+00 0.9000E+01
       -2 -1    0    0    0  501 0.00000000E+00 0.00000000E+00 -.59880196E+02 0.59881051E+02 0.32000000E+00 0.0000E+00 0.9000E+01
       25  2    1    2    0    0 -.26983686E+03 0.31524328E+03 0.13899638E+04 0.14813668E+04 0.30042996E+03 0.0000E+00 0.0000E+00
       23  2    1    2    0    0 0.26983686E+03 -.31524328E+03 0.31660589E+04 0.31944171E+04 0.90450943E+02 0.0000E+00 0.0000E+00
       24  1    3    3    0    0 -.29764528E+03 0.20763015E+03 0.10867088E+04 0.11485235E+04 0.80419002E+02 0.0000E+00 0.9000E+01
      -11  1    4    4    0    0 0.25582286E+03 -.29410816E+03 0.30837899E+04 0.31083283E+04 0.51099893E-03 0.0000E+00 0.9000E+01
       11  1    4    4    0    0 0.14013998E+02 -.21135119E+02 0.82269067E+02 0.86088819E+02 0.51099893E-03 0.0000E+00 0.9000E+01
      -24  1    3    3    0    0 0.27808422E+02 0.10761313E+03 0.30325495E+03 0.33284332E+03 0.80419002E+02 0.0000E+00 0.9000E+01
#aMCatNLO 1  0  0  1  2 0.12054803D+03 0.00000000D+00  -5  7  0 0.00000000D+00 0.00000000D+00 0.00000000D+00 0.00000000D+00 0.00000000D+00
  <mgrwgt>
 0.4576201609D-03    9    2    0
 0.525740618728334D+03 0.000000000000000D+00 0.000000000000000D+00 0.525740618728334D+03
 0.525740618728334D+03 0.000000000000000D+00 0.000000000000000D+00 -.525740618728334D+03
 0.398654551598136D+03 -.297645280586350D+03 0.207630148489472D+03 -.144066803735119D+03
 0.460355356423261D+03 0.255822860646106D+03 -.294108156412692D+03 0.244912454746503D+03
 0.263561361453302D+02 0.140139982465497D+02 -.211351186148624D+02 -.718056591032911D+01
 0.166115193289940D+03 0.278084216936937D+02 0.107613126538083D+03 -.936650851010554D+02
 0.000000000000000D+00 0.000000000000000D+00 -.000000000000000D+00 0.000000000000000D+00
 0.658250955229175D+03 0.000000000000000D+00 0.000000000000000D+00 0.658250955229175D+03
 0.557332366176489D+03 0.000000000000000D+00 0.000000000000000D+00 -.557332366176489D+03
 0.442469370721177D+03 -.332864034172392D+03 0.240329396637305D+03 -.144066803735119D+03
 0.418935355085093D+03 0.219006022987134D+03 -.259925149121192D+03 0.244912454746503D+03
 0.237027079594429D+02 0.119179811811133D+02 -.191890479801548D+02 -.718056591032911D+01
 0.173261415607453D+03 0.135983619813670D+02 0.120806616409713D+03 -.936650851010554D+02
 0.157214472032498D+03 0.883416680227782D+02 -.820218159456715D+02 0.100918589052686D+03
0.335942836421D-03 0.000000000000D+00 0.000000000000D+00 0.347730558945D-05 0.000000000000D+00  7 2 -2 24 -11 11 -24 21 0 0.71013898D+00 0.92124045D-02 0.21347305D+06 0.21347305D+06 0.21347305D+06 0.10956575D+01  1  2  2  1  7  1        2 0.280159359696D-03 0.100000000000D+01
-.182848464553D-04 0.000000000000D+00 -.129010894764D-05 0.347730558945D-05 0.000000000000D+00  7 2 -2 24 -11 11 -24 21 2 0.71013898D+00 0.92124045D-02 0.21347305D+06 0.21347305D+06 0.21347305D+06 0.10956575D+01  1  2  3  1  7  1        2 -.183054611401D-04 0.100000000000D+01
0.212950106751D-04 0.000000000000D+00 0.000000000000D+00 0.347730558945D-05 0.000000000000D+00  7 2 -2 24 -11 11 -24 21 2 0.71013898D+00 0.92124045D-02 0.21347305D+06 0.21347305D+06 0.21347305D+06 0.10956575D+01  1  2 15  1  7  1        2 0.213190190764D-04 0.100000000000D+01
0.177428322819D-03 0.000000000000D+00 0.000000000000D+00 0.347730558945D-05 0.000000000000D+00  7 2 -2 24 -11 11 -24 21 2 0.90653257D+00 0.92124045D-02 0.27412875D+06 0.27412875D+06 0.27412875D+06 0.10874615D+01  1  2 12  1  7  1        2 0.121903789568D-05 0.100000000000D+01
-.231776364871D-03 0.000000000000D+00 0.000000000000D+00 0.347730558945D-05 0.000000000000D+00  7 2 -2 24 -11 11 -24 21 2 0.71013898D+00 0.92124045D-02 0.21347305D+06 0.21347305D+06 0.21347305D+06 0.10956575D+01  1  2  4  1  7  1        2 -.232037673967D-03 0.100000000000D+01
-.309867386473D-03 0.000000000000D+00 -.701305447450D-04 0.347730558945D-05 0.000000000000D+00  7 2 -2 24 -11 11 -24 21 2 0.89182405D+00 0.92124045D-02 0.21347305D+06 0.21347305D+06 0.21347305D+06 0.10956575D+01  1  2  5  1  7  1        2 -.410071054720D-05 0.100000000000D+01
0.408905796632D-03 0.000000000000D+00 0.945399139864D-04 0.347730558945D-05 0.000000000000D+00  7 2 -2 24 -11 11 -24 21 2 0.71013898D+00 0.92124045D-02 0.21347305D+06 0.21347305D+06 0.21347305D+06 0.10956575D+01  1  2  6  1  7  1        2 0.409366804829D-03 0.100000000000D+01
0.590087444776D-05 0.000000000000D+00 0.000000000000D+00 0.347730558945D-05 0.000000000000D+00  7 21 -2 24 -11 11 -24 -2 2 0.90653257D+00 0.92124045D-02 0.27412875D+06 0.27412875D+06 0.27412875D+06 0.10874615D+01  1  2 12  3  7  1        2 0.978504825483D-10 0.100000000000D+01
-.877936761504D-05 0.000000000000D+00 -.221500815333D-05 0.347730558945D-05 0.000000000000D+00  7 21 -2 24 -11 11 -24 -2 2 0.89182405D+00 0.92124045D-02 0.21347305D+06 0.21347305D+06 0.21347305D+06 0.10956575D+01  1  2  5  3  7  1        2 -.312766311002D-09 0.100000000000D+01
  </mgrwgt>
  </event>
  <event>
  9     66 -.26993063E-05 0.22256532E+03 0.75467711E-02 0.10383011E+00
        2 -1    0    0  501    0 0.00000000E+00 0.00000000E+00 0.78317040E+03 0.78317046E+03 0.32000000E+00 0.0000E+00 0.9000E+01
       -2 -1    0    0    0  502 0.00000000E+00 0.00000000E+00 -.22102113E+03 0.22102136E+03 0.32000000E+00 0.0000E+00 0.9000E+01
       25  2    1    2    0    0 -.96986959E+02 0.13436079E+03 0.66690309E+03 0.75186734E+03 0.30509911E+03 0.0000E+00 0.0000E+00
       23  2    1    2    0    0 0.71586718E+02 -.14582836E+03 -.11903763E+03 0.22099931E+03 0.90995433E+02 0.0000E+00 0.0000E+00
       24  1    3    3    0    0 -.10376790E+03 0.13966012E+02 0.55009581E+03 0.56571675E+03 0.80419002E+02 0.0000E+00 0.9000E+01
      -13  1    4    4    0    0 0.46459288E+02 -.13962677E+03 -.12651171E+03 0.19406011E+03 0.10565837E+00 0.0000E+00 0.9000E+01
       13  1    4    4    0    0 0.25127430E+02 -.62015833E+01 0.74740825E+01 0.26939199E+02 0.10565837E+00 0.0000E+00 0.9000E+01
      -24  1    3    3    0    0 0.67809441E+01 0.12039478E+03 0.11680728E+03 0.18615058E+03 0.80419002E+02 0.0000E+00 0.9000E+01
       21  1    1    2  501  502 0.25400241E+02 0.11467566E+02 0.14283810E+02 0.31325182E+02 0.75000000E+00 0.0000E+00 0.9000E+01
#aMCatNLO 2  0  0  2  1 0.27868931D+02 0.00000000D+00  -5  7  0 0.00000000D+00 0.00000000D+00 0.00000000D+00 0.00000000D+00 0.00000000D+00
  <mgrwgt>
 -.2857559355D-03    3    2    0
 0.401726355947052D+03 0.000000000000000D+00 0.000000000000000D+00 0.401726355947052D+03
 0.401726355947052D+03 0.000000000000000D+00 0.000000000000000D+00 -.401726355947052D+03
 0.306816917430013D+03 -.940254022384015D+02 0.183645142884469D+02 0.280163118942770D+03
 0.320722325008326D+03 0.566007720181991D+02 -.135048346338138D+03 -.285343839108231D+03
 0.282285010964968D+02 0.260081294760223D+02 -.580377734280536D+01 -.931351941365440D+01
 0.147684968359268D+03 0.114165007441801D+02 0.122487609392497D+03 0.144942395791151D+02
 0.000000000000000D+00 0.000000000000000D+00 0.000000000000000D+00 -.000000000000000D+00
 0.414018590713200D+03 0.000000000000000D+00 0.000000000000000D+00 0.414018590713200D+03
 0.418080735078794D+03 0.000000000000000D+00 0.000000000000000D+00 -.418080735078794D+03
 0.309711827154318D+03 -.103767899179507D+03 0.139660233791157D+02 0.280163118942770D+03
 0.321053362623406D+03 0.464593183900414D+02 -.139626956099117D+03 -.285343839108231D+03
 0.275060967033785D+02 0.251274014429034D+02 -.620140376965309D+01 -.931351941365440D+01
 0.145664617410665D+03 0.678093838452867D+01 0.120394770254664D+03 0.144942395791151D+02
 0.281634219002275D+02 0.254002409620339D+02 0.114675662349909D+02 -.406214436559359D+01
-.325508982973D-04 0.000000000000D+00 0.000000000000D+00 0.745728394499D-07 0.000000000000D+00  7 2 -2 24 -13 13 -24 21 2 0.11690908D+00 0.34484990D-01 0.57089545D+05 0.57089545D+05 0.57089545D+05 0.11422643D+01  1  2 13  2  7  2       -2 -.153268887172D-02 0.100000000000D+01
-.630718710419D-05 0.000000000000D+00 0.000000000000D+00 0.745728394499D-07 0.000000000000D+00  7 2 -2 24 -13 13 -24 21 2 0.11690908D+00 0.32672749D-01 0.49535322D+05 0.49535322D+05 0.49535322D+05 0.11476522D+01  1  2  8  2  7  2       -2 -.330661220960D-03 0.100000000000D+01
0.339045480732D-04 0.000000000000D+00 0.000000000000D+00 0.745728394499D-07 0.668632546600D-09  7 2 -2 24 -13 13 -24 21 2 0.12048633D+00 0.34002865D-01 0.57089545D+05 0.57089545D+05 0.57089545D+05 0.11422643D+01  1  2  1  2  7  2       -2 0.157759415719D-02 0.100000000000D+01
  </mgrwgt>
  </event>
  <event>
  9     66 0.26993063E-05 0.25974352E+03 0.75467711E-02 0.10186841E+00
       21 -1    0    0  501  502 0.00000000E+00 0.00000000E+00 0.65446612E+03 0.65446655E+03 0.75000000E+00 0.0000E+00 0.9000E+01
       -2 -1    0    0    0  501 0.00000000E+00 0.00000000E+00 -.18248564E+03 0.18248592E+03 0.32000000E+00 0.0000E+00 0.9000E+01
       25  2    1    2    0    0 -.11552997E+03 0.13113226E+03 0.24740665E+03 0.42665721E+03 0.30047210E+03 0.0000E+00 0.0000E+00
       23  2    1    2    0    0 0.10549264E+03 -.16207286E+03 0.33783018E+02 0.21675119E+03 0.91888405E+02 0.0000E+00 0.0000E+00
       24  1    3    3    0    0 0.55074773E+02 0.19595121E+02 0.45000947E+01 0.99522189E+02 0.80419002E+02 0.0000E+00 0.9000E+01
      -13  1    4    4    0    0 0.21216579E+02 -.23949197E+01 0.29156603E+02 0.36138588E+02 0.10565837E+00 0.0000E+00 0.9000E+01
       13  1    4    4    0    0 0.84276059E+02 -.15967794E+03 0.46264152E+01 0.18061260E+03 0.10565837E+00 0.0000E+00 0.9000E+01
      -24  1    3    3    0    0 -.17060474E+03 0.11153714E+03 0.24290656E+03 0.32713502E+03 0.80419002E+02 0.0000E+00 0.9000E+01
       -2  1    1    2    0  502 0.10037329E+02 0.30940595E+02 0.19079082E+03 0.19354407E+03 0.32000000E+00 0.0000E+00 0.9000E+01
#aMCatNLO 2  0  0  1  2 0.32527964D+02 0.00000000D+00  -5  7  0 0.00000000D+00 0.00000000D+00 0.00000000D+00 0.00000000D+00 0.00000000D+00
  <mgrwgt>
 0.6128732905D-05    2    2    0
 0.288898196120810D+03 0.000000000000000D+00 0.000000000000000D+00 0.288898196120810D+03
 0.288898196120810D+03 0.000000000000000D+00 0.000000000000000D+00 -.288898196120810D+03
 0.110639528172587D+03 0.569763510864921D+02 0.254568409450273D+02 -.433535916141971D+02
 0.262931140111309D+02 0.216704483887303D+02 -.995379619970649D+00 0.148569421633745D+02
 0.191784286035639D+03 0.876639107941204D+02 -.149235172625754D+03 -.826142503799540D+02
 0.249079464022264D+03 -.166310710269343D+03 0.124773711300697D+03 0.111110899830777D+03
 0.000000000000000D+00 0.000000000000000D+00 0.000000000000000D+00 0.000000000000000D+00
 0.409634059387498D+03 0.000000000000000D+00 0.000000000000000D+00 0.409634059387498D+03
 0.291554843923103D+03 0.000000000000000D+00 0.000000000000000D+00 -.291554843923103D+03
 0.108461740140123D+03 0.550747713021774D+02 0.195951213319872D+02 -.433535916141971D+02
 0.260115949717403D+02 0.212164958489196D+02 -.239471217911250D+01 0.148569421633745D+02
 0.198556522135263D+03 0.842761431397978D+02 -.159678144447166D+03 -.826142503799540D+02
 0.245681417315909D+03 -.170604739679887D+03 0.111537139991736D+03 0.111110899830777D+03
 0.122477628747566D+03 0.100373293889926D+02 0.309405953025551D+02 0.118079215464395D+03
-.301756293373D-05 0.000000000000D+00 0.000000000000D+00 0.596680005015D-06 0.000000000000D+00  7 21 -2 24 -13 13 -24 -2 2 0.10090969D+00 0.27818931D-01 0.76444910D+05 0.76444910D+05 0.76444910D+05 0.11314222D+01  1  2 13  3  7  1        2 -.334757882183D-03 0.100000000000D+01
0.310420027146D-05 0.000000000000D+00 0.000000000000D+00 0.596680005015D-06 0.179137435806D-09  7 21 -2 24 -13 13 -24 -2 2 0.10068708D+00 0.28074748D-01 0.76444910D+05 0.76444910D+05 0.76444910D+05 0.11314222D+01  1  2  1  3  7  1        2 0.340886615087D-03 0.100000000000D+01
  </mgrwgt>
  </event>
  <event>
  8     66 0.26993063E-05 0.28518780E+03 0.75467711E-02 0.98595014E-01
        2 -1    0    0  501    0 0.00000000E+00 0.00000000E+00 0.36247719E+03 0.36247733E+03 0.32000000E+00 0.0000E+00 0.9000E+01
       -2 -1    0    0    0  501 0.00000000E+00 0.00000000E+00 -.22889279E+03 0.22889301E+03 0.32000000E+00 0.0000E+00 0.9000E+01
       25  2    1    2    0    0 0.83201228E+02 0.16648152E+03 0.43658336E+02 0.35549304E+03 0.29971772E+03 0.0000E+00 0.0000E+00
       23  2    1    2    0    0 -.83201228E+02 -.16648152E+03 0.89926069E+02 0.23587730E+03 0.11363478E+03 0.0000E+00 0.0000E+00
       24  1    3    3    0    0 -.85943837E+02 0.98508066E+02 0.22634693E+02 0.15514422E+03 0.80419002E+02 0.0000E+00 0.9000E+01
      -13  1    4    4    0    0 -.11139323E+03 -.12426211E+03 0.75009176E+02 0.18296424E+03 0.10565837E+00 0.0000E+00 0.9000E+01
       13  1    4    4    0    0 0.28192006E+02 -.42219405E+02 0.14916893E+02 0.52913063E+02 0.10565837E+00 0.0000E+00 0.9000E+01
      -24  1    3    3    0    0 0.16914507E+03 0.67973453E+02 0.21023643E+02 0.20034883E+03 0.80419002E+02 0.0000E+00 0.9000E+01
#aMCatNLO 1  0  0  1  2 0.13045883D+03 0.00000000D+00  -5  7  0 0.00000000D+00 0.00000000D+00 0.00000000D+00 0.00000000D+00 0.00000000D+00
  <mgrwgt>
 0.3117519779D-03    4    2    0
 0.288042572124426D+03 0.000000000000000D+00 0.000000000000000D+00 0.288042572124426D+03
 0.288042572124426D+03 0.000000000000000D+00 0.000000000000000D+00 -.288042572124426D+03
 0.154012068257188D+03 -.859437948766940D+02 0.985081500646146D+02 -.127400827126955D+02
 0.170425564417771D+03 -.111393180469782D+03 -.124262354958354D+03 0.345731035943585D+02
 0.508577920059160D+02 0.281918556552316D+02 -.422193573568273D+02 0.304304893291334D+01
 0.200789719567978D+03 0.169145119691244D+03 0.679735622505669D+02 -.248760698145763D+02
 0.000000000000000D+00 -.000000000000000D+00 -.000000000000000D+00 -.000000000000000D+00
 0.342374666339107D+03 0.000000000000000D+00 0.000000000000000D+00 0.342374666339107D+03
 0.385791101226141D+03 0.000000000000000D+00 0.000000000000000D+00 -.385791101226141D+03
 0.170220633642670D+03 -.710083712121251D+02 0.131542197311799D+03 -.127400827126955D+02
 0.138707359579851D+03 -.971533115067881D+02 -.927667298805609D+02 0.345731035943585D+02
 0.460638440642206D+02 0.326564444782854D+02 -.323446165103466D+02 0.304304893291334D+01
 0.235680321427947D+03 0.189250633234352D+03 0.112442771777413D+03 -.248760698145763D+02
 0.137493608850558D+03 -.537453949937239D+02 -.118873622698305D+03 -.434164348870337D+02
0.568524734553D-05 0.000000000000D+00 0.000000000000D+00 0.227968615607D-08 0.000000000000D+00  7 2 -2 24 -13 13 -24 21 0 0.55765750D-01 0.35214303D-01 0.81332084D+05 0.81332084D+05 0.81332084D+05 0.11291613D+01  1  2  2  1  7  1        2 0.454419071741D-03 0.100000000000D+01
-.315808976187D-06 0.000000000000D+00 -.218328467668D-07 0.227968615607D-08 0.000000000000D+00  7 2 -2 24 -13 13 -24 21 2 0.55765750D-01 0.35214303D-01 0.81332084D+05 0.81332084D+05 0.81332084D+05 0.11291613D+01  1  2  3  1  7  1        2 -.321842690180D-04 0.100000000000D+01
0.365781621584D-06 0.000000000000D+00 0.000000000000D+00 0.227968615607D-08 0.000000000000D+00  7 2 -2 24 -13 13 -24 21 2 0.55765750D-01 0.35214303D-01 0.81332084D+05 0.81332084D+05 0.81332084D+05 0.11291613D+01  1  2 15  1  7  1        2 0.372770092004D-04 0.100000000000D+01
-.144989721134D-05 0.000000000000D+00 0.000000000000D+00 0.227968615607D-08 0.000000000000D+00  7 2 -2 24 -13 13 -24 21 2 0.55765750D-01 0.35214303D-01 0.81332084D+05 0.81332084D+05 0.81332084D+05 0.11291613D+01  1  2  4  1  7  1        2 -.147759834004D-03 0.100000000000D+01
  </mgrwgt>
  </event>
  <event>
  8     66 0.26993063E-05 0.71678354E+03 0.75467711E-02 0.84925451E-01
        2 -1    0    0  501    0 0.00000000E+00 0.00000000E+00 0.61666112E+03 0.61666120E+03 0.32000000E+00 0.0000E+00 0.9000E+01
       -2 -1    0    0    0  501 0.00000000E+00 0.00000000E+00 -.17923437E+04 0.17923437E+04 0.32000000E+00 0.0000E+00 0.9000E+01
       25  2    1    2    0    0 0.35028537E+02 0.10199846E+04 -.45852375E+03 0.11583400E+04 0.29985301E+03 0.0000E+00 0.0000E+00
       23  2    1    2    0    0 -.35028537E+02 -.10199846E+04 -.71715882E+03 0.12506650E+04 0.90831961E+02 0.0000E+00 0.0000E+00
       24  1    3    3    0    0 0.58329758E+02 0.14241173E+03 -.13253134E+03 0.21843817E+03 0.80419002E+02 0.0000E+00 0.9000E+01
      -11  1    4    4    0    0 0.80638122E+01 -.81973176E+03 -.57616513E+03 0.10019937E+04 0.51099893E-03 0.0000E+00 0.9000E+01
       11  1    4    4    0    0 -.43092350E+02 -.20025285E+03 -.14099370E+03 0.24867123E+03 0.51099893E-03 0.0000E+00 0.9000E+01
      -24  1    3    3    0    0 -.23301221E+02 0.87757288E+03 -.32599241E+03 0.93990179E+03 0.80419002E+02 0.0000E+00 0.9000E+01
#aMCatNLO 1  0  0  2  1 0.46846816D+03 0.00000000D+00  -5  7  0 0.00000000D+00 0.00000000D+00 0.00000000D+00 0.00000000D+00 0.00000000D+00
  <mgrwgt>
 0.9268739891D-03    9    2    0
 0.105131764626764D+04 0.000000000000000D+00 0.000000000000000D+00 0.105131764626764D+04
 0.105131764626764D+04 0.000000000000000D+00 0.000000000000000D+00 -.105131764626764D+04
 0.176161711708619D+03 0.583297579723823D+02 0.142411727492660D+03 -.297030625555660D+02
 0.825830578906684D+03 0.806381221328500D+01 -.819731757772469D+03 -.998547209159200D+02
 0.206068249188245D+03 -.430923496170739D+02 -.200252853867163D+03 -.224937157011742D+02
 0.894574752731735D+03 -.233012205685934D+02 0.877572884146972D+03 0.152051499172660D+03
 0.000000000000000D+00 -.000000000000000D+00 0.000000000000000D+00 -.000000000000000D+00
 0.123189485600165D+04 0.000000000000000D+00 0.000000000000000D+00 0.123189485600165D+04
 0.143152546268959D+04 0.000000000000000D+00 0.000000000000000D+00 -.143152546268959D+04
 0.163343779140409D+03 0.811984982974978D+02 0.112864990934087D+03 -.297030625555660D+02
 0.991608802444564D+03 0.130484657793194D+03 -.977901225010450D+03 -.998547209159200D+02
 0.240527267887125D+03 -.130101353800769D+02 -.239119500937484D+03 -.224937157011742D+02
 0.758710855572970D+03 0.880623958637063D+02 0.733689513652736D+03 0.152051499172660D+03
 0.509229613646168D+03 -.286735416574322D+03 0.370466221361112D+03 -.199630606687940D+03
0.300705239290D-02 0.000000000000D+00 0.000000000000D+00 0.110906667153D-04 0.000000000000D+00  7 2 -2 24 -11 11 -24 21 0 0.94870950D-01 0.27574519D+00 0.10813980D+07 0.10813980D+07 0.10813980D+07 0.10456091D+01  1  2  2  2  7  2       -2 0.660383267833D-03 0.100000000000D+01
-.167034258521D-03 0.000000000000D+00 -.115478729638D-04 0.110906667153D-04 0.000000000000D+00  7 2 -2 24 -11 11 -24 21 2 0.94870950D-01 0.27574519D+00 0.10813980D+07 0.10813980D+07 0.10813980D+07 0.10456091D+01  1  2  3  2  7  2       -2 -.401050759949D-04 0.100000000000D+01
0.191722712564D-03 0.000000000000D+00 0.000000000000D+00 0.110906667153D-04 0.000000000000D+00  7 2 -2 24 -11 11 -24 21 2 0.94870950D-01 0.27574519D+00 0.10813980D+07 0.10813980D+07 0.10813980D+07 0.10456091D+01  1  2 15  2  7  2       -2 0.460327960586D-04 0.100000000000D+01
0.111173255644D-02 0.000000000000D+00 0.000000000000D+00 0.110906667153D-04 0.000000000000D+00  7 2 -2 24 -11 11 -24 21 2 0.94870950D-01 0.39230523D+00 0.16879838D+07 0.16879838D+07 0.16879838D+07 0.10330560D+01  1  2 12  2  7  2       -2 0.407747516685D-04 0.100000000000D+01
-.147979055288D-02 0.000000000000D+00 0.000000000000D+00 0.110906667153D-04 0.000000000000D+00  7 2 -2 24 -11 11 -24 21 2 0.94870950D-01 0.27574519D+00 0.10813980D+07 0.10813980D+07 0.10813980D+07 0.10456091D+01  1  2  4  2  7  2       -2 -.355299045270D-03 0.100000000000D+01
-.257741440433D-02 0.000000000000D+00 -.962497619930D-03 0.110906667153D-04 0.000000000000D+00  7 2 -2 24 -11 11 -24 21 2 0.94870950D-01 0.39952951D+00 0.10813980D+07 0.10813980D+07 0.10813980D+07 0.10456091D+01  1  2  5  2  7  2       -2 -.888331448727D-04 0.100000000000D+01
0.280204174514D-02 0.000000000000D+00 0.899916050699D-03 0.110906667153D-04 0.000000000000D+00  7 2 -2 24 -11 11 -24 21 2 0.94870950D-01 0.27574519D+00 0.10813980D+07 0.10813980D+07 0.10813980D+07 0.10456091D+01  1  2  6  2  7  2       -2 0.672772748086D-03 0.100000000000D+01
0.482789558148D-04 0.000000000000D+00 0.000000000000D+00 0.110906667153D-04 0.000000000000D+00  7 2 21 24 -11 11 -24 2 2 0.94870950D-01 0.39230523D+00 0.16879838D+07 0.16879838D+07 0.16879838D+07 0.10330560D+01  1  2 12  4  7  2       -2 0.122660834861D-04 0.100000000000D+01
-.865144322054D-04 0.000000000000D+00 -.433520518681D-04 0.110906667153D-04 0.000000000000D+00  7 2 21 24 -11 11 -24 2 2 0.94870950D-01 0.39952951D+00 0.10813980D+07 0.10813980D+07 0.10813980D+07 0.10456091D+01  1  2  5  4  7  2       -2 -.211183919168D-04 0.100000000000D+01
  </mgrwgt>
  </event>
  <event>
  8     66 0.26993063E-05 0.37142070E+03 0.75467711E-02 0.90304853E-01
        2 -1    0    0  501    0 0.00000000E+00 0.00000000E+00 0.11590783E+04 0.11590784E+04 0.32000000E+00 0.0000E+00 0.9000E+01
       -2 -1    0    0    0  501 0.00000000E+00 0.00000000E+00 -.49730683E+03 0.49730693E+03 0.32000000E+00 0.0000E+00 0.9000E+01
       25  2    1    2    0    0 -.58631347E+02 0.72095104E+03 0.27148885E+03 0.82930033E+03 0.30137153E+03 0.0000E+00 0.0000E+00
       23  2    1    2    0    0 0.58631347E+02 -.72095104E+03 0.39028265E+03 0.82708499E+03 0.92417439E+02 0.0000E+00 0.0000E+00
       24  1    3    3    0    0 -.12171949E+02 0.21909853E+03 -.31412617E+02 0.23580986E+03 0.80419002E+02 0.0000E+00 0.9000E+01
      -13  1    4    4    0    0 -.14860501E+02 -.16452232E+03 0.59380794E+02 0.17554065E+03 0.10565837E+00 0.0000E+00 0.9000E+01
       13  1    4    4    0    0 0.73491848E+02 -.55642872E+03 0.33090186E+03 0.65154434E+03 0.10565837E+00 0.0000E+00 0.9000E+01
      -24  1    3    3    0    0 -.46459398E+02 0.50185251E+03 0.30290147E+03 0.59349047E+03 0.80419002E+02 0.0000E+00 0.9000E+01
#aMCatNLO 1  0  0  2  1 0.20307890D+02 0.00000000D+00  -5  7  0 0.00000000D+00 0.00000000D+00 0.00000000D+00 0.00000000D+00 0.00000000D+00
  <mgrwgt>
 0.7522567026D-03    9    2    0
 0.759221771028260D+03 0.000000000000000D+00 0.000000000000000D+00 0.759221771028260D+03
 0.759221771028260D+03 0.000000000000000D+00 0.000000000000000D+00 -.759221771028260D+03
 0.270922137059121D+03 -.121719486684071D+02 0.219098531836871D+03 -.137037459867191D+03
 0.165607501198812D+03 -.148606166809482D+02 -.164521812001143D+03 -.117294458964210D+02
 0.566519480049106D+03 0.734919634610707D+02 -.556429231105766D+03 0.770049566767760D+02
 0.515394423749481D+03 -.464593981117154D+02 0.501852511270038D+03 0.717619490868358D+02
 0.000000000000000D+00 0.000000000000000D+00 -.000000000000000D+00 -.000000000000000D+00
 0.761106535775918D+03 0.000000000000000D+00 0.000000000000000D+00 0.761106535775918D+03
 0.816037116548399D+03 0.000000000000000D+00 0.000000000000000D+00 -.816037116548399D+03
 0.272296487793888D+03 -.154848540748254D+02 0.220588112095702D+03 -.137037459867191D+03
 0.164901255987572D+03 -.168762770402513D+02 -.163615511485013D+03 -.117294458964210D+02
 0.562621951275176D+03 0.666057143869391D+02 -.553332969842661D+03 0.770049566767760D+02
 0.518759641301442D+03 -.527663515857494D+02 0.504688304097111D+03 0.717619490868358D+02
 0.585643159662389D+02 0.185217683138870D+02 -.832793486513842D+01 -.549305807724820D+02
0.115571388034D-03 0.000000000000D+00 0.000000000000D+00 0.743676224518D-06 0.000000000000D+00  7 2 -2 24 -13 13 -24 21 0 0.17831976D+00 0.76508755D-01 0.54061861D+06 0.54061861D+06 0.54061861D+06 0.10661213D+01  1  2  2  2  7  2       -2 0.445262427725D-03 0.100000000000D+01
-.641260912569D-05 0.000000000000D+00 -.443824560697D-06 0.743676224518D-06 0.000000000000D+00  7 2 -2 24 -13 13 -24 21 2 0.17831976D+00 0.76508755D-01 0.54061861D+06 0.54061861D+06 0.54061861D+06 0.10661213D+01  1  2  3  2  7  2       -2 -.280810734606D-04 0.100000000000D+01
0.721582192236D-05 0.000000000000D+00 0.000000000000D+00 0.743676224518D-06 0.000000000000D+00  7 2 -2 24 -13 13 -24 21 2 0.17831976D+00 0.76508755D-01 0.54061861D+06 0.54061861D+06 0.54061861D+06 0.10661213D+01  1  2 15  2  7  2       -2 0.315983746255D-04 0.100000000000D+01
0.257082299397D-02 0.000000000000D+00 0.000000000000D+00 0.743676224518D-06 0.000000000000D+00  7 2 -2 24 -13 13 -24 21 2 0.17831976D+00 0.82325110D-01 0.55591258D+06 0.55591258D+06 0.55591258D+06 0.10652719D+01  1  2 12  2  7  2       -2 0.951368567800D-02 0.100000000000D+01
-.259461616156D-02 0.000000000000D+00 0.000000000000D+00 0.743676224518D-06 0.000000000000D+00  7 2 -2 24 -13 13 -24 21 2 0.17831976D+00 0.76508755D-01 0.54061861D+06 0.54061861D+06 0.54061861D+06 0.10661213D+01  1  2  4  2  7  2       -2 -.113619286014D-01 0.100000000000D+01
-.370227172617D-02 0.000000000000D+00 -.193609212606D-03 0.743676224518D-06 0.000000000000D+00  7 2 -2 24 -13 13 -24 21 2 0.17831976D+00 0.82335113D-01 0.54061861D+06 0.54061861D+06 0.54061861D+06 0.10661213D+01  1  2  5  2  7  2       -2 -.137358621473D-01 0.100000000000D+01
0.370701313812D-02 0.000000000000D+00 0.193088946505D-03 0.743676224518D-06 0.000000000000D+00  7 2 -2 24 -13 13 -24 21 2 0.17831976D+00 0.76508755D-01 0.54061861D+06 0.54061861D+06 0.54061861D+06 0.10661213D+01  1  2  6  2  7  2       -2 0.162331597343D-01 0.100000000000D+01
0.365834305403D-04 0.000000000000D+00 0.000000000000D+00 0.743676224518D-06 0.000000000000D+00  7 2 21 24 -13 13 -24 2 2 0.17831976D+00 0.82325110D-01 0.55591258D+06 0.55591258D+06 0.55591258D+06 0.10652719D+01  1  2 12  4  7  2       -2 0.126701372966D-02 0.100000000000D+01
-.464054893558D-04 0.000000000000D+00 -.239446296118D-05 0.743676224518D-06 0.000000000000D+00  7 2 21 24 -13 13 -24 2 2 0.17831976D+00 0.82335113D-01 0.54061861D+06 0.54061861D+06 0.54061861D+06 0.10661213D+01  1  2  5  4  7  2       -2 -.161259141956D-02 0.100000000000D+01
  </mgrwgt>
  </event>
  <event>
  8     66 0.26993063E-05 0.41386281E+03 0.75467711E-02 0.96756104E-01
        2 -1    0    0  501    0 0.00000000E+00 0.00000000E+00 0.14112987E+04 0.14112987E+04 0.32000000E+00 0.0000E+00 0.9000E+01
       -2 -1    0    0    0  501 0.00000000E+00 0.00000000E+00 -.13054265E+03 0.13054304E+03 0.32000000E+00 0.0000E+00 0.9000E+01
       25  2    1    2    0    0 -.96287726E+02 -.34411300E+03 0.88192755E+03 0.99772987E+03 0.29997266E+03 0.0000E+00 0.0000E+00
       23  2    1    2    0    0 0.96287726E+02 0.34411300E+03 0.39882846E+03 0.54411187E+03 0.96480588E+02 0.0000E+00 0.0000E+00
       24  1    3    3    0    0 -.17511895E+03 -.27008315E+03 0.62852950E+03 0.71072365E+03 0.80419002E+02 0.0000E+00 0.9000E+01
      -11  1    4    4    0    0 0.92342137E+02 0.34499119E+03 0.40288267E+03 0.53838688E+03 0.51099893E-03 0.0000E+00 0.9000E+01
       11  1    4    4    0    0 0.39455891E+01 -.87818729E+00 -.40542087E+01 0.57249886E+01 0.51099893E-03 0.0000E+00 0.9000E+01
      -24  1    3    3    0    0 0.78831227E+02 -.74029849E+02 0.25339805E+03 0.28700622E+03 0.80419002E+02 0.0000E+00 0.9000E+01
#aMCatNLO 1  0  0  2  2 0.45361288D+01 0.00000000D+00  -5  7  0 0.00000000D+00 0.00000000D+00 0.00000000D+00 0.00000000D+00 0.00000000D+00
  <mgrwgt>
 0.1883574238D-02    6    2    0
 0.429226045519690D+03 0.000000000000000D+00 0.000000000000000D+00 0.429226045519690D+03
 0.429226045519690D+03 0.000000000000000D+00 0.000000000000000D+00 -.429226045519690D+03
 0.338784723181034D+03 -.175118952829436D+03 -.270083154958522D+03 0.685296612719820D+02
 0.365906232560540D+03 0.923421366983967D+02 0.344991190821234D+03 -.796327763698430D+02
 0.163311136272271D+02 0.394558911928457D+01 -.878187284964163D+00 -.158229701984082D+02
 0.137430021670578D+03 0.788312270117546D+02 -.740298485777482D+02 0.269260852962692D+02
 0.000000000000000D+00 0.000000000000000D+00 0.000000000000000D+00 0.000000000000000D+00
 0.493518311523460D+03 0.000000000000000D+00 0.000000000000000D+00 0.493518311523460D+03
 0.429312056681376D+03 0.000000000000000D+00 0.000000000000000D+00 -.429312056681376D+03
 0.340383246987546D+03 -.176559480037780D+03 -.271153046101552D+03 0.685296612719820D+02
 0.364432684884819D+03 0.907930750110031D+02 0.343840690247729D+03 -.796327763698430D+02
 0.163173710061075D+02 0.387634110923211D+01 -.929618338954969D+00 -.158229701984082D+02
 0.137330772709047D+03 0.782484545350255D+02 -.744626783831435D+02 0.269260852962692D+02
 0.643662926173161D+02 0.364160938251974D+01 0.270465257592131D+01 0.642062548420842D+02
0.467974846175D-04 0.000000000000D+00 0.000000000000D+00 0.256432572670D-06 0.000000000000D+00  7 2 -2 24 -11 11 -24 21 0 0.21712290D+00 0.20083518D-01 0.17128243D+06 0.17128243D+06 0.17128243D+06 0.11030332D+01  1  2  2  2  7  2       -2 0.170652927483D-02 0.100000000000D+01
-.259566067283D-05 0.000000000000D+00 -.179714662992D-06 0.256432572670D-06 0.000000000000D+00  7 2 -2 24 -11 11 -24 21 2 0.21712290D+00 0.20083518D-01 0.17128243D+06 0.17128243D+06 0.17128243D+06 0.11030332D+01  1  2  3  2  7  2       -2 -.115163898259D-03 0.100000000000D+01
0.302764580066D-05 0.000000000000D+00 0.000000000000D+00 0.256432572670D-06 0.000000000000D+00  7 2 -2 24 -11 11 -24 21 2 0.21712290D+00 0.20083518D-01 0.17128243D+06 0.17128243D+06 0.17128243D+06 0.11030332D+01  1  2 15  2  7  2       -2 0.134330152089D-03 0.100000000000D+01
-.682550227109D-06 0.000000000000D+00 0.000000000000D+00 0.256432572670D-06 0.000000000000D+00  7 2 -2 24 -11 11 -24 21 2 0.21712290D+00 0.20083518D-01 0.17128243D+06 0.17128243D+06 0.17128243D+06 0.11030332D+01  1  2  4  2  7  2       -2 -.302832900056D-04 0.100000000000D+01
0.530901824011D-06 0.000000000000D+00 0.000000000000D+00 0.256432572670D-06 0.815758348160D-07  7 2 -2 24 -11 11 -24 21 2 0.24964498D+00 0.20087542D-01 0.17315039D+06 0.17315039D+06 0.17315039D+06 0.11026663D+01  1  2 11  2  7  2       -2 0.180468070976D-04 0.100000000000D+01
0.395420867768D-06 0.000000000000D+00 0.000000000000D+00 0.256432572670D-06 0.328844098471D-11  7 2 21 24 -11 11 -24 2 2 0.24964498D+00 0.20087542D-01 0.17315039D+06 0.17315039D+06 0.17315039D+06 0.11026663D+01  1  2 11  4  7  2       -2 0.170115192084D-03 0.100000000000D+01
  </mgrwgt>
  </event>
  <event>
  7     66 0.26993063E-05 0.28927532E+03 0.75467711E-02 0.90592393E-01
        2 -1    0    0  501    0 0.00000000E+00 0.00000000E+00 0.21706901E+04 0.21706902E+04 0.32000000E+00 0.0000E+00 0.9000E+01
       -2 -1    0    0    0  501 0.00000000E+00 0.00000000E+00 -.24173278E+03 0.24173299E+03 0.32000000E+00 0.0000E+00 0.9000E+01
       25  2    1    2    0    0 -.59439274E+03 -.11632967E+03 0.10784916E+04 0.12725994E+04 0.29921550E+03 0.0000E+00 0.0000E+00
       24  1    3    3    0    0 -.51000751E+03 -.13929826E+03 0.73366082E+03 0.90787504E+03 0.80419002E+02 0.0000E+00 0.9000E+01
      -11  1    1    2    0    0 -.71091853E+02 -.29903393E+02 0.97998214E+02 0.12470732E+03 0.51099893E-03 0.0000E+00 0.9000E+01
       11  1    1    2    0    0 0.66548460E+03 0.14623306E+03 0.75246758E+03 0.10151164E+04 0.51099893E-03 0.0000E+00 0.9000E+01
      -24  1    3    3    0    0 -.84385236E+02 0.22968586E+02 0.34483074E+03 0.36472439E+03 0.80419002E+02 0.0000E+00 0.9000E+01
#aMCatNLO 1  0  0  2  1 0.37424702D+02 0.00000000D+00  -5  7  0 0.00000000D+00 0.00000000D+00 0.00000000D+00 0.00000000D+00 0.00000000D+00
  <mgrwgt>
 0.1542526198D-01    9    2    0
 0.724380588293889D+03 0.000000000000000D+00 0.000000000000000D+00 0.724380588293889D+03
 0.724380588293889D+03 0.000000000000000D+00 0.000000000000000D+00 -.724380588293889D+03
 0.534924833657935D+03 -.510007523609335D+03 -.139298259451171D+03 0.128717708706785D+02
 0.771779439225745D+02 -.710918339988509D+02 -.299033873113736D+02 -.285894982500081D+01
 0.688458840021078D+03 0.665484598431872D+03 0.146233061314113D+03 -.985987597885596D+02
 0.148199558986191D+03 -.843852408236861D+02 0.229685854484313D+02 0.885859387428819D+02
 0.000000000000000D+00 0.000000000000000D+00 0.000000000000000D+00 -.000000000000000D+00
 0.739307916238317D+03 0.000000000000000D+00 0.000000000000000D+00 0.739307916238317D+03
 0.748465338675048D+03 0.000000000000000D+00 0.000000000000000D+00 -.748465338675048D+03
 0.548625989700625D+03 -.523889212320516D+03 -.141059105872194D+03 0.128717708706785D+02
 0.791227572761708D+02 -.730942483135344D+02 -.301573869617602D+02 -.285894982500081D+01
 0.671158867217256D+03 0.648066135567720D+03 0.144023586758660D+03 -.985987597885596D+02
 0.150336863147000D+03 -.882098788486542D+02 0.224834427314253D+02 0.885859387428819D+02
 0.385287775723135D+02 0.371272039149842D+02 0.470946334386823D+01 -.915742243673100D+01
0.208533921150D-02 0.000000000000D+00 0.000000000000D+00 0.166356616269D-09 0.000000000000D+00  7 2 -2 24 -11 11 -24 21 0 0.33395235D+00 0.37189676D-01 0.49848256D+06 0.49848256D+06 0.49848256D+06 0.10686037D+01  1  2  2  2  7  2       -2 0.950950214035D-02 0.100000000000D+01
-.115759467841D-03 0.000000000000D+00 -.800825165457D-05 0.166356616269D-09 0.000000000000D+00  7 2 -2 24 -11 11 -24 21 2 0.33395235D+00 0.37189676D-01 0.49848256D+06 0.49848256D+06 0.49848256D+06 0.10686037D+01  1  2  3  2  7  2       -2 -.602796803790D-03 0.100000000000D+01
0.131317672784D-03 0.000000000000D+00 0.000000000000D+00 0.166356616269D-09 0.000000000000D+00  7 2 -2 24 -11 11 -24 21 2 0.33395235D+00 0.37189676D-01 0.49848256D+06 0.49848256D+06 0.49848256D+06 0.10686037D+01  1  2 15  2  7  2       -2 0.683813384008D-03 0.100000000000D+01
0.406645904080D-02 0.000000000000D+00 0.000000000000D+00 0.166356616269D-09 0.000000000000D+00  7 2 -2 24 -11 11 -24 21 2 0.33395235D+00 0.38799015D-01 0.52585156D+06 0.52585156D+06 0.52585156D+06 0.10669665D+01  1  2 12  2  7  2       -2 0.194490945686D-01 0.100000000000D+01
-.361586052690D-02 0.000000000000D+00 0.000000000000D+00 0.166356616269D-09 0.000000000000D+00  7 2 -2 24 -11 11 -24 21 2 0.33395235D+00 0.37189676D-01 0.49848256D+06 0.49848256D+06 0.49848256D+06 0.10686037D+01  1  2  4  2  7  2       -2 -.188289494520D-01 0.100000000000D+01
-.303646562417D-01 0.000000000000D+00 -.478516498473D-02 0.166356616269D-09 0.000000000000D+00  7 2 -2 24 -11 11 -24 21 2 0.33395235D+00 0.39304184D-01 0.49848256D+06 0.49848256D+06 0.49848256D+06 0.10686037D+01  1  2  5  2  7  2       -2 -.142566450074D+00 0.100000000000D+01
0.305897974859D-01 0.000000000000D+00 0.477785761883D-02 0.166356616269D-09 0.000000000000D+00  7 2 -2 24 -11 11 -24 21 2 0.33395235D+00 0.37189676D-01 0.49848256D+06 0.49848256D+06 0.49848256D+06 0.10686037D+01  1  2  6  2  7  2       -2 0.159290920190D+00 0.100000000000D+01
0.567851333618D-04 0.000000000000D+00 0.000000000000D+00 0.166356616269D-09 0.000000000000D+00  7 2 21 24 -11 11 -24 2 2 0.33395235D+00 0.38799015D-01 0.52585156D+06 0.52585156D+06 0.52585156D+06 0.10669665D+01  1  2 12  4  7  2       -2 0.293306797873D-02 0.100000000000D+01
-.285194098481D-03 0.000000000000D+00 -.457499280186D-04 0.166356616269D-09 0.000000000000D+00  7 2 21 24 -11 11 -24 2 2 0.33395235D+00 0.39304184D-01 0.49848256D+06 0.49848256D+06 0.49848256D+06 0.10686037D+01  1  2  5  4  7  2       -2 -.144429399500D-01 0.100000000000D+01
  </mgrwgt>
  </event>
  <event>
  8     66 0.26993063E-05 0.52800142E+03 0.75467711E-02 0.91845572E-01
        2 -1    0    0  501    0 0.00000000E+00 0.00000000E+00 0.14175525E+04 0.14175525E+04 0.32000000E+00 0.0000E+00 0.9000E+01
       -2 -1    0    0    0  501 0.00000000E+00 0.00000000E+00 -.68281748E+03 0.68281755E+03 0.32000000E+00 0.0000E+00 0.9000E+01
       25  2    1    2    0    0 -.47771437E+03 0.63404012E+02 -.51005671E+03 0.76236501E+03 0.29801254E+03 0.0000E+00 0.0000E+00
       23  2    1    2    0    0 0.47771437E+03 -.63404012E+02 0.12447917E+04 0.13380051E+04 0.92304124E+02 0.0000E+00 0.0000E+00
       24  1    3    3    0    0 -.33417902E+03 0.15568109E+03 -.35687765E+03 0.51936605E+03 0.80419002E+02 0.0000E+00 0.9000E+01
      -11  1    4    4    0    0 0.43132674E+03 -.29041710E+02 0.10749954E+04 0.11586636E+04 0.51099893E-03 0.0000E+00 0.9000E+01
       11  1    4    4    0    0 0.46387628E+02 -.34362302E+02 0.16979632E+03 0.17934149E+03 0.51099893E-03 0.0000E+00 0.9000E+01
      -24  1    3    3    0    0 -.14353535E+03 -.92277077E+02 -.15317906E+03 0.24299896E+03 0.80419002E+02 0.0000E+00 0.9000E+01
#aMCatNLO 1  0  0  2  1 0.20963869D+03 0.00000000D+00  -5  7  0 0.00000000D+00 0.00000000D+00 0.00000000D+00 0.00000000D+00 0.00000000D+00
  <mgrwgt>
 0.1106212671D-02    4    2    0
 0.983834203907804D+03 0.000000000000000D+00 0.000000000000000D+00 0.983834203907804D+03
 0.983834203907804D+03 0.000000000000000D+00 0.000000000000000D+00 -.983834203907804D+03
 0.687652157142647D+03 -.334179021826603D+03 0.155681089007961D+03 -.574879163968285D+03
 0.835397650786761D+03 0.431326743971325D+03 -.290417101047966D+02 0.714844776122287D+03
 0.128033871598261D+03 0.463876279177264D+02 -.343623018090339D+02 0.114280761578628D+03
 0.316584728287939D+03 -.143535350062448D+03 -.922770770941309D+02 -.254246373732630D+03
 0.000000000000000D+00 -.000000000000000D+00 -.000000000000000D+00 0.000000000000000D+00
 0.122078980383254D+04 0.000000000000000D+00 0.000000000000000D+00 0.122078980383254D+04
 0.103688578151795D+04 0.000000000000000D+00 0.000000000000000D+00 -.103688578151795D+04
 0.677523838996169D+03 -.282108573156875D+03 0.206155369176389D+03 -.574879163968285D+03
 0.870968423990347D+03 0.496410841083894D+03 0.340472978852344D+02 0.714844776122287D+03
 0.129759000175255D+03 0.562203458493856D+02 -.248309961956022D+02 0.114280761578628D+03
 0.300553260472368D+03 -.119996515467662D+03 -.694598023725056D+02 -.254246373732630D+03
 0.278871061716357D+03 -.150526098308743D+03 -.145911868493516D+03 0.183904022314591D+03
0.964661613741D-03 0.000000000000D+00 0.000000000000D+00 0.112089052482D-05 0.000000000000D+00  7 2 -2 24 -11 11 -24 21 0 0.21808501D+00 0.10504885D+00 0.27878550D+06 0.27878550D+06 0.27878550D+06 0.10869162D+01  1  2  2  2  7  2       -2 0.130166457318D-02 0.100000000000D+01
-.283537195241D-04 0.000000000000D+00 -.370455459800D-05 0.112089052482D-05 0.000000000000D+00  7 2 -2 24 -11 11 -24 21 2 0.21808501D+00 0.10504885D+00 0.27878550D+06 0.27878550D+06 0.27878550D+06 0.10869162D+01  1  2  3  2  7  2       -2 -.451987354005D-04 0.100000000000D+01
0.600913145712D-04 0.000000000000D+00 0.000000000000D+00 0.112089052482D-05 0.000000000000D+00  7 2 -2 24 -11 11 -24 21 2 0.21808501D+00 0.10504885D+00 0.27878550D+06 0.27878550D+06 0.27878550D+06 0.10869162D+01  1  2 15  2  7  2       -2 0.957917152585D-04 0.100000000000D+01
-.154346963728D-03 0.000000000000D+00 0.000000000000D+00 0.112089052482D-05 0.000000000000D+00  7 2 -2 24 -11 11 -24 21 2 0.21808501D+00 0.10504885D+00 0.27878550D+06 0.27878550D+06 0.27878550D+06 0.10869162D+01  1  2  4  2  7  2       -2 -.246044881959D-03 0.100000000000D+01
  </mgrwgt>
  </event>
  <event>
  8     66 0.26993063E-05 0.26848184E+03 0.75467711E-02 0.98744854E-01
        2 -1    0    0  501    0 0.00000000E+00 0.00000000E+00 0.31757411E+03 0.31757427E+03 0.32000000E+00 0.0000E+00 0.9000E+01
       -2 -1    0    0    0  501 0.00000000E+00 0.00000000E+00 -.25952887E+03 0.25952907E+03 0.32000000E+00 0.0000E+00 0.9000E+01
       25  2    1    2    0    0 0.17975931E+03 0.25824030E+02 0.10951773E+03 0.36737435E+03 0.29998248E+03 0.0000E+00 0.0000E+00
       23  2    1    2    0    0 -.17975931E+03 -.25824030E+02 -.51472501E+02 0.20972899E+03 0.91414125E+02 0.0000E+00 0.0000E+00
       24  1    3    3    0    0 0.16815051E+03 0.12040133E+03 0.96626679E+02 0.24202274E+03 0.80419002E+02 0.0000E+00 0.9000E+01
      -11  1    4    4    0    0 -.54812017E+02 0.18429001E+02 0.17351122E+02 0.60374222E+02 0.51099893E-03 0.0000E+00 0.9000E+01
       11  1    4    4    0    0 -.12494729E+03 -.44253031E+02 -.68823622E+02 0.14935477E+03 0.51099893E-03 0.0000E+00 0.9000E+01
      -24  1    3    3    0    0 0.11608795E+02 -.94577300E+02 0.12891056E+02 0.12535161E+03 0.80419002E+02 0.0000E+00 0.9000E+01
#aMCatNLO 1  0  0  1  1 0.15355658D+03 0.00000000D+00  -5  7  0 0.00000000D+00 0.00000000D+00 0.00000000D+00 0.00000000D+00 0.00000000D+00
  <mgrwgt>
 0.5111261555D-03    4    2    0
 0.287088407254651D+03 0.000000000000000D+00 0.000000000000000D+00 0.287088407254651D+03
 0.287088407254651D+03 0.000000000000000D+00 0.000000000000000D+00 -.287088407254651D+03
 0.233488029722060D+03 0.168150513917747D+03 0.120401330465289D+03 0.726523802810669D+02
 0.589278674844893D+02 -.548120170616989D+02 0.184290005440311D+02 0.113361497363817D+02
 0.157073601155465D+03 -.124947291868382D+03 -.442530306813928D+02 -.842731256701402D+02
 0.124687316147287D+03 0.116087950123335D+02 -.945773003279277D+02 0.284595652691610D+00
 0.000000000000000D+00 -.000000000000000D+00 -.000000000000000D+00 -.000000000000000D+00
 0.345020239489924D+03 0.000000000000000D+00 0.000000000000000D+00 0.345020239489924D+03
 0.420392872063468D+03 0.000000000000000D+00 0.000000000000000D+00 -.420392872063468D+03
 0.296988271585855D+03 0.223877880085154D+03 0.162281064678709D+03 0.726523802810669D+02
 0.522412620809323D+02 -.431335259122739D+02 0.272055162667093D+02 0.113361497363817D+02
 0.128770566319629D+03 -.949189144490180D+02 -.216863717546926D+02 -.842731256701402D+02
 0.116355548083352D+03 0.369307253679450D+02 -.755475886082311D+02 0.284595652691610D+00
 0.171057463483624D+03 -.122756165091808D+03 -.922526205824947D+02 -.753726325735445D+02
0.900000340387D-05 0.000000000000D+00 0.000000000000D+00 0.113025228488D-05 0.000000000000D+00  7 2 -2 24 -11 11 -24 21 0 0.48857583D-01 0.39927547D-01 0.72082501D+05 0.72082501D+05 0.72082501D+05 0.11335789D+01  1  2  2  1  7  1        2 0.660316323721D-03 0.100000000000D+01
-.497270640117D-06 0.000000000000D+00 -.345623828262D-07 0.113025228488D-05 0.000000000000D+00  7 2 -2 24 -11 11 -24 21 2 0.48857583D-01 0.39927547D-01 0.72082501D+05 0.72082501D+05 0.72082501D+05 0.11335789D+01  1  2  3  1  7  1        2 -.468819500494D-04 0.100000000000D+01
0.587566570064D-06 0.000000000000D+00 0.000000000000D+00 0.113025228488D-05 0.000000000000D+00  7 2 -2 24 -11 11 -24 21 2 0.48857583D-01 0.39927547D-01 0.72082501D+05 0.72082501D+05 0.72082501D+05 0.11335789D+01  1  2 15  1  7  1        2 0.553949185135D-04 0.100000000000D+01
-.167273630137D-05 0.000000000000D+00 0.000000000000D+00 0.113025228488D-05 0.000000000000D+00  7 2 -2 24 -11 11 -24 21 2 0.48857583D-01 0.39927547D-01 0.72082501D+05 0.72082501D+05 0.72082501D+05 0.11335789D+01  1  2  4  1  7  1        2 -.157703136682D-03 0.100000000000D+01
  </mgrwgt>
  </event>
  <event>
  8     66 0.26993063E-05 0.21843599E+03 0.75467711E-02 0.98226354E-01
        2 -1    0    0  501    0 0.00000000E+00 0.00000000E+00 0.18287737E+04 0.18287737E+04 0.32000000E+00 0.0000E+00 0.9000E+01
       -2 -1    0    0    0  501 0.00000000E+00 0.00000000E+00 -.34509715E+03 0.34509730E+03 0.32000000E+00 0.0000E+00 0.9000E+01
       25  2    1    2    0    0 0.16073295E+03 -.11168198E+02 0.17882597E+04 0.18205441E+04 0.30091277E+03 0.0000E+00 0.0000E+00
       23  2    1    2    0    0 -.16073295E+03 0.11168198E+02 -.30458312E+03 0.35332689E+03 0.78161368E+02 0.0000E+00 0.0000E+00
       24  1    3    3    0    0 0.82900491E+02 -.70929738E+02 0.14935238E+04 0.14996613E+04 0.80419002E+02 0.0000E+00 0.9000E+01
      -11  1    4    4    0    0 -.16388633E+03 0.19982179E+02 -.26164526E+03 0.30938044E+03 0.51099893E-03 0.0000E+00 0.9000E+01
       11  1    4    4    0    0 0.31533729E+01 -.88139810E+01 -.42937863E+02 0.43946446E+02 0.51099893E-03 0.0000E+00 0.9000E+01
      -24  1    3    3    0    0 0.77832463E+02 0.59761541E+02 0.29473590E+03 0.32088285E+03 0.80419002E+02 0.0000E+00 0.9000E+01
#aMCatNLO 1  0  0  2  1 0.26055857D+03 0.00000000D+00  -5  7  0 0.00000000D+00 0.00000000D+00 0.00000000D+00 0.00000000D+00 0.00000000D+00
  <mgrwgt>
 0.1593122386D-01    3    2    0
 0.794421036651031D+03 0.000000000000000D+00 0.000000000000000D+00 0.794421036651031D+03
 0.794421036651031D+03 0.000000000000000D+00 0.000000000000000D+00 -.794421036651031D+03
 0.657185540389118D+03 0.829004908845858D+02 -.709297384469562D+02 0.643056839911611D+03
 0.667624636820418D+03 -.163886326680924D+03 0.199821786352673D+02 -.646888429447936D+03
 0.100223810712971D+03 0.315337286459643D+01 -.881398098986176D+01 -.997856814002725D+02
 0.163808085379554D+03 0.778324629317415D+02 0.597615408015506D+02 0.103617270936598D+03
 0.000000000000000D+00 0.000000000000000D+00 -.000000000000000D+00 0.000000000000000D+00
 0.169013729563014D+04 0.000000000000000D+00 0.000000000000000D+00 0.169013729563014D+04
 0.824208508487884D+03 0.000000000000000D+00 0.000000000000000D+00 -.824208508487884D+03
 0.649344170677304D+03 0.334126986965851D+02 0.232836476293957D+02 0.643056839911611D+03
 0.691941615473544D+03 -.215382998811269D+03 0.118020010564248D+03 -.646888429447936D+03
 0.100042446526036D+03 -.443216831105988D+01 0.562714656469209D+01 -.997856814002725D+02
 0.168736953845684D+03 0.652365612427577D+02 0.837412435996832D+02 0.103617270936598D+03
 0.904280617595455D+03 0.121165907182986D+03 -.230672048358019D+03 0.865928787142255D+03
0.345087989452D-02 0.000000000000D+00 0.000000000000D+00 0.583347352894D-07 0.000000000000D+00  7 2 -2 24 -11 11 -24 21 0 0.28134982D+00 0.53091882D-01 0.47714280D+05 0.47714280D+05 0.47714280D+05 0.11490872D+01  1  2  2  2  7  2       -2 0.137856186892D-01 0.100000000000D+01
0.196857302152D-03 0.000000000000D+00 -.132522874325D-04 0.583347352894D-07 0.000000000000D+00  7 2 -2 24 -11 11 -24 21 2 0.28134982D+00 0.53091882D-01 0.47714280D+05 0.47714280D+05 0.47714280D+05 0.11490872D+01  1  2  3  2  7  2       -2 0.103837421954D-02 0.100000000000D+01
0.209911314826D-03 0.000000000000D+00 0.000000000000D+00 0.583347352894D-07 0.000000000000D+00  7 2 -2 24 -11 11 -24 21 2 0.28134982D+00 0.53091882D-01 0.47714280D+05 0.47714280D+05 0.47714280D+05 0.11490872D+01  1  2 15  2  7  2       -2 0.110723095015D-02 0.100000000000D+01
  </mgrwgt>
  </event>
  <event>
  8     66 0.26993063E-05 0.79407289E+03 0.75467711E-02 0.83708126E-01
        2 -1    0    0  501    0 0.00000000E+00 0.00000000E+00 0.22808355E+04 0.22808355E+04 0.32000000E+00 0.0000E+00 0.9000E+01
       -2 -1    0    0    0  501 0.00000000E+00 0.00000000E+00 -.69182477E+03 0.69182485E+03 0.32000000E+00 0.0000E+00 0.9000E+01
       25  2    1    2    0    0 0.61118481E+03 -.10412548E+04 0.48855628E+03 0.13364606E+04 0.29946796E+03 0.0000E+00 0.0000E+00
       23  2    1    2    0    0 -.61118481E+03 0.10412548E+04 0.11004544E+04 0.16361998E+04 0.91603969E+02 0.0000E+00 0.0000E+00
       24  1    3    3    0    0 0.10635477E+03 -.81221275E+02 0.68991363E+02 0.17069053E+03 0.80419002E+02 0.0000E+00 0.9000E+01
      -11  1    4    4    0    0 -.11195941E+02 0.59590265E+01 0.21693271E+02 0.25128810E+02 0.51099893E-03 0.0000E+00 0.9000E+01
       11  1    4    4    0    0 -.59998886E+03 0.10352958E+04 0.10787611E+04 0.16110710E+04 0.51099893E-03 0.0000E+00 0.9000E+01
      -24  1    3    3    0    0 0.50483003E+03 -.96003357E+03 0.41956491E+03 0.11657700E+04 0.80419002E+02 0.0000E+00 0.9000E+01
#aMCatNLO 1  0  0  1  2 0.47854871D+03 0.00000000D+00  -5  7  0 0.00000000D+00 0.00000000D+00 0.00000000D+00 0.00000000D+00 0.00000000D+00
  <mgrwgt>
 0.2605499576D-02    9    2    0
 0.125616026685775D+04 0.000000000000000D+00 0.000000000000000D+00 0.125616026685775D+04
 0.125616026685775D+04 0.000000000000000D+00 0.000000000000000D+00 -.125616026685775D+04
 0.158330496125774D+03 0.106354772894731D+03 -.812212751413571D+02 -.263267315856948D+02
 0.160125180351046D+02 -.111959414772574D+02 0.595902650083634D+01 0.977453995974791D+01
 0.122396952364108D+04 -.599988863821111D+03 0.103529581548554D+04 0.257443843451240D+03
 0.111400799591355D+04 0.504830032403637D+03 -.960033566845019D+03 -.240891651825293D+03
 0.000000000000000D+00 0.000000000000000D+00 -.000000000000000D+00 0.000000000000000D+00
 0.168561602574544D+04 0.000000000000000D+00 0.000000000000000D+00 0.168561602574544D+04
 0.141945951436267D+04 0.000000000000000D+00 0.000000000000000D+00 -.141945951436267D+04
 0.136957882712376D+03 0.905828503100645D+02 -.582399872630974D+02 -.263267315856948D+02
 0.184430458026960D+02 -.130362796835865D+02 0.864058557430824D+01 0.977453995974791D+01
 0.147324138332951D+04 -.744052107307493D+03 0.124521054550425D+04 0.257443843451240D+03
 0.928849298295402D+03 0.395717079084721D+03 -.801044947796957D+03 -.240891651825293D+03
 0.547583929968127D+03 0.270788457596293D+03 -.394566196018505D+03 0.266156511382769D+03
0.480397456453D-02 0.000000000000D+00 0.000000000000D+00 0.225066512178D-04 0.000000000000D+00  7 2 -2 24 -11 11 -24 21 0 0.35089777D+00 0.10643459D+00 0.15043624D+07 0.15043624D+07 0.15043624D+07 0.10362583D+01  1  2  2  1  7  1        2 0.186239982851D-02 0.100000000000D+01
-.266702506775D-03 0.000000000000D+00 -.184485272434D-04 0.225066512178D-04 0.000000000000D+00  7 2 -2 24 -11 11 -24 21 2 0.35089777D+00 0.10643459D+00 0.15043624D+07 0.15043624D+07 0.15043624D+07 0.10362583D+01  1  2  3  1  7  1        2 -.111028736097D-03 0.100000000000D+01
0.308008264875D-03 0.000000000000D+00 0.000000000000D+00 0.225066512178D-04 0.000000000000D+00  7 2 -2 24 -11 11 -24 21 2 0.35089777D+00 0.10643459D+00 0.15043624D+07 0.15043624D+07 0.15043624D+07 0.10362583D+01  1  2 15  1  7  1        2 0.128224397926D-03 0.100000000000D+01
0.256595140588D-02 0.000000000000D+00 0.000000000000D+00 0.225066512178D-04 0.000000000000D+00  7 2 -2 24 -11 11 -24 21 2 0.48756555D+00 0.10643459D+00 0.22144926D+07 0.22144926D+07 0.22144926D+07 0.10256253D+01  1  2 12  1  7  1        2 0.286215257604D-03 0.100000000000D+01
-.304000550244D-02 0.000000000000D+00 0.000000000000D+00 0.225066512178D-04 0.000000000000D+00  7 2 -2 24 -11 11 -24 21 2 0.35089777D+00 0.10643459D+00 0.15043624D+07 0.15043624D+07 0.15043624D+07 0.10362583D+01  1  2  4  1  7  1        2 -.126555979074D-02 0.100000000000D+01
-.523504780715D-02 0.000000000000D+00 -.167225988811D-02 0.225066512178D-04 0.000000000000D+00  7 2 -2 24 -11 11 -24 21 2 0.48825594D+00 0.10643459D+00 0.15043624D+07 0.15043624D+07 0.15043624D+07 0.10362583D+01  1  2  5  1  7  1        2 -.612352271934D-03 0.100000000000D+01
0.556814986709D-02 0.000000000000D+00 0.158498752758D-02 0.225066512178D-04 0.000000000000D+00  7 2 -2 24 -11 11 -24 21 2 0.35089777D+00 0.10643459D+00 0.15043624D+07 0.15043624D+07 0.15043624D+07 0.10362583D+01  1  2  6  1  7  1        2 0.231803086375D-02 0.100000000000D+01
0.105995030692D-03 0.000000000000D+00 0.000000000000D+00 0.225066512178D-04 0.000000000000D+00  7 21 -2 24 -11 11 -24 -2 2 0.48756555D+00 0.10643459D+00 0.22144926D+07 0.22144926D+07 0.22144926D+07 0.10256253D+01  1  2 12  3  7  1        2 0.584753740962D-06 0.100000000000D+01
-.173496281726D-03 0.000000000000D+00 -.692920839141D-04 0.225066512178D-04 0.000000000000D+00  7 21 -2 24 -11 11 -24 -2 2 0.48825594D+00 0.10643459D+00 0.15043624D+07 0.15043624D+07 0.15043624D+07 0.10362583D+01  1  2  5  3  7  1        2 -.101472649258D-05 0.100000000000D+01
  </mgrwgt>
  </event>
  <event>
  8     66 0.26993063E-05 0.47543108E+03 0.75467711E-02 0.82373991E-01
        2 -1    0    0  501    0 0.00000000E+00 0.00000000E+00 0.85622825E+03 0.85622831E+03 0.32000000E+00 0.0000E+00 0.9000E+01
       -2 -1    0    0    0  501 0.00000000E+00 0.00000000E+00 -.38326612E+03 0.38326626E+03 0.32000000E+00 0.0000E+00 0.9000E+01
       25  2    1    2    0    0 -.31733551E+03 -.30733100E+03 -.63911238E+02 0.53837734E+03 0.30101719E+03 0.0000E+00 0.0000E+00
       23  2    1    2    0    0 0.31733551E+03 0.30733100E+03 0.53687337E+03 0.70111723E+03 0.90433365E+02 0.0000E+00 0.0000E+00
       24  1    3    3    0    0 -.22999455E+03 -.29472928E+03 0.34086971E+02 0.38391663E+03 0.80419002E+02 0.0000E+00 0.9000E+01
      -11  1    4    4    0    0 -.22538521E+01 -.28982900E+01 0.12937831E+02 0.13448696E+02 0.51099893E-03 0.0000E+00 0.9000E+01
       11  1    4    4    0    0 0.31958936E+03 0.31022929E+03 0.52393554E+03 0.68766854E+03 0.51099893E-03 0.0000E+00 0.9000E+01
      -24  1    3    3    0    0 -.87340956E+02 -.12601720E+02 -.97998209E+02 0.15446071E+03 0.80419002E+02 0.0000E+00 0.9000E+01
#aMCatNLO 1  0  0  1  2 0.16386402D+04 0.00000000D+00  -5  7  0 0.00000000D+00 0.00000000D+00 0.00000000D+00 0.00000000D+00 0.00000000D+00
  <mgrwgt>
 0.1940103167D-02    5    2    0
 0.572855481388862D+03 0.000000000000000D+00 0.000000000000000D+00 0.572855481388862D+03
 0.572855481388862D+03 0.000000000000000D+00 0.000000000000000D+00 -.572855481388862D+03
 0.401271126921269D+03 -.229994549278237D+03 -.294729277441527D+03 -.121607819104657D+03
 0.920867589891802D+01 -.225385208849632D+01 -.289828997677993D+01 0.844510377585690D+01
 0.527672133173768D+03 0.319589357270746D+03 0.310229287194957D+03 0.282945776101950D+03
 0.207559026783770D+03 -.873409559040124D+02 -.126017197766500D+02 -.169783060773150D+03
 0.000000000000000D+00 0.000000000000000D+00 0.000000000000000D+00 0.000000000000000D+00
 0.195415101218039D+04 0.000000000000000D+00 0.000000000000000D+00 0.195415101218039D+04
 0.170306333071331D+04 0.000000000000000D+00 0.000000000000000D+00 -.170306333071331D+04
 0.111701334908602D+04 -.100000915021923D+04 -.475862211036358D+03 -.121607819104657D+03
 0.201577008503488D+02 -.171473316906424D+02 -.640172958490524D+01 0.844510377585690D+01
 0.374327572896507D+03 -.137869672768934D+03 0.202619774324327D+03 0.282945776101950D+03
 0.487950133121138D+03 -.440076043878668D+03 -.955766934831236D+02 -.169783060773150D+03
 0.165776558693969D+04 0.159510219855748D+04 0.375220859780059D+03 0.251087681467072D+03
0.177394494164D-03 0.000000000000D+00 0.000000000000D+00 0.192196347859D-05 0.000000000000D+00  7 2 -2 24 -11 11 -24 21 0 0.13172744D+00 0.58964034D-01 0.22603471D+06 0.22603471D+06 0.22603471D+06 0.10937669D+01  1  2  2  1  7  1        2 0.190668329926D-02 0.100000000000D+01
-.943886497827D-05 0.000000000000D+00 -.681241566633D-06 0.192196347859D-05 0.000000000000D+00  7 2 -2 24 -11 11 -24 21 2 0.13172744D+00 0.58964034D-01 0.22603471D+06 0.22603471D+06 0.22603471D+06 0.10937669D+01  1  2  3  1  7  1        2 -.121368988976D-03 0.100000000000D+01
0.111885060932D-04 0.000000000000D+00 0.000000000000D+00 0.192196347859D-05 0.000000000000D+00  7 2 -2 24 -11 11 -24 21 2 0.13172744D+00 0.58964034D-01 0.22603471D+06 0.22603471D+06 0.22603471D+06 0.10937669D+01  1  2 15  1  7  1        2 0.143866627588D-03 0.100000000000D+01
0.124351462860D-03 0.000000000000D+00 -.713276925234D-04 0.192196347859D-05 0.000000000000D+00  7 2 -2 24 -11 11 -24 21 2 0.65516921D+00 0.58964034D-01 0.22603471D+06 0.22603471D+06 0.22603471D+06 0.10937669D+01  1  2  5  1  7  1        2 0.108934989968D-04 0.100000000000D+01
0.223502780002D-04 0.000000000000D+00 -.139409371848D-04 0.192196347859D-05 0.000000000000D+00  7 21 -2 24 -11 11 -24 -2 2 0.65516921D+00 0.58964034D-01 0.22603471D+06 0.22603471D+06 0.22603471D+06 0.10937669D+01  1  2  5  3  7  1        2 0.287297659243D-07 0.100000000000D+01
  </mgrwgt>
  </event>
  <event>
  8     66 0.26993063E-05 0.66411652E+03 0.75467711E-02 0.87017127E-01
        2 -1    0    0  501    0 0.00000000E+00 0.00000000E+00 0.28799244E+04 0.28799244E+04 0.32000000E+00 0.0000E+00 0.9000E+01
       -2 -1    0    0    0  501 0.00000000E+00 0.00000000E+00 -.31286839E+03 0.31286855E+03 0.32000000E+00 0.0000E+00 0.9000E+01
       25  2    1    2    0    0 0.63892143E+03 -.27305645E+02 0.24256747E+04 0.25262563E+04 0.29850756E+03 0.0000E+00 0.0000E+00
       23  2    1    2    0    0 -.63892143E+03 0.27305645E+02 0.14138134E+03 0.66653673E+03 0.12375920E+03 0.0000E+00 0.0000E+00
       24  1    3    3    0    0 0.56798557E+03 -.59279628E+02 0.22004160E+04 0.22747350E+04 0.80419002E+02 0.0000E+00 0.9000E+01
      -11  1    4    4    0    0 -.43213731E+03 0.24362274E+02 0.35699228E+02 0.43429323E+03 0.51099893E-03 0.0000E+00 0.9000E+01
       11  1    4    4    0    0 -.20678412E+03 0.29433710E+01 0.10568211E+03 0.23224350E+03 0.51099893E-03 0.0000E+00 0.9000E+01
      -24  1    3    3    0    0 0.70935855E+02 0.31973983E+02 0.22525871E+03 0.25152124E+03 0.80419002E+02 0.0000E+00 0.9000E+01
#aMCatNLO 1  0  0  2  2 0.66816256D+03 0.00000000D+00  -5  7  0 0.00000000D+00 0.00000000D+00 0.00000000D+00 0.00000000D+00 0.00000000D+00
  <mgrwgt>
 0.7512711480D-03    3    2    0
 0.949230004174902D+03 0.000000000000000D+00 0.000000000000000D+00 0.949230004174902D+03
 0.949230004174902D+03 0.000000000000000D+00 0.000000000000000D+00 -.949230004174902D+03
 0.850250671673940D+03 0.567985573395288D+03 -.592796281234137D+02 0.624769799871913D+03
 0.682114158580772D+03 -.432137305808146D+03 0.243622737136990D+02 -.527203522261309D+03
 0.247681560301820D+03 -.206784122941735D+03 0.294337098085103D+01 -.136300470945739D+03
 0.118413617793272D+03 0.709358553545932D+02 0.319739834288637D+02 0.387341933351355D+02
 0.000000000000000D+00 -.000000000000000D+00 -.000000000000000D+00 0.000000000000000D+00
 0.138872798253887D+04 0.000000000000000D+00 0.000000000000000D+00 0.138872798253887D+04
 0.129815377726940D+04 0.000000000000000D+00 0.000000000000000D+00 -.129815377726940D+04
 0.109527729310598D+04 0.895989281873881D+03 -.557106581641601D+01 0.624769799871913D+03
 0.574421172678425D+03 -.220293397137312D+03 0.590503930065577D+02 -.527203522261309D+03
 0.190920075900857D+03 -.132838661440476D+03 0.150514792848133D+02 -.136300470945739D+03
 0.151989618006420D+03 0.116524130482236D+03 0.394387792585162D+02 0.387341933351355D+02
 0.674273600116596D+03 -.659381353778329D+03 -.107969585733471D+03 0.905742052694714D+02
0.686055147477D-03 0.000000000000D+00 0.000000000000D+00 0.694693768067D-08 0.000000000000D+00  7 2 -2 24 -11 11 -24 21 0 0.44306531D+00 0.48133612D-01 0.44105075D+06 0.44105075D+06 0.44105075D+06 0.10723823D+01  1  2  2  2  7  2       -2 0.737008054438D-03 0.100000000000D+01
-.322016203566D-04 0.000000000000D+00 -.263463240878D-05 0.694693768067D-08 0.000000000000D+00  7 2 -2 24 -11 11 -24 21 2 0.44306531D+00 0.48133612D-01 0.44105075D+06 0.44105075D+06 0.44105075D+06 0.10723823D+01  1  2  3  2  7  2       -2 -.397823279175D-04 0.100000000000D+01
0.437468151044D-04 0.000000000000D+00 0.000000000000D+00 0.694693768067D-08 0.000000000000D+00  7 2 -2 24 -11 11 -24 21 2 0.44306531D+00 0.48133612D-01 0.44105075D+06 0.44105075D+06 0.44105075D+06 0.10723823D+01  1  2 15  2  7  2       -2 0.540454214588D-04 0.100000000000D+01
  </mgrwgt>
  </event>
  <event>
  8     66 0.26993063E-05 0.77401050E+02 0.75467711E-02 0.10492923E+00
        2 -1    0    0  501    0 0.00000000E+00 0.00000000E+00 0.40203336E+04 0.40203337E+04 0.32000000E+00 0.0000E+00 0.9000E+01
       -2 -1    0    0    0  501 0.00000000E+00 0.00000000E+00 -.12598322E+02 0.12602385E+02 0.32000000E+00 0.0000E+00 0.9000E+01
       25  2    1    2    0    0 0.23810544E+02 0.80256879E+02 0.23585179E+04 0.23789947E+04 0.30000142E+03 0.0000E+00 0.0000E+00
       23  2    1    2    0    0 -.23810544E+02 -.80256879E+02 0.16492174E+04 0.16539414E+04 0.92713793E+02 0.0000E+00 0.0000E+00
       24  1    3    3    0    0 -.63971047E+02 -.65329919E+02 0.81082462E+03 0.81991711E+03 0.80419002E+02 0.0000E+00 0.9000E+01
      -13  1    4    4    0    0 -.36993401E+02 -.96834441E+02 0.13472230E+04 0.13512051E+04 0.10565837E+00 0.0000E+00 0.9000E+01
       13  1    4    4    0    0 0.13182858E+02 0.16577562E+02 0.30199444E+03 0.30273628E+03 0.10565837E+00 0.0000E+00 0.9000E+01
      -24  1    3    3    0    0 0.87781590E+02 0.14558680E+03 0.15476933E+04 0.15590776E+04 0.80419002E+02 0.0000E+00 0.9000E+01
#aMCatNLO 1  0  0  1  2 0.65836251D+01 0.00000000D+00  -5  7  0 0.00000000D+00 0.00000000D+00 0.00000000D+00 0.00000000D+00 0.00000000D+00
  <mgrwgt>
 0.2711216358D-02   11    2    0
 0.225072604887424D+03 0.000000000000000D+00 0.000000000000000D+00 0.225072604887424D+03
 0.225072604887424D+03 0.000000000000000D+00 0.000000000000000D+00 -.225072604887424D+03
 0.126854181458612D+03 -.639710355846845D+02 -.653298814599820D+02 -.355595359054589D+02
 0.111098910515233D+03 -.369934575024163D+02 -.968346088413392D+02 0.399688697642741D+02
 0.235528347417798D+02 0.131828863585555D+02 0.165776371825042D+02 0.103019161846840D+02
 0.188639283059224D+03 0.877816067285453D+02 0.145586853118817D+03 -.147112500434993D+02
 0.000000000000000D+00 -.000000000000000D+00 0.000000000000000D+00 0.000000000000000D+00
 0.229128089144853D+03 0.000000000000000D+00 0.000000000000000D+00 0.229128089144853D+03
 0.227784574497688D+03 0.000000000000000D+00 0.000000000000000D+00 -.227784574497688D+03
 0.127818113522079D+03 -.639608715243695D+02 -.671921164274795D+02 -.355595359054589D+02
 0.112524078445586D+03 -.369845326307580D+02 -.984698026091211D+02 0.399688697642741D+02
 0.233139523954182D+02 0.131847568284127D+02 0.162349341420036D+02 0.103019161846840D+02
 0.186537207435116D+03 0.877965801534263D+02 0.142843457809035D+03 -.147112500434993D+02
 0.671931184434191D+01 -.359328267114600D-01 0.658352708556227D+01 0.134351464716469D+01
0.154185349387D-04 0.000000000000D+00 0.000000000000D+00 0.215308741023D-06 0.000000000000D+00  7 2 -2 24 -13 13 -24 21 0 0.61851318D+00 0.19385169D-02 0.47235293D+05 0.47235293D+05 0.47235293D+05 0.11494746D+01  1  2  2  1  7  1        2 0.504976351559D-03 0.100000000000D+01
-.855311299608D-06 0.000000000000D+00 -.592112339582D-07 0.215308741023D-06 0.000000000000D+00  7 2 -2 24 -13 13 -24 21 2 0.61851318D+00 0.19385169D-02 0.47235293D+05 0.47235293D+05 0.47235293D+05 0.11494746D+01  1  2  3  1  7  1        2 -.370127141443D-04 0.100000000000D+01
0.972615985899D-06 0.000000000000D+00 0.000000000000D+00 0.215308741023D-06 0.000000000000D+00  7 2 -2 24 -13 13 -24 21 2 0.61851318D+00 0.19385169D-02 0.47235293D+05 0.47235293D+05 0.47235293D+05 0.11494746D+01  1  2 15  1  7  1        2 0.420889534311D-04 0.100000000000D+01
0.865057046381D-05 0.000000000000D+00 0.000000000000D+00 0.215308741023D-06 0.000000000000D+00  7 2 -2 24 -13 13 -24 21 2 0.63332818D+00 0.19385169D-02 0.48711271D+05 0.48711271D+05 0.48711271D+05 0.11482942D+01  1  2 12  1  7  1        2 0.310874455107D-03 0.100000000000D+01
-.125655010489D-04 0.000000000000D+00 0.000000000000D+00 0.215308741023D-06 0.000000000000D+00  7 2 -2 24 -13 13 -24 21 2 0.61851318D+00 0.19385169D-02 0.47235293D+05 0.47235293D+05 0.47235293D+05 0.11494746D+01  1  2  4  1  7  1        2 -.543759095216D-03 0.100000000000D+01
-.343993033038D-03 0.000000000000D+00 -.416217449699D-04 0.215308741023D-06 0.000000000000D+00  7 2 -2 24 -13 13 -24 21 2 0.63127254D+00 0.19385169D-02 0.47235293D+05 0.47235293D+05 0.47235293D+05 0.11494746D+01  1  2  5  1  7  1        2 -.127274659731D-01 0.100000000000D+01
0.346055686575D-03 0.000000000000D+00 0.422095283344D-04 0.215308741023D-06 0.000000000000D+00  7 2 -2 24 -13 13 -24 21 2 0.61851318D+00 0.19385169D-02 0.47235293D+05 0.47235293D+05 0.47235293D+05 0.11494746D+01  1  2  6  1  7  1        2 0.149752028427D-01 0.100000000000D+01
0.505763033486D-05 0.000000000000D+00 0.000000000000D+00 0.215308741023D-06 0.349457956620D-07  7 2 -2 24 -13 13 -24 21 2 0.62965790D+00 0.19618747D-02 0.48711271D+05 0.48711271D+05 0.48711271D+05 0.11482942D+01  1  2 11  1  7  1        2 0.187002106941D-03 0.100000000000D+01
0.250910797680D-06 0.000000000000D+00 0.000000000000D+00 0.215308741023D-06 0.000000000000D+00  7 21 -2 24 -13 13 -24 -2 2 0.63332818D+00 0.19385169D-02 0.48711271D+05 0.48711271D+05 0.48711271D+05 0.11482942D+01  1  2 12  3  7  1        2 0.164653707290D-06 0.100000000000D+01
-.127124019124D-05 0.000000000000D+00 -.154582303489D-06 0.215308741023D-06 0.000000000000D+00  7 21 -2 24 -13 13 -24 -2 2 0.63127254D+00 0.19385169D-02 0.47235293D+05 0.47235293D+05 0.47235293D+05 0.11494746D+01  1  2  5  3  7  1        2 -.873109313039D-06 0.100000000000D+01
0.258028734699D-07 0.000000000000D+00 0.000000000000D+00 0.215308741023D-06 0.115079094015D-09  7 21 -2 24 -13 13 -24 -2 2 0.62965790D+00 0.19618747D-02 0.48711271D+05 0.48711271D+05 0.48711271D+05 0.11482942D+01  1  2 11  3  7  1        2 0.178863249706D-07 0.100000000000D+01
  </mgrwgt>
  </event>
  <event>
  8     66 0.26993063E-05 0.27642087E+03 0.75467711E-02 0.95384463E-01
        2 -1    0    0  501    0 0.00000000E+00 0.00000000E+00 0.21678560E+04 0.21678560E+04 0.32000000E+00 0.0000E+00 0.9000E+01
       -2 -1    0    0    0  501 0.00000000E+00 0.00000000E+00 -.21684668E+03 0.21684691E+03 0.32000000E+00 0.0000E+00 0.9000E+01
       25  2    1    2    0    0 -.40410993E+03 0.14697952E+03 0.18635856E+04 0.19359134E+04 0.29983584E+03 0.0000E+00 0.0000E+00
       23  2    1    2    0    0 0.40410993E+03 -.14697952E+03 0.87423700E+02 0.44878953E+03 0.94134592E+02 0.0000E+00 0.0000E+00
       24  1    3    3    0    0 -.23096293E+03 0.16728066E+02 0.13588278E+04 0.13807621E+04 0.80419002E+02 0.0000E+00 0.9000E+01
      -13  1    4    4    0    0 0.12421000E+03 -.69406840E+02 0.67971925E+02 0.15768839E+03 0.10565837E+00 0.0000E+00 0.9000E+01
       13  1    4    4    0    0 0.27989993E+03 -.77572681E+02 0.19451775E+02 0.29110114E+03 0.10565837E+00 0.0000E+00 0.9000E+01
      -24  1    3    3    0    0 -.17314700E+03 0.13025146E+03 0.50475784E+03 0.55515135E+03 0.80419002E+02 0.0000E+00 0.9000E+01
#aMCatNLO 1  0  0  2  1 0.26137801D+02 0.00000000D+00  -5  7  0 0.00000000D+00 0.00000000D+00 0.00000000D+00 0.00000000D+00 0.00000000D+00
  <mgrwgt>
 0.8962249694D-03    6    2    0
 0.685633050633069D+03 0.000000000000000D+00 0.000000000000000D+00 0.685633050633069D+03
 0.685633050633069D+03 0.000000000000000D+00 0.000000000000000D+00 -.685633050633069D+03
 0.467904560853093D+03 -.230962928217682D+03 0.167280655500709D+02 0.398552079062224D+03
 0.177518854153584D+03 0.124209807977051D+03 -.694068294686411D+02 -.106148759792172D+03
 0.478564787134759D+03 0.279900125240284D+03 -.775726917366540D+02 -.380345438874374D+03
 0.247277899124702D+03 -.173147004999653D+03 0.130251455655224D+03 0.879421196043225D+02
 0.000000000000000D+00 -.000000000000000D+00 0.000000000000000D+00 0.000000000000000D+00
 0.703091870909891D+03 0.000000000000000D+00 0.000000000000000D+00 0.703091870909891D+03
 0.695610680880266D+03 0.000000000000000D+00 0.000000000000000D+00 -.695610680880266D+03
 0.464558444739796D+03 -.224477334891939D+03 0.106535918674606D+02 0.398552079062224D+03
 0.180183473761691D+03 0.126697747784438D+03 -.717370595840420D+02 -.106148759792172D+03
 0.483556445717336D+03 0.286592001495873D+03 -.838403721415454D+02 -.380345438874374D+03
 0.243216821676568D+03 -.169735449507949D+03 0.127056157552141D+03 0.879421196043225D+02
 0.271873658947665D+02 -.190769648804231D+02 0.178676823059863D+02 0.748119002962497D+01
0.952324952520D-04 0.000000000000D+00 0.000000000000D+00 0.169996763126D-05 0.000000000000D+00  7 2 -2 24 -13 13 -24 21 0 0.33351633D+00 0.33361047D-01 0.20656252D+06 0.20656252D+06 0.20656252D+06 0.10967501D+01  1  2  2  2  7  2       -2 0.556013072634D-03 0.100000000000D+01
-.420320989285D-05 0.000000000000D+00 -.365717857060D-06 0.169996763126D-05 0.000000000000D+00  7 2 -2 24 -13 13 -24 21 2 0.33351633D+00 0.33361047D-01 0.20656252D+06 0.20656252D+06 0.20656252D+06 0.10967501D+01  1  2  3  2  7  2       -2 -.295186365221D-04 0.100000000000D+01
0.583517331042D-05 0.000000000000D+00 0.000000000000D+00 0.169996763126D-05 0.000000000000D+00  7 2 -2 24 -13 13 -24 21 2 0.33351633D+00 0.33361047D-01 0.20656252D+06 0.20656252D+06 0.20656252D+06 0.10967501D+01  1  2 15  2  7  2       -2 0.409797189255D-04 0.100000000000D+01
0.853212476865D-04 0.000000000000D+00 0.000000000000D+00 0.169996763126D-05 0.000000000000D+00  7 2 -2 24 -13 13 -24 21 2 0.33351633D+00 0.34262964D-01 0.21892354D+06 0.21892354D+06 0.21892354D+06 0.10948226D+01  1  2 12  2  7  2       -2 0.567291448514D-03 0.100000000000D+01
-.492859196910D-04 0.000000000000D+00 0.000000000000D+00 0.169996763126D-05 0.000000000000D+00  7 2 -2 24 -13 13 -24 21 2 0.33351633D+00 0.33361047D-01 0.20656252D+06 0.20656252D+06 0.20656252D+06 0.10967501D+01  1  2  4  2  7  2       -2 -.346129074232D-03 0.100000000000D+01
0.142905964701D-05 0.000000000000D+00 0.000000000000D+00 0.169996763126D-05 0.000000000000D+00  7 2 21 24 -13 13 -24 2 2 0.33351633D+00 0.34262964D-01 0.21892354D+06 0.21892354D+06 0.21892354D+06 0.10948226D+01  1  2 12  4  7  2       -2 0.107588440114D-03 0.100000000000D+01
  </mgrwgt>
  </event>
  <event>
  8     66 0.26993063E-05 0.11083254E+03 0.75467711E-02 0.10291983E+00
        2 -1    0    0  501    0 0.00000000E+00 0.00000000E+00 0.21637471E+04 0.21637471E+04 0.32000000E+00 0.0000E+00 0.9000E+01
       -2 -1    0    0    0  501 0.00000000E+00 0.00000000E+00 -.35397570E+02 0.35399016E+02 0.32000000E+00 0.0000E+00 0.9000E+01
       25  2    1    2    0    0 0.11064282E+03 -.10756505E+03 0.17284724E+04 0.17610256E+04 0.29963672E+03 0.0000E+00 0.0000E+00
       23  2    1    2    0    0 -.11064282E+03 0.10756505E+03 0.39987716E+03 0.43812059E+03 0.90751532E+02 0.0000E+00 0.0000E+00
       24  1    3    3    0    0 -.40761860E+02 -.11490212E+03 0.50899691E+03 0.52953668E+03 0.80419002E+02 0.0000E+00 0.9000E+01
      -11  1    4    4    0    0 -.60480462E+02 0.55605259E+02 0.98770379E+02 0.12847342E+03 0.51099893E-03 0.0000E+00 0.9000E+01
       11  1    4    4    0    0 -.50162354E+02 0.51959789E+02 0.30110678E+03 0.30964718E+03 0.51099893E-03 0.0000E+00 0.9000E+01
      -24  1    3    3    0    0 0.15140468E+03 0.73370707E+01 0.12194755E+04 0.12314889E+04 0.80419002E+02 0.0000E+00 0.9000E+01
#aMCatNLO 1  0  0  1  2 0.35638563D+02 0.00000000D+00  -5  7  0 0.00000000D+00 0.00000000D+00 0.00000000D+00 0.00000000D+00 0.00000000D+00
  <mgrwgt>
 0.1355414042D-02    9    2    0
 0.276754414636243D+03 0.000000000000000D+00 0.000000000000000D+00 0.276754414636243D+03
 0.276754414636243D+03 0.000000000000000D+00 0.000000000000000D+00 -.276754414636243D+03
 0.146709879468925D+03 -.407618598702360D+02 -.114902118345754D+03 -.138761219003524D+02
 0.130646388398423D+03 -.604804621072079D+02 0.556052587367460D+02 -.101580744758393D+03
 0.724449528027940D+02 -.501623540817893D+02 0.519597889296563D+02 0.567360149797329D+01
 0.203707608602345D+03 0.151404676059233D+03 0.733707067935219D+01 0.109783265160772D+03
 0.000000000000000D+00 0.000000000000000D+00 -.000000000000000D+00 0.000000000000000D+00
 0.321237743239751D+03 0.000000000000000D+00 0.000000000000000D+00 0.321237743239751D+03
 0.284558749267225D+03 0.000000000000000D+00 0.000000000000000D+00 -.284558749267225D+03
 0.141386809778778D+03 -.446299886578990D+02 -.106483009811201D+03 -.138761219003524D+02
 0.135795969772616D+03 -.640578491246897D+02 0.633915583207571D+02 -.101580744758393D+03
 0.769833738132400D+02 -.521686527774984D+02 0.563265635121835D+02 0.567360149797329D+01
 0.200488812560064D+03 0.145977734789442D+03 0.191489854498082D+02 0.109783265160772D+03
 0.511415265822780D+02 0.148787557706455D+02 -.323840974715479D+02 0.366789939725263D+02
0.672023743979D-05 0.000000000000D+00 0.000000000000D+00 0.105896938330D-05 0.000000000000D+00  7 2 -2 24 -11 11 -24 21 0 0.33288428D+00 0.54458931D-02 0.55702081D+05 0.55702081D+05 0.55702081D+05 0.11431927D+01  1  2  2  1  7  1        2 0.751654720268D-03 0.100000000000D+01
-.361835327725D-06 0.000000000000D+00 -.258074812479D-07 0.105896938330D-05 0.000000000000D+00  7 2 -2 24 -11 11 -24 21 2 0.33288428D+00 0.54458931D-02 0.55702081D+05 0.55702081D+05 0.55702081D+05 0.11431927D+01  1  2  3  1  7  1        2 -.528912221166D-04 0.100000000000D+01
0.437674129941D-06 0.000000000000D+00 0.000000000000D+00 0.105896938330D-05 0.000000000000D+00  7 2 -2 24 -11 11 -24 21 2 0.33288428D+00 0.54458931D-02 0.55702081D+05 0.55702081D+05 0.55702081D+05 0.11431927D+01  1  2 15  1  7  1        2 0.639769471017D-04 0.100000000000D+01
0.150984518146D-04 0.000000000000D+00 0.000000000000D+00 0.105896938330D-05 0.000000000000D+00  7 2 -2 24 -11 11 -24 21 2 0.39057459D+00 0.54458931D-02 0.65279825D+05 0.65279825D+05 0.65279825D+05 0.11372461D+01  1  2 12  1  7  1        2 0.135106637693D-02 0.100000000000D+01
-.153542490241D-04 0.000000000000D+00 0.000000000000D+00 0.105896938330D-05 0.000000000000D+00  7 2 -2 24 -11 11 -24 21 2 0.33288428D+00 0.54458931D-02 0.55702081D+05 0.55702081D+05 0.55702081D+05 0.11431927D+01  1  2  4  1  7  1        2 -.224440493600D-02 0.100000000000D+01
-.259848936440D-04 0.000000000000D+00 -.443964862070D-05 0.105896938330D-05 0.000000000000D+00  7 2 -2 24 -11 11 -24 21 2 0.38988733D+00 0.54458931D-02 0.55702081D+05 0.55702081D+05 0.55702081D+05 0.11431927D+01  1  2  5  1  7  1        2 -.237193144528D-02 0.100000000000D+01
0.264109146125D-04 0.000000000000D+00 0.438476034496D-05 0.105896938330D-05 0.000000000000D+00  7 2 -2 24 -11 11 -24 21 2 0.33288428D+00 0.54458931D-02 0.55702081D+05 0.55702081D+05 0.55702081D+05 0.11431927D+01  1  2  6  1  7  1        2 0.386061128927D-02 0.100000000000D+01
0.362451845480D-06 0.000000000000D+00 0.000000000000D+00 0.105896938330D-05 0.000000000000D+00  7 21 -2 24 -11 11 -24 -2 2 0.39057459D+00 0.54458931D-02 0.65279825D+05 0.65279825D+05 0.65279825D+05 0.11372461D+01  1  2 12  3  7  1        2 0.398250997535D-05 0.100000000000D+01
-.584437176975D-06 0.000000000000D+00 -.105636002392D-06 0.105896938330D-05 0.000000000000D+00  7 21 -2 24 -11 11 -24 -2 2 0.38988733D+00 0.54458931D-02 0.55702081D+05 0.55702081D+05 0.55702081D+05 0.11431927D+01  1  2  5  3  7  1        2 -.665019766036D-05 0.100000000000D+01
  </mgrwgt>
  </event>
  <event>
  8     66 0.26993063E-05 0.18524507E+03 0.75467711E-02 0.95342136E-01
        2 -1    0    0  501    0 0.00000000E+00 0.00000000E+00 0.29712662E+03 0.29712679E+03 0.32000000E+00 0.0000E+00 0.9000E+01
       -2 -1    0    0    0  501 0.00000000E+00 0.00000000E+00 -.10544907E+04 0.10544907E+04 0.32000000E+00 0.0000E+00 0.9000E+01
       25  2    1    2    0    0 0.25259585E+03 0.32490835E+03 -.77285399E+03 0.92486661E+03 0.29783361E+03 0.0000E+00 0.0000E+00
       23  2    1    2    0    0 -.25259585E+03 -.32490835E+03 0.15489928E+02 0.42675090E+03 0.11183156E+03 0.0000E+00 0.0000E+00
       24  1    3    3    0    0 0.48492537E+02 0.16556069E+03 -.52147193E+03 0.55512347E+03 0.80419002E+02 0.0000E+00 0.9000E+01
      -13  1    4    4    0    0 -.96329443E+02 -.85521364E+02 0.51272125E+02 0.13864381E+03 0.10565837E+00 0.0000E+00 0.9000E+01
       13  1    4    4    0    0 -.15626641E+03 -.23938698E+03 -.35782196E+02 0.28810709E+03 0.10565837E+00 0.0000E+00 0.9000E+01
      -24  1    3    3    0    0 0.20410332E+03 0.15934765E+03 -.25138205E+03 0.36974314E+03 0.80419002E+02 0.0000E+00 0.9000E+01
#aMCatNLO 1  0  0  2  1 0.59246351D+02 0.00000000D+00  -5  7  0 0.00000000D+00 0.00000000D+00 0.00000000D+00 0.00000000D+00 0.00000000D+00
  <mgrwgt>
 0.7486835325D-03    6    2    0
 0.559747618653748D+03 0.000000000000000D+00 0.000000000000000D+00 0.559747618653748D+03
 0.559747618653748D+03 0.000000000000000D+00 0.000000000000000D+00 -.559747618653748D+03
 0.317438155477487D+03 0.484925390581213D+02 0.165560695083985D+03 -.254043099685040D+03
 0.202077631449506D+03 -.963293908316660D+02 -.855212497154997D+02 0.155698854977619D+03
 0.323637427786581D+03 -.156266467220627D+03 -.239387101204691D+03 0.151709563520280D+03
 0.276342022593921D+03 0.204103318994172D+03 0.159347655836205D+03 -.533653188128596D+02
 0.000000000000000D+00 0.000000000000000D+00 -.000000000000000D+00 0.000000000000000D+00
 0.594257791663259D+03 0.000000000000000D+00 0.000000000000000D+00 0.594257791663259D+03
 0.586549740818934D+03 0.000000000000000D+00 0.000000000000000D+00 -.586549740818934D+03
 0.325937814019304D+03 0.450272182893719D+02 0.182216617707744D+03 -.254043099685040D+03
 0.198967735292096D+03 -.984894821382583D+02 -.751388591479912D+02 0.155698854977619D+03
 0.313371524854494D+03 -.159697494268767D+03 -.222896009947226D+03 0.151709563520280D+03
 0.282784795886564D+03 0.201091776959177D+03 0.173822509525197D+03 -.533653188128596D+02
 0.597456624297345D+02 0.120679811584761D+02 -.580042581377243D+02 0.770805084432525D+01
0.173859259943D-03 0.000000000000D+00 0.000000000000D+00 0.174702919509D-08 0.000000000000D+00  7 2 -2 24 -13 13 -24 21 0 0.45711804D-01 0.16222935D+00 0.19191889D+06 0.19191889D+06 0.19191889D+06 0.10992037D+01  1  2  2  2  7  2       -2 0.559022713222D-03 0.100000000000D+01
-.895351501063D-05 0.000000000000D+00 -.667665336376D-06 0.174702919509D-08 0.000000000000D+00  7 2 -2 24 -13 13 -24 21 2 0.45711804D-01 0.16222935D+00 0.19191889D+06 0.19191889D+06 0.19191889D+06 0.10992037D+01  1  2  3  2  7  2       -2 -.347841659422D-04 0.100000000000D+01
0.109539280087D-04 0.000000000000D+00 0.000000000000D+00 0.174702919509D-08 0.000000000000D+00  7 2 -2 24 -13 13 -24 21 2 0.45711804D-01 0.16222935D+00 0.19191889D+06 0.19191889D+06 0.19191889D+06 0.10992037D+01  1  2 15  2  7  2       -2 0.425557168467D-04 0.100000000000D+01
0.256531466668D-03 0.000000000000D+00 0.000000000000D+00 0.174702919509D-08 0.000000000000D+00  7 2 -2 24 -13 13 -24 21 2 0.45711804D-01 0.17473538D+00 0.22053802D+06 0.22053802D+06 0.22053802D+06 0.10945797D+01  1  2 12  2  7  2       -2 0.794367540925D-03 0.100000000000D+01
-.178851271290D-03 0.000000000000D+00 0.000000000000D+00 0.174702919509D-08 0.000000000000D+00  7 2 -2 24 -13 13 -24 21 2 0.45711804D-01 0.16222935D+00 0.19191889D+06 0.19191889D+06 0.19191889D+06 0.10992037D+01  1  2  4  2  7  2       -2 -.694832397348D-03 0.100000000000D+01
0.320631327143D-05 0.000000000000D+00 0.000000000000D+00 0.174702919509D-08 0.000000000000D+00  7 2 21 24 -13 13 -24 2 2 0.45711804D-01 0.17473538D+00 0.22053802D+06 0.22053802D+06 0.22053802D+06 0.10945797D+01  1  2 12  4  7  2       -2 0.823541248210D-04 0.100000000000D+01
  </mgrwgt>
  </event>
  <event>
  8     66 0.26993063E-05 0.22523023E+03 0.75467711E-02 0.97838737E-01
        2 -1    0    0  501    0 0.00000000E+00 0.00000000E+00 0.28403171E+03 0.28403189E+03 0.32000000E+00 0.0000E+00 0.9000E+01
       -2 -1    0    0    0  501 0.00000000E+00 0.00000000E+00 -.27776855E+03 0.27776873E+03 0.32000000E+00 0.0000E+00 0.9000E+01
       25  2    1    2    0    0 -.13020492E+03 -.90122837E+02 0.10420289E+03 0.35518414E+03 0.30036990E+03 0.0000E+00 0.0000E+00
       23  2    1    2    0    0 0.13020492E+03 0.90122837E+02 -.97939730E+02 0.20661648E+03 0.89569702E+02 0.0000E+00 0.0000E+00
       24  1    3    3    0    0 0.28133356E+02 -.34148060E+02 -.57717808E+02 0.10842572E+03 0.80419002E+02 0.0000E+00 0.9000E+01
      -13  1    4    4    0    0 0.12742627E+02 -.11489002E+02 -.35105317E+02 0.39073855E+02 0.10565837E+00 0.0000E+00 0.9000E+01
       13  1    4    4    0    0 0.11746230E+03 0.10161184E+03 -.62834413E+02 0.16754263E+03 0.10565837E+00 0.0000E+00 0.9000E+01
      -24  1    3    3    0    0 -.15833828E+03 -.55974776E+02 0.16192070E+03 0.24675841E+03 0.80419002E+02 0.0000E+00 0.9000E+01
#aMCatNLO 1  0  0  2  1 0.26263699D+03 0.00000000D+00  -5  7  0 0.00000000D+00 0.00000000D+00 0.00000000D+00 0.00000000D+00 0.00000000D+00
  <mgrwgt>
 0.9514987732D-03    3    2    0
 0.280882851661398D+03 0.000000000000000D+00 0.000000000000000D+00 0.280882851661398D+03
 0.280882851661398D+03 0.000000000000000D+00 0.000000000000000D+00 -.280882851661398D+03
 0.109075959042455D+03 0.281333552551234D+02 -.341480605931725D+02 -.589302398304532D+02
 0.394674945366607D+02 0.127424821008583D+02 -.114891574623111D+02 -.355430940650482D+02
 0.168253762826744D+03 0.117462442604127D+03 0.101611994979829D+03 -.647063038586628D+02
 0.244968486916937D+03 -.158338279960108D+03 -.559747769243454D+02 0.159179637754164D+03
 0.000000000000000D+00 -.000000000000000D+00 -.000000000000000D+00 0.000000000000000D+00
 0.106074700341791D+04 0.000000000000000D+00 0.000000000000000D+00 0.106074700341791D+04
 0.333035874638789D+03 0.000000000000000D+00 0.000000000000000D+00 -.333035874638789D+03
 0.120285328248054D+03 0.672777863382359D+02 -.150682989201735D+01 -.589302398304532D+02
 0.447031981491684D+02 0.271076520821598D+02 0.489476903977041D+00 -.355430940650482D+02
 0.258334358976184D+03 0.190267010158017D+03 0.162321286694369D+03 -.647063038586628D+02
 0.196805241058660D+03 -.829420286861643D+02 0.689563308646173D+01 0.159179637754164D+03
 0.773654751624629D+03 -.201710419892249D+03 -.168199566792790D+03 0.727711128779117D+03
0.128440347691D-04 0.000000000000D+00 0.000000000000D+00 0.283365876777D-06 0.000000000000D+00  7 2 -2 24 -13 13 -24 21 0 0.43697214D-01 0.42733650D-01 0.50728656D+05 0.50728656D+05 0.50728656D+05 0.11467431D+01  1  2  2  2  7  2       -2 0.937488362957D-03 0.100000000000D+01
-.671255000623D-06 0.000000000000D+00 -.493244754252D-07 0.283365876777D-06 0.000000000000D+00  7 2 -2 24 -13 13 -24 21 2 0.43697214D-01 0.42733650D-01 0.50728656D+05 0.50728656D+05 0.50728656D+05 0.11467431D+01  1  2  3  2  7  2       -2 -.644294214408D-04 0.100000000000D+01
0.817221822897D-06 0.000000000000D+00 0.000000000000D+00 0.283365876777D-06 0.000000000000D+00  7 2 -2 24 -13 13 -24 21 2 0.43697214D-01 0.42733650D-01 0.50728656D+05 0.50728656D+05 0.50728656D+05 0.11467431D+01  1  2 15  2  7  2       -2 0.784398316425D-04 0.100000000000D+01
  </mgrwgt>
  </event>
  <event>
  8     66 0.26993063E-05 0.22373100E+03 0.75467711E-02 0.98102363E-01
        2 -1    0    0  501    0 0.00000000E+00 0.00000000E+00 0.13830686E+04 0.13830687E+04 0.32000000E+00 0.0000E+00 0.9000E+01
       -2 -1    0    0    0  501 0.00000000E+00 0.00000000E+00 -.38546037E+02 0.38547365E+02 0.32000000E+00 0.0000E+00 0.9000E+01
       25  2    1    2    0    0 0.94225588E+02 0.78835649E+01 0.10790520E+04 0.11240652E+04 0.30038090E+03 0.0000E+00 0.0000E+00
       23  2    1    2    0    0 -.94225588E+02 -.78835649E+01 0.26547056E+03 0.29755083E+03 0.95505311E+02 0.0000E+00 0.0000E+00
       24  1    3    3    0    0 0.16224960E+03 0.66892362E+02 0.61662421E+03 0.64613633E+03 0.80419002E+02 0.0000E+00 0.9000E+01
      -13  1    4    4    0    0 -.28452142E+02 -.48607659E+02 0.96966421E+02 0.11213709E+03 0.10565837E+00 0.0000E+00 0.9000E+01
       13  1    4    4    0    0 -.65773446E+02 0.40724094E+02 0.16850414E+03 0.18541374E+03 0.10565837E+00 0.0000E+00 0.9000E+01
      -24  1    3    3    0    0 -.68024016E+02 -.59008797E+02 0.46242783E+03 0.47792889E+03 0.80419002E+02 0.0000E+00 0.9000E+01
#aMCatNLO 1  0  0  1  2 0.23689064D+03 0.00000000D+00  -5  7  0 0.00000000D+00 0.00000000D+00 0.00000000D+00 0.00000000D+00 0.00000000D+00
  <mgrwgt>
 0.4014219684D-03    5    2    0
 0.230895616341958D+03 0.000000000000000D+00 0.000000000000000D+00 0.230895616341958D+03
 0.230895616341958D+03 0.000000000000000D+00 0.000000000000000D+00 -.230895616341958D+03
 0.193794678156938D+03 0.162249845017620D+03 0.668923823767291D+02 0.170164126449863D+02
 0.628904957419210D+02 -.284523694708485D+02 -.486074399924638D+02 -.279820282241648D+02
 0.801866935503998D+02 -.657736153048473D+02 0.407238419363760D+02 -.211022759487395D+02
 0.124919365234657D+03 -.680238602419245D+02 -.590087843206413D+02 0.320678915279180D+02
 0.000000000000000D+00 0.000000000000000D+00 -.000000000000000D+00 0.000000000000000D+00
 0.521211403100446D+03 0.000000000000000D+00 0.000000000000000D+00 0.521211403100446D+03
 0.313110214287455D+03 0.000000000000000D+00 0.000000000000000D+00 -.313110214287455D+03
 0.163510078246156D+03 0.878936083287164D+02 0.110695460834432D+03 0.170164126449863D+02
 0.706021011142499D+02 -.562325961545812D+02 -.322421759179586D+02 -.279820282241648D+02
 0.129796580200942D+03 -.109471790948922D+03 0.664663310863348D+02 -.211022759487395D+02
 0.155098288194714D+03 -.126296409214031D+03 -.246805672373201D+02 0.320678915279180D+02
 0.315314569631840D+03 0.204107187988817D+03 -.120239048765488D+03 0.208101188812991D+03
0.159345480215D-05 0.000000000000D+00 0.000000000000D+00 0.188841530459D-07 0.000000000000D+00  7 2 -2 24 -13 13 -24 21 0 0.21277990D+00 0.59302646D-02 0.50055558D+05 0.50055558D+05 0.50055558D+05 0.11472530D+01  1  2  2  1  7  1        2 0.408237403202D-03 0.100000000000D+01
-.884183225564D-07 0.000000000000D+00 -.611928600653D-08 0.188841530459D-07 0.000000000000D+00  7 2 -2 24 -13 13 -24 21 2 0.21277990D+00 0.59302646D-02 0.50055558D+05 0.50055558D+05 0.50055558D+05 0.11472530D+01  1  2  3  1  7  1        2 -.298149231278D-04 0.100000000000D+01
0.101110380588D-06 0.000000000000D+00 0.000000000000D+00 0.188841530459D-07 0.000000000000D+00  7 2 -2 24 -13 13 -24 21 2 0.21277990D+00 0.59302646D-02 0.50055558D+05 0.50055558D+05 0.50055558D+05 0.11472530D+01  1  2 15  1  7  1        2 0.340947231016D-04 0.100000000000D+01
-.458901337711D-06 0.000000000000D+00 -.433135092224D-06 0.188841530459D-07 0.000000000000D+00  7 2 -2 24 -13 13 -24 21 2 0.52193227D+00 0.59302646D-02 0.50055558D+05 0.50055558D+05 0.50055558D+05 0.11472530D+01  1  2  5  1  7  1        2 -.110754671728D-04 0.100000000000D+01
-.181826734812D-07 0.000000000000D+00 -.426549841880D-07 0.188841530459D-07 0.000000000000D+00  7 21 -2 24 -13 13 -24 -2 2 0.52193227D+00 0.59302646D-02 0.50055558D+05 0.50055558D+05 0.50055558D+05 0.11472530D+01  1  2  5  3  7  1        2 -.197676253200D-07 0.100000000000D+01
  </mgrwgt>
  </event>
  <event>
  8     66 0.26993063E-05 0.91243855E+03 0.75467711E-02 0.83899768E-01
        2 -1    0    0  501    0 0.00000000E+00 0.00000000E+00 0.12802208E+04 0.12802208E+04 0.32000000E+00 0.0000E+00 0.9000E+01
       -2 -1    0    0    0  501 0.00000000E+00 0.00000000E+00 -.84377067E+03 0.84377073E+03 0.32000000E+00 0.0000E+00 0.9000E+01
       25  2    1    2    0    0 0.77202242E+03 -.44154905E+03 -.27937283E+03 0.97869835E+03 0.29802196E+03 0.0000E+00 0.0000E+00
       23  2    1    2    0    0 -.77202242E+03 0.44154905E+03 0.71582296E+03 0.11452932E+04 0.91158425E+02 0.0000E+00 0.0000E+00
       24  1    3    3    0    0 0.55398948E+03 -.42345529E+03 -.17559909E+03 0.72354750E+03 0.80419002E+02 0.0000E+00 0.9000E+01
      -11  1    4    4    0    0 -.27160418E+03 0.17174383E+03 0.31248492E+03 0.44823163E+03 0.51099893E-03 0.0000E+00 0.9000E+01
       11  1    4    4    0    0 -.50041825E+03 0.26980521E+03 0.40333804E+03 0.69706158E+03 0.51099893E-03 0.0000E+00 0.9000E+01
      -24  1    3    3    0    0 0.21803294E+03 -.18093752E+02 -.10377374E+03 0.25515085E+03 0.80419002E+02 0.0000E+00 0.9000E+01
#aMCatNLO 1  0  0  2  2 0.91583773D+03 0.00000000D+00  -5  7  0 0.00000000D+00 0.00000000D+00 0.00000000D+00 0.00000000D+00 0.00000000D+00
  <mgrwgt>
 0.1072744454D-02    3    2    0
 0.103933289235222D+04 0.000000000000000D+00 0.000000000000000D+00 0.103933289235222D+04
 0.103933289235222D+04 0.000000000000000D+00 0.000000000000000D+00 -.103933289235222D+04
 0.776194539779552D+03 0.553989479849025D+03 -.423455293631938D+03 -.331348786237276D+03
 0.392394068831536D+03 -.271604178318462D+03 0.171743832517967D+03 0.225185105116129D+03
 0.627573701566468D+03 -.500418246078273D+03 0.269805213055856D+03 0.265773356259931D+03
 0.282503474526877D+03 0.218032944547710D+03 -.180937519418846D+02 -.159609675138784D+03
 0.000000000000000D+00 -.000000000000000D+00 0.000000000000000D+00 0.000000000000000D+00
 0.169686233925102D+04 0.000000000000000D+00 0.000000000000000D+00 0.169686233925102D+04
 0.150943486338690D+04 0.000000000000000D+00 0.000000000000000D+00 -.150943486338690D+04
 0.112644880441080D+04 0.945337949450007D+03 -.508884894836630D+03 -.331348786237276D+03
 0.295740819918496D+03 -.130063969842887D+03 0.140846245063937D+03 0.225185105116129D+03
 0.445027130823889D+03 -.279798498541022D+03 0.221644919828686D+03 0.265773356259931D+03
 0.404260780593020D+03 0.359291231887000D+03 -.489297972867345D+02 -.159609675138784D+03
 0.934819666891720D+03 -.894766712953098D+03 0.195323527230742D+03 0.187427475864118D+03
0.119931199800D-02 0.000000000000D+00 0.000000000000D+00 0.194254406148D-05 0.000000000000D+00  7 2 -2 24 -11 11 -24 21 0 0.19695705D+00 0.12981088D+00 0.83254410D+06 0.83254410D+06 0.83254410D+06 0.10532036D+01  1  2  2  2  7  2       -2 0.106128299950D-02 0.100000000000D+01
-.652548646535D-04 0.000000000000D+00 -.460567385841D-05 0.194254406148D-05 0.000000000000D+00  7 2 -2 24 -11 11 -24 21 2 0.19695705D+00 0.12981088D+00 0.83254410D+06 0.83254410D+06 0.83254410D+06 0.10532036D+01  1  2  3  2  7  2       -2 -.640525784488D-04 0.100000000000D+01
0.769314541437D-04 0.000000000000D+00 0.000000000000D+00 0.194254406148D-05 0.000000000000D+00  7 2 -2 24 -11 11 -24 21 2 0.19695705D+00 0.12981088D+00 0.83254410D+06 0.83254410D+06 0.83254410D+06 0.10532036D+01  1  2 15  2  7  2       -2 0.755140329826D-04 0.100000000000D+01
  </mgrwgt>
  </event>
  <event>
  8     66 0.26993063E-05 0.26215769E+03 0.75467711E-02 0.99568476E-01
        2 -1    0    0  501    0 0.00000000E+00 0.00000000E+00 0.23623684E+04 0.23623684E+04 0.32000000E+00 0.0000E+00 0.9000E+01
       -2 -1    0    0    0  501 0.00000000E+00 0.00000000E+00 -.46059719E+02 0.46060830E+02 0.32000000E+00 0.0000E+00 0.9000E+01
       25  2    1    2    0    0 0.16566301E+02 0.22202024E+03 0.17949161E+04 0.18336247E+04 0.30147689E+03 0.0000E+00 0.0000E+00
       23  2    1    2    0    0 -.16566301E+02 -.22202024E+03 0.52139257E+03 0.57480454E+03 0.94776656E+02 0.0000E+00 0.0000E+00
       24  1    3    3    0    0 0.10899340E+03 0.10525814E+03 0.52095104E+03 0.54846699E+03 0.80419002E+02 0.0000E+00 0.9000E+01
      -13  1    4    4    0    0 0.37389155E+02 -.10202904E+03 0.27048202E+03 0.29149341E+03 0.10565837E+00 0.0000E+00 0.9000E+01
       13  1    4    4    0    0 -.53955457E+02 -.11999120E+03 0.25091056E+03 0.28331113E+03 0.10565837E+00 0.0000E+00 0.9000E+01
      -24  1    3    3    0    0 -.92427099E+02 0.11676210E+03 0.12739651E+04 0.12851577E+04 0.80419002E+02 0.0000E+00 0.9000E+01
#aMCatNLO 1  0  0  1  2 0.72987471D+02 0.00000000D+00  -5  7  0 0.00000000D+00 0.00000000D+00 0.00000000D+00 0.00000000D+00 0.00000000D+00
  <mgrwgt>
 0.6943850596D-03    9    2    0
 0.329865713419305D+03 0.000000000000000D+00 0.000000000000000D+00 0.329865713419305D+03
 0.329865713419305D+03 0.000000000000000D+00 0.000000000000000D+00 -.329865713419305D+03
 0.173192488516374D+03 0.108993400592265D+03 0.105258142390284D+03 -.238659634627361D+02
 0.114472903321552D+03 0.373892572909899D+02 -.102029017554420D+03 -.360023417429137D+02
 0.153317772587276D+03 -.539555590480904D+02 -.119991229521026D+03 -.787225626930688D+02
 0.218748262413407D+03 -.924270988351645D+02 0.116762104685162D+03 0.138590867898719D+03
 0.000000000000000D+00 0.000000000000000D+00 -.000000000000000D+00 0.000000000000000D+00
 0.388430052477418D+03 0.000000000000000D+00 0.000000000000000D+00 0.388430052477418D+03
 0.355428229740032D+03 0.000000000000000D+00 0.000000000000000D+00 -.355428229740032D+03
 0.175569704648223D+03 0.967638239958621D+02 0.120102803421015D+03 -.238659634627361D+02
 0.103829168205740D+03 0.297343510046411D+02 -.927372413308435D+02 -.360023417429137D+02
 0.147802963237287D+03 -.645145564844718D+02 -.107174372246217D+03 -.787225626930688D+02
 0.236554690443830D+03 -.108392597520706D+03 0.136141550433363D+03 0.138590867898719D+03
 0.801017556823686D+02 0.464089790046750D+02 -.563327402773173D+02 0.330018227373856D+02
0.659221985620D-05 0.000000000000D+00 0.000000000000D+00 0.946528749564D-08 0.000000000000D+00  7 2 -2 24 -13 13 -24 21 0 0.36344138D+00 0.70861977D-02 0.84393699D+05 0.84393699D+05 0.84393699D+05 0.11278198D+01  1  2  2  1  7  1        2 0.384212392198D-03 0.100000000000D+01
-.359045418996D-06 0.000000000000D+00 -.253158600192D-07 0.946528749564D-08 0.000000000000D+00  7 2 -2 24 -13 13 -24 21 2 0.36344138D+00 0.70861977D-02 0.84393699D+05 0.84393699D+05 0.84393699D+05 0.11278198D+01  1  2  3  1  7  1        2 -.266175755633D-04 0.100000000000D+01
0.422005802856D-06 0.000000000000D+00 0.000000000000D+00 0.946528749564D-08 0.000000000000D+00  7 2 -2 24 -13 13 -24 21 2 0.36344138D+00 0.70861977D-02 0.84393699D+05 0.84393699D+05 0.84393699D+05 0.11278198D+01  1  2 15  1  7  1        2 0.312850986292D-04 0.100000000000D+01
0.620247927740D-05 0.000000000000D+00 0.000000000000D+00 0.946528749564D-08 0.000000000000D+00  7 2 -2 24 -13 13 -24 21 2 0.44013586D+00 0.70861977D-02 0.10926779D+06 0.10926779D+06 0.10926779D+06 0.11185769D+01  1  2 12  1  7  1        2 0.230756362361D-03 0.100000000000D+01
-.620772096587D-05 0.000000000000D+00 0.000000000000D+00 0.946528749564D-08 0.000000000000D+00  7 2 -2 24 -13 13 -24 21 2 0.36344138D+00 0.70861977D-02 0.84393699D+05 0.84393699D+05 0.84393699D+05 0.11278198D+01  1  2  4  1  7  1        2 -.460204957765D-03 0.100000000000D+01
-.140770720365D-04 0.000000000000D+00 -.355022997756D-05 0.946528749564D-08 0.000000000000D+00  7 2 -2 24 -13 13 -24 21 2 0.43895945D+00 0.70861977D-02 0.84393699D+05 0.84393699D+05 0.84393699D+05 0.11278198D+01  1  2  5  1  7  1        2 -.543053226525D-03 0.100000000000D+01
0.145496033833D-04 0.000000000000D+00 0.348788871060D-05 0.946528749564D-08 0.000000000000D+00  7 2 -2 24 -13 13 -24 21 2 0.36344138D+00 0.70861977D-02 0.84393699D+05 0.84393699D+05 0.84393699D+05 0.11278198D+01  1  2  6  1  7  1        2 0.107862444967D-02 0.100000000000D+01
0.171632904076D-06 0.000000000000D+00 0.000000000000D+00 0.946528749564D-08 0.000000000000D+00  7 21 -2 24 -13 13 -24 -2 2 0.44013586D+00 0.70861977D-02 0.10926779D+06 0.10926779D+06 0.10926779D+06 0.11185769D+01  1  2 12  3  7  1        2 0.533134344524D-06 0.100000000000D+01
-.348307031105D-06 0.000000000000D+00 -.971756699723D-07 0.946528749564D-08 0.000000000000D+00  7 21 -2 24 -13 13 -24 -2 2 0.43895945D+00 0.70861977D-02 0.84393699D+05 0.84393699D+05 0.84393699D+05 0.11278198D+01  1  2  5  3  7  1        2 -.115061774619D-05 0.100000000000D+01
  </mgrwgt>
  </event>
  <event>
  8     66 0.26993063E-05 0.33172502E+03 0.75467711E-02 0.95849093E-01
        4 -1    0    0  501    0 0.00000000E+00 0.00000000E+00 0.50589973E+03 0.50590210E+03 0.15500000E+01 0.0000E+00 0.9000E+01
       -4 -1    0    0    0  501 0.00000000E+00 0.00000000E+00 -.28423808E+03 0.28424230E+03 0.15500000E+01 0.0000E+00 0.9000E+01
       25  2    1    2    0    0 0.34014165E+02 0.30305114E+03 0.19577819E+03 0.47048929E+03 0.30005685E+03 0.0000E+00 0.0000E+00
       23  2    1    2    0    0 -.34014165E+02 -.30305114E+03 0.25883459E+02 0.31965511E+03 0.92263085E+02 0.0000E+00 0.0000E+00
       24  1    3    3    0    0 -.16248141E+02 0.83679594E+02 -.50234510E+02 0.12750294E+03 0.80419002E+02 0.0000E+00 0.9000E+01
      -11  1    4    4    0    0 -.31544495E+02 -.11635548E+03 0.51686879E+02 0.13116854E+03 0.51099893E-03 0.0000E+00 0.9000E+01
       11  1    4    4    0    0 -.24696695E+01 -.18669566E+03 -.25803419E+02 0.18848657E+03 0.51099893E-03 0.0000E+00 0.9000E+01
      -24  1    3    3    0    0 0.50262305E+02 0.21937155E+03 0.24601270E+03 0.34298636E+03 0.80419002E+02 0.0000E+00 0.9000E+01
#aMCatNLO 1  0  0  1  1 0.21786365D+03 0.00000000D+00  -5  7  0 0.00000000D+00 0.00000000D+00 0.00000000D+00 0.00000000D+00 0.00000000D+00
  <mgrwgt>
 0.4764013138D-04    3    2    0
 0.379207822394837D+03 0.000000000000000D+00 0.000000000000000D+00 0.379207822394837D+03
 0.379207822394837D+03 0.000000000000000D+00 0.000000000000000D+00 -.379207822394837D+03
 0.147519101994570D+03 -.162481405303761D+02 0.836795938505579D+02 -.896013002206147D+02
 0.121549564510159D+03 -.315444951488405D+02 -.116355481585083D+03 0.155126839559593D+02
 0.203913561014368D+03 -.246966946103423D+01 -.186695662783636D+03 -.819717670670363D+02
 0.285433417270576D+03 0.502623051402509D+02 0.219371550518161D+03 0.156060383331692D+03
 0.000000000000000D+00 0.000000000000000D+00 0.000000000000000D+00 -.000000000000000D+00
 0.401351946050264D+03 0.000000000000000D+00 0.000000000000000D+00 0.401351946050264D+03
 0.213744581424277D+04 0.000000000000000D+00 0.000000000000000D+00 -.213744581424277D+04
 0.133998431697382D+03 -.337965828696067D+02 0.481431379129008D+02 -.896013002206147D+02
 0.160446951713027D+03 -.491227949439127D+02 -.151952400334391D+03 0.155126839559593D+02
 0.260561254871963D+03 -.314227844507561D+02 -.245327139880040D+03 -.819717670670363D+02
 0.234080720588738D+03 0.178783048505386D+02 0.153792362511957D+03 0.156060383331692D+03
 0.174971040142192D+04 0.964638574137369D+02 0.195344039789574D+03 -.173609386819250D+04
0.281749814172D-04 0.000000000000D+00 0.000000000000D+00 0.156282197427D-05 0.000000000000D+00  7 4 -4 24 -11 11 -24 21 0 0.77831235D-01 0.43729443D-01 0.11004149D+06 0.11004149D+06 0.11004149D+06 0.11183277D+01  1  2  2  1  7  1        4 0.470927517472D-04 0.100000000000D+01
-.153121693417D-05 0.000000000000D+00 -.108199347285D-06 0.156282197427D-05 0.000000000000D+00  7 4 -4 24 -11 11 -24 21 2 0.77831235D-01 0.43729443D-01 0.11004149D+06 0.11004149D+06 0.11004149D+06 0.11183277D+01  1  2  3  1  7  1        4 -.320085011500D-05 0.100000000000D+01
0.179307142293D-05 0.000000000000D+00 0.000000000000D+00 0.156282197427D-05 0.000000000000D+00  7 4 -4 24 -11 11 -24 21 2 0.77831235D-01 0.43729443D-01 0.11004149D+06 0.11004149D+06 0.11004149D+06 0.11183277D+01  1  2 15  1  7  1        4 0.374822975256D-05 0.100000000000D+01
  </mgrwgt>
  </event>
  <event>
  8     66 0.26993063E-05 0.28331521E+03 0.75467711E-02 0.94678914E-01
        2 -1    0    0  501    0 0.00000000E+00 0.00000000E+00 0.90281163E+02 0.90281730E+02 0.32000000E+00 0.0000E+00 0.9000E+01
       -2 -1    0    0    0  501 0.00000000E+00 0.00000000E+00 -.12016682E+04 0.12016683E+04 0.32000000E+00 0.0000E+00 0.9000E+01
       25  2    1    2    0    0 0.20341413E+03 0.51006367E+00 -.94498879E+03 0.10122691E+04 0.30051166E+03 0.0000E+00 0.0000E+00
       23  2    1    2    0    0 -.20341413E+03 -.51006367E+00 -.16639830E+03 0.27968097E+03 0.95684284E+02 0.0000E+00 0.0000E+00
       24  1    3    3    0    0 -.43018910E+02 0.38636522E+02 -.21609130E+03 0.23771006E+03 0.80419002E+02 0.0000E+00 0.9000E+01
      -13  1    4    4    0    0 -.19632073E+03 0.53132369E+01 -.11524166E+03 0.22770752E+03 0.10565837E+00 0.0000E+00 0.9000E+01
       13  1    4    4    0    0 -.70933935E+01 -.58233006E+01 -.51156635E+02 0.51973450E+02 0.10565837E+00 0.0000E+00 0.9000E+01
      -24  1    3    3    0    0 0.24643304E+03 -.38126458E+02 -.72889749E+03 0.77455899E+03 0.80419002E+02 0.0000E+00 0.9000E+01
#aMCatNLO 1  0  0  1  1 0.36364691D+03 0.00000000D+00  -5  7  0 0.00000000D+00 0.00000000D+00 0.00000000D+00 0.00000000D+00 0.00000000D+00
  <mgrwgt>
 0.4699378689D-03    5    2    0
 0.329375773909882D+03 0.000000000000000D+00 0.000000000000000D+00 0.329375773909882D+03
 0.329375773909882D+03 0.000000000000000D+00 0.000000000000000D+00 -.329375773909882D+03
 0.101629269092213D+03 -.430189088758502D+02 0.386365213100863D+02 -.227570886106591D+02
 0.252157017688192D+03 -.196320966412332D+03 0.531324971762170D+01 0.158155016024687D+03
 0.156236218370625D+02 -.709316361016209D+01 -.582331339609997D+01 -.126441136659637D+02
 0.289341639202298D+03 0.246433038898345D+03 -.381264576316080D+02 -.122753813748064D+03
 0.000000000000000D+00 -.000000000000000D+00 0.000000000000000D+00 0.000000000000000D+00
 0.954379705036646D+03 0.000000000000000D+00 0.000000000000000D+00 0.954379705036646D+03
 0.433410789401972D+03 0.000000000000000D+00 0.000000000000000D+00 -.433410789401972D+03
 0.898844206664023D+02 0.595285781689394D+01 0.325372329177312D+02 -.227570886106591D+02
 0.180120327710883D+03 -.857837754046071D+02 -.845382979713172D+01 0.158155016024687D+03
 0.143577756108936D+02 0.573348391117386D+00 -.677815474280155D+01 -.126441136659637D+02
 0.468095233692451D+03 0.440116434955492D+03 -.622491505451621D+02 -.122753813748064D+03
 0.635332736757988D+03 -.360858865758896D+03 0.449439021673642D+02 0.520968915634675D+03
0.566590052779D-04 0.000000000000D+00 0.000000000000D+00 0.990052907004D-07 0.000000000000D+00  7 2 -2 24 -13 13 -24 21 0 0.13889457D-01 0.18487209D+00 0.80267507D+05 0.80267507D+05 0.80267507D+05 0.11296409D+01  1  2  2  1  7  1        2 0.509318057102D-03 0.100000000000D+01
-.306087571304D-05 0.000000000000D+00 -.217585498926D-06 0.990052907004D-07 0.000000000000D+00  7 2 -2 24 -13 13 -24 21 2 0.13889457D-01 0.18487209D+00 0.80267507D+05 0.80267507D+05 0.80267507D+05 0.11296409D+01  1  2  3  1  7  1        2 -.351112757759D-04 0.100000000000D+01
0.357760706322D-05 0.000000000000D+00 0.000000000000D+00 0.990052907004D-07 0.000000000000D+00  7 2 -2 24 -13 13 -24 21 2 0.13889457D-01 0.18487209D+00 0.80267507D+05 0.80267507D+05 0.80267507D+05 0.11296409D+01  1  2 15  1  7  1        2 0.410386961089D-04 0.100000000000D+01
-.131139087445D-04 0.000000000000D+00 -.218710393963D-04 0.990052907004D-07 0.000000000000D+00  7 2 -2 24 -13 13 -24 21 2 0.52042940D-01 0.18487209D+00 0.80267507D+05 0.80267507D+05 0.80267507D+05 0.11296409D+01  1  2  5  1  7  1        2 -.330323925208D-04 0.100000000000D+01
-.156626866860D-05 0.000000000000D+00 -.341652381627D-05 0.990052907004D-07 0.000000000000D+00  7 21 -2 24 -13 13 -24 -2 2 0.52042940D-01 0.18487209D+00 0.80267507D+05 0.80267507D+05 0.80267507D+05 0.11296409D+01  1  2  5  3  7  1        2 -.122752159925D-04 0.100000000000D+01
  </mgrwgt>
  </event>
  <event>
  9     66 0.26993063E-05 0.38208535E+03 0.75467711E-02 0.97536132E-01
        2 -1    0    0  501    0 0.00000000E+00 0.00000000E+00 0.38637966E+04 0.38637967E+04 0.32000000E+00 0.0000E+00 0.9000E+01
       21 -1    0    0  502  501 0.00000000E+00 0.00000000E+00 -.55682301E+02 0.55687352E+02 0.75000000E+00 0.0000E+00 0.9000E+01
       25  2    1    2    0    0 -.95227014E+02 0.33313468E+03 0.28795516E+04 0.29158218E+04 0.30025354E+03 0.0000E+00 0.0000E+00
       23  2    1    2    0    0 0.81806680E+02 -.32533868E+03 0.77911380E+03 0.85340923E+03 0.93548970E+02 0.0000E+00 0.0000E+00
       24  1    3    3    0    0 -.43437004E+02 0.31641023E+03 0.25797103E+04 0.26006489E+04 0.80419002E+02 0.0000E+00 0.9000E+01
      -11  1    4    4    0    0 0.66426312E+02 -.30543176E+03 0.76015016E+03 0.82190588E+03 0.51099893E-03 0.0000E+00 0.9000E+01
       11  1    4    4    0    0 0.15380368E+02 -.19906924E+02 0.18963644E+02 0.31503351E+02 0.51099893E-03 0.0000E+00 0.9000E+01
      -24  1    3    3    0    0 -.51790011E+02 0.16724443E+02 0.29984131E+03 0.31517287E+03 0.80419002E+02 0.0000E+00 0.9000E+01
        2  1    1    2  502    0 0.13420334E+02 -.77959943E+01 0.14944890E+03 0.15025298E+03 0.32000000E+00 0.0000E+00 0.9000E+01
#aMCatNLO 2  0  0  2  1 0.15520403D+02 0.00000000D+00  -5  7  0 0.00000000D+00 0.00000000D+00 0.00000000D+00 0.00000000D+00 0.00000000D+00
  <mgrwgt>
 0.1375377916D-03    1    2    0
 0.453053203983216D+03 0.000000000000000D+00 0.000000000000000D+00 0.453053203983216D+03
 0.453053203983216D+03 0.000000000000000D+00 0.000000000000000D+00 -.453053203983216D+03
 0.398518199135967D+03 -.375105006322025D+02 0.312967473351290D+03 0.230203957512973D+03
 0.353259435044688D+03 0.716309260235631D+02 -.308455165432007D+03 -.156577935238055D+03
 0.548758777814988D+02 0.161900605760249D+02 -.203772815407058D+02 -.483115958942101D+02
 0.994528960042780D+02 -.503104859673856D+02 0.158649736214225D+02 -.253144263807078D+02
 0.000000000000000D+00 0.000000000000000D+00 -.000000000000000D+00 0.000000000000000D+00
 0.471400981053538D+03 0.000000000000000D+00 0.000000000000000D+00 0.471400981053538D+03
 0.456413772416242D+03 0.000000000000000D+00 0.000000000000000D+00 -.456413772416242D+03
 0.401824945475777D+03 -.434370036867563D+02 0.316410232938701D+03 0.230203957512973D+03
 0.349596429057457D+03 0.664263116608909D+02 -.305431757558776D+03 -.156577935238055D+03
 0.544688135364932D+02 0.153803683190747D+02 -.199069239360934D+02 -.483115958942101D+02
 0.100349132119125D+03 -.517900105162637D+02 0.167244429034885D+02 -.253144263807078D+02
 0.215754332809281D+02 0.134203342230544D+02 -.779599434731951D+01 0.149872086372965D+02
0.166870939153D-05 0.000000000000D+00 0.000000000000D+00 0.101732796299D-05 0.383088852889D-10  7 2 21 24 -11 11 -24 2 2 0.59442911D+00 0.85668753D-02 0.15198264D+06 0.15198264D+06 0.15198264D+06 0.11071022D+01  1  2  1  4  7  2       -2 0.137537791622D-03 0.100000000000D+01
  </mgrwgt>
  </event>
  <event>
  8     66 0.26993063E-05 0.23031538E+03 0.75467711E-02 0.97843789E-01
        2 -1    0    0  501    0 0.00000000E+00 0.00000000E+00 0.78334715E+03 0.78334722E+03 0.32000000E+00 0.0000E+00 0.9000E+01
       -2 -1    0    0    0  501 0.00000000E+00 0.00000000E+00 -.81122955E+02 0.81123586E+02 0.32000000E+00 0.0000E+00 0.9000E+01
       25  2    1    2    0    0 0.14774098E+02 0.11906076E+03 0.59849769E+03 0.68009824E+03 0.29990064E+03 0.0000E+00 0.0000E+00
       23  2    1    2    0    0 -.14774098E+02 -.11906076E+03 0.10372650E+03 0.18437256E+03 0.94022945E+02 0.0000E+00 0.0000E+00
       24  1    3    3    0    0 0.12571158E+03 0.45243958E+02 0.38917363E+03 0.41925380E+03 0.80419002E+02 0.0000E+00 0.9000E+01
      -13  1    4    4    0    0 0.37321262E+02 -.55278743E+02 0.65846289E+02 0.93724922E+02 0.10565837E+00 0.0000E+00 0.9000E+01
       13  1    4    4    0    0 -.52095360E+02 -.63782018E+02 0.37880213E+02 0.90647636E+02 0.10565837E+00 0.0000E+00 0.9000E+01
      -24  1    3    3    0    0 -.11093748E+03 0.73816803E+02 0.20932406E+03 0.26084444E+03 0.80419002E+02 0.0000E+00 0.9000E+01
#aMCatNLO 1  0  0  2  1 0.24268774D+03 0.00000000D+00  -5  7  0 0.00000000D+00 0.00000000D+00 0.00000000D+00 0.00000000D+00 0.00000000D+00
  <mgrwgt>
 0.4701618250D-03    5    2    0
 0.252086764689919D+03 0.000000000000000D+00 0.000000000000000D+00 0.252086764689919D+03
 0.252086764689919D+03 0.000000000000000D+00 0.000000000000000D+00 -.252086764689919D+03
 0.176815184810893D+03 0.125711582629639D+03 0.452439801381063D+02 0.833425094375847D+02
 0.689912682749460D+02 0.373213192685618D+02 -.552787399015990D+02 -.176401570608375D+02
 0.102666738391612D+03 -.520954220727512D+02 -.637820626307017D+02 -.613055842285749D+02
 0.155700337902386D+03 -.110937479825449D+03 0.738168223941945D+02 -.439676814817230D+01
 0.000000000000000D+00 -.000000000000000D+00 -.000000000000000D+00 -.000000000000000D+00
 0.374816184270703D+03 0.000000000000000D+00 0.000000000000000D+00 0.374816184270703D+03
 0.434691542164060D+03 0.000000000000000D+00 0.000000000000000D+00 -.434691542164060D+03
 0.259532855980292D+03 0.223866698944897D+03 0.618693349170446D+02 0.833425094375847D+02
 0.898369813122871D+02 0.730492333531911D+02 -.492272036244620D+02 -.176401570608375D+02
 0.840902175863334D+02 -.100850335226826D+02 -.566664109941363D+02 -.613055842285749D+02
 0.126082874001982D+03 -.475512345474591D+02 0.845530820555523D+02 -.439676814817230D+01
 0.249964797553868D+03 -.239279664227947D+03 -.405288023539986D+02 -.598753578933566D+02
0.236061031811D-05 0.000000000000D+00 0.000000000000D+00 0.765254333658D-07 0.000000000000D+00  7 2 -2 24 -13 13 -24 21 0 0.12051500D+00 0.12480508D-01 0.53045175D+05 0.53045175D+05 0.53045175D+05 0.11450438D+01  1  2  2  2  7  2       -2 0.442387881965D-03 0.100000000000D+01
-.129844138050D-06 0.000000000000D+00 -.906536518453D-08 0.765254333658D-07 0.000000000000D+00  7 2 -2 24 -13 13 -24 21 2 0.12051500D+00 0.12480508D-01 0.53045175D+05 0.53045175D+05 0.53045175D+05 0.11450438D+01  1  2  3  2  7  2       -2 -.319040229781D-04 0.100000000000D+01
0.152177918551D-06 0.000000000000D+00 0.000000000000D+00 0.765254333658D-07 0.000000000000D+00  7 2 -2 24 -13 13 -24 21 2 0.12051500D+00 0.12480508D-01 0.53045175D+05 0.53045175D+05 0.53045175D+05 0.11450438D+01  1  2 15  2  7  2       -2 0.373916595937D-04 0.100000000000D+01
-.449800792118D-07 0.000000000000D+00 -.722412256322D-06 0.765254333658D-07 0.000000000000D+00  7 2 -2 24 -13 13 -24 21 2 0.12051500D+00 0.31894193D-01 0.53045175D+05 0.53045175D+05 0.53045175D+05 0.11450438D+01  1  2  5  2  7  2       -2 -.235779969536D-05 0.100000000000D+01
0.394003120115D-07 0.000000000000D+00 -.748788429924D-07 0.765254333658D-07 0.000000000000D+00  7 2 21 24 -13 13 -24 2 2 0.12051500D+00 0.31894193D-01 0.53045175D+05 0.53045175D+05 0.53045175D+05 0.11450438D+01  1  2  5  4  7  2       -2 0.246441061507D-04 0.100000000000D+01
  </mgrwgt>
  </event>
  <event>
  7     66 0.26993063E-05 0.22034783E+03 0.75467711E-02 0.88073954E-01
        2 -1    0    0  501    0 0.00000000E+00 0.00000000E+00 0.60086899E+03 0.60086907E+03 0.32000000E+00 0.0000E+00 0.9000E+01
       -2 -1    0    0    0  501 0.00000000E+00 0.00000000E+00 -.20940295E+03 0.20940320E+03 0.32000000E+00 0.0000E+00 0.9000E+01
       23  2    1    2    0    0 0.12551948E+03 -.56392979E+02 -.12361896E+03 0.20625657E+03 0.91240435E+02 0.0000E+00 0.0000E+00
       24  1    1    2    0    0 -.16621575E+03 0.73583902E+02 0.44872591E+03 0.49077941E+03 0.80419002E+02 0.0000E+00 0.9000E+01
      -11  1    3    3    0    0 0.97378586E-01 -.19409653E+02 0.77520339E+01 0.20900674E+02 0.51099893E-03 0.0000E+00 0.9000E+01
       11  1    3    3    0    0 0.12542210E+03 -.36983326E+02 -.13137100E+03 0.18535590E+03 0.51099893E-03 0.0000E+00 0.9000E+01
      -24  1    1    2    0    0 0.40696269E+02 -.17190923E+02 0.66359087E+02 0.11323630E+03 0.80419002E+02 0.0000E+00 0.9000E+01
#aMCatNLO 1  0  0  2  1 0.88698355D+03 0.00000000D+00  -5  7  0 0.00000000D+00 0.00000000D+00 0.00000000D+00 0.00000000D+00 0.00000000D+00
  <mgrwgt>
 0.2897091235D-02    3    2    0
 0.354716609764591D+03 0.000000000000000D+00 0.000000000000000D+00 0.354716609764591D+03
 0.354716609764591D+03 0.000000000000000D+00 0.000000000000000D+00 -.354716609764591D+03
 0.312931481660619D+03 -.166215747419122D+03 0.735839024286066D+02 0.241695326544018D+03
 0.195939208042375D+02 0.973785826402001D-01 -.194096534879100D+02 -.267910458430312D+01
 0.284193098795263D+03 0.125422099788787D+03 -.369833259724480D+02 -.252323696642708D+03
 0.927147182690625D+02 0.406962690476947D+02 -.171909229682485D+02 0.133074746829928D+02
 0.000000000000000D+00 0.000000000000000D+00 0.000000000000000D+00 0.000000000000000D+00
 0.120529282374334D+04 0.000000000000000D+00 0.000000000000000D+00 0.120529282374334D+04
 0.876475233695709D+03 0.000000000000000D+00 0.000000000000000D+00 -.876475233695709D+03
 0.640912756267365D+03 -.570584393489144D+03 -.142543902799334D+03 0.241695326544018D+03
 0.427013966193321D+02 -.263118318119116D+02 -.335249038562312D+02 -.267910458430312D+01
 0.338489942354284D+03 -.138555485091709D+03 -.178074621264701D+03 -.252323696642708D+03
 0.113693121341783D+03 -.468073875482552D+02 -.639600615582548D+02 0.133074746829928D+02
 0.945970840856285D+03 0.782259097941020D+03 0.418103489478522D+03 0.328817590047632D+03
0.523965165607D-04 0.000000000000D+00 0.000000000000D+00 0.350741123274D-08 0.000000000000D+00  7 2 -2 24 -11 11 -24 21 0 0.92441408D-01 0.32215864D-01 0.48553167D+05 0.48553167D+05 0.48553167D+05 0.11484188D+01  1  2  2  2  7  2       -2 0.281769113533D-02 0.100000000000D+01
-.210863129316D-05 0.000000000000D+00 -.201216419913D-06 0.350741123274D-08 0.000000000000D+00  7 2 -2 24 -11 11 -24 21 2 0.92441408D-01 0.32215864D-01 0.48553167D+05 0.48553167D+05 0.48553167D+05 0.11484188D+01  1  2  3  2  7  2       -2 -.149551987314D-03 0.100000000000D+01
0.322814523305D-05 0.000000000000D+00 0.000000000000D+00 0.350741123274D-08 0.000000000000D+00  7 2 -2 24 -11 11 -24 21 2 0.92441408D-01 0.32215864D-01 0.48553167D+05 0.48553167D+05 0.48553167D+05 0.11484188D+01  1  2 15  2  7  2       -2 0.228952086839D-03 0.100000000000D+01
  </mgrwgt>
  </event>
  <event>
  8     66 0.26993063E-05 0.37004351E+03 0.75467711E-02 0.96777075E-01
        2 -1    0    0  501    0 0.00000000E+00 0.00000000E+00 0.25506171E+04 0.25506171E+04 0.32000000E+00 0.0000E+00 0.9000E+01
       -2 -1    0    0    0  501 0.00000000E+00 0.00000000E+00 -.61258641E+02 0.61259477E+02 0.32000000E+00 0.0000E+00 0.9000E+01
       25  2    1    2    0    0 -.12407458E+03 -.30043283E+03 0.11957608E+04 0.12749204E+04 0.29987290E+03 0.0000E+00 0.0000E+00
       23  2    1    2    0    0 0.12407458E+03 0.30043283E+03 0.12935977E+04 0.13369562E+04 0.91665604E+02 0.0000E+00 0.0000E+00
       24  1    3    3    0    0 -.17678434E+02 -.30620735E+01 0.49835627E+03 0.50512186E+03 0.80419002E+02 0.0000E+00 0.9000E+01
      -11  1    4    4    0    0 0.10781918E+03 0.29586251E+03 0.12662339E+04 0.13048019E+04 0.51099893E-03 0.0000E+00 0.9000E+01
       11  1    4    4    0    0 0.16255397E+02 0.45703147E+01 0.27363709E+02 0.32154289E+02 0.51099893E-03 0.0000E+00 0.9000E+01
      -24  1    3    3    0    0 -.10639614E+03 -.29737075E+03 0.69740455E+03 0.76979856E+03 0.80419002E+02 0.0000E+00 0.9000E+01
#aMCatNLO 1  0  0  2  1 0.84882236D+02 0.00000000D+00  -5  7  0 0.00000000D+00 0.00000000D+00 0.00000000D+00 0.00000000D+00 0.00000000D+00
  <mgrwgt>
 0.1385137753D-02    4    2    0
 0.395282754338912D+03 0.000000000000000D+00 0.000000000000000D+00 0.395282754338912D+03
 0.395282754338912D+03 0.000000000000000D+00 0.000000000000000D+00 -.395282754338912D+03
 0.995851214910434D+02 -.176784343103405D+02 -.306207349276229D+01 0.559292153912001D+02
 0.323656129104467D+03 0.107819179626956D+03 0.295862513377801D+03 0.747909592746892D+02
 0.200678545976772D+02 0.162553970514923D+02 0.457031465367302D+01 -.108440342501430D+02
 0.347256403484635D+03 -.106396142368108D+03 -.297370754538712D+03 -.119876140415746D+03
 0.000000000000000D+00 0.000000000000000D+00 0.000000000000000D+00 0.000000000000000D+00
 0.486461202175318D+03 0.000000000000000D+00 0.000000000000000D+00 0.486461202175318D+03
 0.417814676934349D+03 0.000000000000000D+00 0.000000000000000D+00 -.417814676934349D+03
 0.101193703941518D+03 -.218286156149558D+02 -.129762925788619D+02 0.559292153912001D+02
 0.291743566500898D+03 0.950986135709248D+02 0.265474809920496D+03 0.747909592746892D+02
 0.190566020753640D+02 0.154466783617208D+02 0.263839561666566D+01 -.108440342501430D+02
 0.383115439166367D+03 -.121493230222154D+03 -.333435645578691D+03 -.119876140415746D+03
 0.109166567425520D+03 0.327765539044647D+02 0.782987326203907D+02 0.686465252409684D+02
0.567542061416D-04 0.000000000000D+00 0.000000000000D+00 0.271025185711D-05 0.000000000000D+00  7 2 -2 24 -11 11 -24 21 0 0.39240270D+00 0.94244721D-02 0.13693220D+06 0.13693220D+06 0.13693220D+06 0.11106894D+01  1  2  2  2  7  2       -2 0.165290826430D-02 0.100000000000D+01
-.313632202327D-05 0.000000000000D+00 -.217951095310D-06 0.271025185711D-05 0.000000000000D+00  7 2 -2 24 -11 11 -24 21 2 0.39240270D+00 0.94244721D-02 0.13693220D+06 0.13693220D+06 0.13693220D+06 0.11106894D+01  1  2  3  2  7  2       -2 -.112682528714D-03 0.100000000000D+01
0.370856449128D-05 0.000000000000D+00 0.000000000000D+00 0.271025185711D-05 0.000000000000D+00  7 2 -2 24 -11 11 -24 21 2 0.39240270D+00 0.94244721D-02 0.13693220D+06 0.13693220D+06 0.13693220D+06 0.11106894D+01  1  2 15  2  7  2       -2 0.133242193141D-03 0.100000000000D+01
-.802516849270D-05 0.000000000000D+00 0.000000000000D+00 0.271025185711D-05 0.000000000000D+00  7 2 -2 24 -11 11 -24 21 2 0.39240270D+00 0.94244721D-02 0.13693220D+06 0.13693220D+06 0.13693220D+06 0.11106894D+01  1  2  4  2  7  2       -2 -.288330175411D-03 0.100000000000D+01
  </mgrwgt>
  </event>
  <event>
  9     66 0.26993063E-05 0.61457407E+03 0.75467711E-02 0.91170960E-01
        2 -1    0    0  502    0 0.00000000E+00 0.00000000E+00 0.11552420E+04 0.11552421E+04 0.32000000E+00 0.0000E+00 0.9000E+01
       -2 -1    0    0    0  501 0.00000000E+00 0.00000000E+00 -.43986948E+03 0.43986960E+03 0.32000000E+00 0.0000E+00 0.9000E+01
       25  2    1    2    0    0 -.42289587E+01 0.66304492E+03 0.46393884E+03 0.86291680E+03 0.29956588E+03 0.0000E+00 0.0000E+00
       23  2    1    2    0    0 -.53233744E+02 -.54347238E+03 0.22080813E+03 0.59604037E+03 0.91169281E+02 0.0000E+00 0.0000E+00
       24  1    3    3    0    0 0.25877431E+02 0.45583572E+03 0.43684287E+03 0.63698881E+03 0.80419002E+02 0.0000E+00 0.9000E+01
      -13  1    4    4    0    0 -.56074274E+02 -.18946457E+03 0.54900606E+02 0.20507373E+03 0.10565837E+00 0.0000E+00 0.9000E+01
       13  1    4    4    0    0 0.28405298E+01 -.35400781E+03 0.16590752E+03 0.39096664E+03 0.10565837E+00 0.0000E+00 0.9000E+01
      -24  1    3    3    0    0 -.30106389E+02 0.20720920E+03 0.27095967E+02 0.22592799E+03 0.80419002E+02 0.0000E+00 0.9000E+01
       21  1    1    2  502  501 0.57462703E+02 -.11957254E+03 0.30625561E+02 0.13615448E+03 0.75000000E+00 0.0000E+00 0.9000E+01
#aMCatNLO 2  0  0  1  1 0.13266331D+03 0.00000000D+00  -5  7  0 0.00000000D+00 0.00000000D+00 0.00000000D+00 0.00000000D+00 0.00000000D+00
  <mgrwgt>
 0.1833616381D-03    1    2    0
 0.640717971116584D+03 0.000000000000000D+00 0.000000000000000D+00 0.640717971116584D+03
 0.640717971116584D+03 0.000000000000000D+00 0.000000000000000D+00 -.640717971116584D+03
 0.450427605904187D+03 0.468885909524381D+02 0.412114176571639D+03 0.156144733223321D+03
 0.219311043985982D+03 -.466294962841132D+02 -.209117888368074D+03 -.468266254922234D+02
 0.389634805165916D+03 0.194823229072507D+02 -.388637309413212D+03 -.199188911056281D+02
 0.222062487177083D+03 -.197414175755756D+02 0.185641021209647D+03 -.893992166254694D+02
 0.000000000000000D+00 0.000000000000000D+00 -.000000000000000D+00 -.000000000000000D+00
 0.694255616206223D+03 0.000000000000000D+00 0.000000000000000D+00 0.694255616206223D+03
 0.731941318246928D+03 0.000000000000000D+00 0.000000000000000D+00 -.731941318246928D+03
 0.489187321173174D+03 0.258774307618406D+02 0.455835716136856D+03 0.156144733223321D+03
 0.203061087171725D+03 -.560743531633058D+02 -.189464348059709D+03 -.468266254922234D+02
 0.354579350744887D+03 0.284060895046002D+01 -.354008029135751D+03 -.199188911056281D+02
 0.241457003337244D+03 -.301063894230895D+02 0.207209203195439D+03 -.893992166254694D+02
 0.137912172026121D+03 0.574627028740947D+02 -.119572542136835D+03 -.376857020407047D+02
0.313889315426D-04 0.000000000000D+00 0.000000000000D+00 0.247408865497D-05 0.882215201249D-09  7 2 -2 24 -13 13 -24 21 2 0.17772930D+00 0.67672143D-01 0.47070995D+06 0.47070995D+06 0.47070995D+06 0.10703682D+01  1  2  1  1  7  1        2 0.183361638097D-03 0.100000000000D+01
  </mgrwgt>
  </event>
  <event>
  8     66 0.26993063E-05 0.27793100E+03 0.75467711E-02 0.96170106E-01
        2 -1    0    0  501    0 0.00000000E+00 0.00000000E+00 0.17066153E+03 0.17066183E+03 0.32000000E+00 0.0000E+00 0.9000E+01
       -2 -1    0    0    0  501 0.00000000E+00 0.00000000E+00 -.75742805E+03 0.75742812E+03 0.32000000E+00 0.0000E+00 0.9000E+01
       25  2    1    2    0    0 0.23426820E+03 -.58008197E+02 -.13656817E+03 0.40820218E+03 0.29955236E+03 0.0000E+00 0.0000E+00
       23  2    1    2    0    0 -.23426820E+03 0.58008197E+02 -.45019835E+03 0.51988778E+03 0.96737839E+02 0.0000E+00 0.0000E+00
       24  1    3    3    0    0 0.14058184E+03 0.94742133E+01 -.19688269E+03 0.25511375E+03 0.80419002E+02 0.0000E+00 0.9000E+01
      -13  1    4    4    0    0 -.10793921E+03 -.11808013E+02 -.25469935E+03 0.27687917E+03 0.10565837E+00 0.0000E+00 0.9000E+01
       13  1    4    4    0    0 -.12632898E+03 0.69816211E+02 -.19549900E+03 0.24300861E+03 0.10565837E+00 0.0000E+00 0.9000E+01
      -24  1    3    3    0    0 0.93686353E+02 -.67482411E+02 0.60314525E+02 0.15308843E+03 0.80419002E+02 0.0000E+00 0.9000E+01
#aMCatNLO 1  0  0  2  1 0.27364198D+03 0.00000000D+00  -5  7  0 0.00000000D+00 0.00000000D+00 0.00000000D+00 0.00000000D+00 0.00000000D+00
  <mgrwgt>
 0.6376495288D-03    3    2    0
 0.359533036695882D+03 0.000000000000000D+00 0.000000000000000D+00 0.359533036695882D+03
 0.359533036695882D+03 0.000000000000000D+00 0.000000000000000D+00 -.359533036695882D+03
 0.168613626307195D+03 0.140581844311521D+03 0.947421273060574D+01 -.459382560095440D+02
 0.149526896927554D+03 -.107939197991717D+03 -.118080955117613D+02 -.102800735999667D+03
 0.154118777805328D+03 -.126329002524791D+03 0.698162943251703D+02 -.540302307972172D+02
 0.246806772351686D+03 0.936863562049872D+02 -.674824115440147D+02 0.202769222806429D+03
 0.000000000000000D+00 0.000000000000000D+00 -.000000000000000D+00 0.000000000000000D+00
 0.559593199475466D+03 0.000000000000000D+00 0.000000000000000D+00 0.559593199475466D+03
 0.491715489836481D+03 0.000000000000000D+00 0.000000000000000D+00 -.491715489836481D+03
 0.175873701550183D+03 0.130992498718118D+03 0.720762433606082D+02 -.459382560095440D+02
 0.161765916304029D+03 -.116604522157302D+03 0.447616551087645D+02 -.102800735999667D+03
 0.198442875912199D+03 -.136143109654673D+03 0.133885633485671D+03 -.540302307972172D+02
 0.233291245415160D+03 0.803220741580721D+02 0.197634996498125D+02 0.202769222806429D+03
 0.281934950130375D+03 0.414330589357851D+02 -.270487031604856D+03 0.678777096389849D+02
0.425189377057D-04 0.000000000000D+00 0.000000000000D+00 0.547543363981D-07 0.000000000000D+00  7 2 -2 24 -13 13 -24 21 0 0.26255649D-01 0.11652742D+00 0.77245639D+05 0.77245639D+05 0.77245639D+05 0.11310411D+01  1  2  2  2  7  2       -2 0.628160256591D-03 0.100000000000D+01
-.217182739886D-05 0.000000000000D+00 -.163283916283D-06 0.547543363981D-07 0.000000000000D+00  7 2 -2 24 -13 13 -24 21 2 0.26255649D-01 0.11652742D+00 0.77245639D+05 0.77245639D+05 0.77245639D+05 0.11310411D+01  1  2  3  2  7  2       -2 -.410459316727D-04 0.100000000000D+01
0.267392494272D-05 0.000000000000D+00 0.000000000000D+00 0.547543363981D-07 0.000000000000D+00  7 2 -2 24 -13 13 -24 21 2 0.26255649D-01 0.11652742D+00 0.77245639D+05 0.77245639D+05 0.77245639D+05 0.11310411D+01  1  2 15  2  7  2       -2 0.505352039277D-04 0.100000000000D+01
  </mgrwgt>
  </event>
  <event>
  9     66 0.26993063E-05 0.23299616E+03 0.75467711E-02 0.10243970E+00
        2 -1    0    0  501    0 0.00000000E+00 0.00000000E+00 0.20129382E+04 0.20129382E+04 0.32000000E+00 0.0000E+00 0.9000E+01
       21 -1    0    0  502  501 0.00000000E+00 0.00000000E+00 -.39832678E+02 0.39839738E+02 0.75000000E+00 0.0000E+00 0.9000E+01
       25  2    1    2    0    0 0.15991032E+03 -.30977404E+02 0.93160669E+03 0.99250206E+03 0.30106211E+03 0.0000E+00 0.0000E+00
       23  2    1    2    0    0 -.98446423E+02 0.26028260E+02 0.76126614E+03 0.77333904E+03 0.90321444E+02 0.0000E+00 0.0000E+00
       24  1    3    3    0    0 0.40233053E+02 0.10847883E+03 0.41822608E+03 0.44132372E+03 0.80419002E+02 0.0000E+00 0.9000E+01
      -11  1    4    4    0    0 -.31105531E+02 -.26673376E+02 0.39987042E+03 0.40196439E+03 0.51099893E-03 0.0000E+00 0.9000E+01
       11  1    4    4    0    0 -.67340892E+02 0.52701636E+02 0.36139573E+03 0.37137465E+03 0.51099893E-03 0.0000E+00 0.9000E+01
      -24  1    3    3    0    0 0.11967727E+03 -.13945624E+03 0.51338061E+03 0.55117833E+03 0.80419002E+02 0.0000E+00 0.9000E+01
        2  1    1    2  502    0 -.61463896E+02 0.49491440E+01 0.28023268E+03 0.28693686E+03 0.32000000E+00 0.0000E+00 0.9000E+01
#aMCatNLO 2  0  0  2  1 0.61662830D+02 0.00000000D+00  -5  7  0 0.00000000D+00 0.00000000D+00 0.00000000D+00 0.00000000D+00 0.00000000D+00
  <mgrwgt>
 0.2009088763D-03    1    2    0
 0.249285999984105D+03 0.000000000000000D+00 0.000000000000000D+00 0.249285999984105D+03
 0.249285999984105D+03 0.000000000000000D+00 0.000000000000000D+00 -.249285999984105D+03
 0.139133341262214D+03 0.229737680662546D+02 0.109868569019482D+03 -.170872531106207D+02
 0.695091889223470D+02 -.393922632255433D+02 -.260061189309619D+02 0.510240994115594D+02
 0.970601431178351D+02 -.786781704736261D+02 0.536145265865017D+02 0.188652964960260D+02
 0.192869326665814D+03 0.950966656329148D+02 -.137476976675022D+03 -.528021427969647D+02
 0.000000000000000D+00 -.000000000000000D+00 0.000000000000000D+00 0.000000000000000D+00
 0.292375022057563D+03 0.000000000000000D+00 0.000000000000000D+00 0.292375022057563D+03
 0.274263389978877D+03 0.000000000000000D+00 0.000000000000000D+00 -.274263389978877D+03
 0.141935004850585D+03 0.402330530378982D+02 0.108478831446270D+03 -.170872531106207D+02
 0.654406736959743D+02 -.311055309484088D+02 -.266733761912487D+02 0.510240994115594D+02
 0.875680170285079D+02 -.673408922855047D+02 0.527016358438155D+02 0.188652964960260D+02
 0.207427027832856D+03 0.119677266582657D+03 -.139456235072350D+03 -.528021427969647D+02
 0.642676886285174D+02 -.614638963866415D+02 0.494914397351356D+01 0.181116320786863D+02
0.869319545182D-07 0.000000000000D+00 0.000000000000D+00 0.740245583253D-07 0.267554339101D-11  7 2 21 24 -11 11 -24 2 2 0.30968291D+00 0.61286407D-02 0.70131497D+05 0.70131497D+05 0.70131497D+05 0.11345903D+01  1  2  1  4  7  2       -2 0.200908876283D-03 0.100000000000D+01
  </mgrwgt>
  </event>
  <event>
  8     66 0.26993063E-05 0.34424413E+03 0.75467711E-02 0.92379892E-01
        2 -1    0    0  501    0 0.00000000E+00 0.00000000E+00 0.40945477E+03 0.40945490E+03 0.32000000E+00 0.0000E+00 0.9000E+01
       -2 -1    0    0    0  501 0.00000000E+00 0.00000000E+00 -.43672515E+03 0.43672527E+03 0.32000000E+00 0.0000E+00 0.9000E+01
       25  2    1    2    0    0 -.21444535E+03 -.24397504E+03 -.17756073E+03 0.47671541E+03 0.30036501E+03 0.0000E+00 0.0000E+00
       23  2    1    2    0    0 0.21444535E+03 0.24397504E+03 0.15029035E+03 0.36946476E+03 0.91686372E+02 0.0000E+00 0.0000E+00
       24  1    3    3    0    0 -.11450970E+03 -.13345714E+03 0.43562222E+02 0.19821242E+03 0.80419002E+02 0.0000E+00 0.9000E+01
      -11  1    4    4    0    0 0.81987154E+02 0.11219347E+03 0.17099526E+02 0.14000594E+03 0.51099893E-03 0.0000E+00 0.9000E+01
       11  1    4    4    0    0 0.13245820E+03 0.13178156E+03 0.13319082E+03 0.22945882E+03 0.51099893E-03 0.0000E+00 0.9000E+01
      -24  1    3    3    0    0 -.99935649E+02 -.11051789E+03 -.22112295E+03 0.27850299E+03 0.80419002E+02 0.0000E+00 0.9000E+01
#aMCatNLO 1  0  0  1  2 0.43824046D+03 0.00000000D+00  -5  7  0 0.00000000D+00 0.00000000D+00 0.00000000D+00 0.00000000D+00 0.00000000D+00
  <mgrwgt>
 0.6046240243D-03    5    2    0
 0.422870311426058D+03 0.000000000000000D+00 0.000000000000000D+00 0.422870311426058D+03
 0.422870311426058D+03 0.000000000000000D+00 0.000000000000000D+00 -.422870311426058D+03
 0.199720072776600D+03 -.114509703329858D+03 -.133457143100418D+03 0.499760974296930D+02
 0.140630063893676D+03 0.819871540354726D+02 0.112193472318039D+03 0.216228169562735D+02
 0.233872728746897D+03 0.132458198324655D+03 0.131781562981524D+03 0.140658802093052D+03
 0.271517757434944D+03 -.999356490302698D+02 -.110517892199145D+03 -.212257716479018D+03
 0.000000000000000D+00 -.000000000000000D+00 -.000000000000000D+00 0.000000000000000D+00
 0.919300164091119D+03 0.000000000000000D+00 0.000000000000000D+00 0.919300164091119D+03
 0.584645457407510D+03 0.000000000000000D+00 0.000000000000000D+00 -.584645457407510D+03
 0.148465834235127D+03 -.103150727356036D+03 -.493680576119839D+02 0.499760974296930D+02
 0.221688232630899D+03 0.938071753006072D+02 0.199695618720112D+03 0.216228169562735D+02
 0.340265128301039D+03 0.151188474285105D+03 0.270439464898916D+03 0.140658802093052D+03
 0.242120517673976D+03 -.831790695458476D+02 0.135289803364257D+02 -.212257716479018D+03
 0.551405908657588D+03 -.586658526838286D+02 -.434296006343470D+03 0.334654706683610D+03
0.310903620672D-04 0.000000000000D+00 0.000000000000D+00 0.283690381995D-05 0.000000000000D+00  7 2 -2 24 -11 11 -24 21 0 0.62993061D-01 0.67188503D-01 0.11850402D+06 0.11850402D+06 0.11850402D+06 0.11157211D+01  1  2  2  1  7  1        2 0.614467089223D-03 0.100000000000D+01
-.163837046384D-05 0.000000000000D+00 -.119395176618D-06 0.283690381995D-05 0.000000000000D+00  7 2 -2 24 -11 11 -24 21 2 0.62993061D-01 0.67188503D-01 0.11850402D+06 0.11850402D+06 0.11850402D+06 0.11157211D+01  1  2  3  1  7  1        2 -.403084674232D-04 0.100000000000D+01
0.197568844955D-05 0.000000000000D+00 0.000000000000D+00 0.283690381995D-05 0.000000000000D+00  7 2 -2 24 -11 11 -24 21 2 0.62993061D-01 0.67188503D-01 0.11850402D+06 0.11850402D+06 0.11850402D+06 0.11157211D+01  1  2 15  1  7  1        2 0.486074274803D-04 0.100000000000D+01
-.268660652292D-05 0.000000000000D+00 -.101665354122D-04 0.283690381995D-05 0.000000000000D+00  7 2 -2 24 -11 11 -24 21 2 0.17100509D+00 0.67188503D-01 0.11850402D+06 0.11850402D+06 0.11850402D+06 0.11157211D+01  1  2  5  1  7  1        2 -.194220773104D-04 0.100000000000D+01
0.288879040854D-06 0.000000000000D+00 -.113364567724D-05 0.283690381995D-05 0.000000000000D+00  7 21 -2 24 -11 11 -24 -2 2 0.17100509D+00 0.67188503D-01 0.11850402D+06 0.11850402D+06 0.11850402D+06 0.11157211D+01  1  2  5  3  7  1        2 0.128005236573D-05 0.100000000000D+01
  </mgrwgt>
  </event>
  <event>
  9     66 0.26993063E-05 0.15017989E+03 0.75467711E-02 0.10548010E+00
        2 -1    0    0  502    0 0.00000000E+00 0.00000000E+00 0.19811843E+04 0.19811843E+04 0.32000000E+00 0.0000E+00 0.9000E+01
       -2 -1    0    0    0  501 0.00000000E+00 0.00000000E+00 -.37048790E+02 0.37050172E+02 0.32000000E+00 0.0000E+00 0.9000E+01
       25  2    1    2    0    0 -.10586780E+03 -.57661629E+02 0.14295677E+04 0.14655395E+04 0.29934838E+03 0.0000E+00 0.0000E+00
       23  2    1    2    0    0 0.51560686E+01 0.42947385E+02 0.25324958E+03 0.27225399E+03 0.90087863E+02 0.0000E+00 0.0000E+00
       24  1    3    3    0    0 -.32217194E+02 0.46907651E+02 0.10829970E+04 0.10874687E+04 0.80419002E+02 0.0000E+00 0.9000E+01
      -13  1    4    4    0    0 0.30533085E+02 0.35110021E+02 0.23609386E+03 0.24063521E+03 0.10565837E+00 0.0000E+00 0.9000E+01
       13  1    4    4    0    0 -.25377017E+02 0.78373644E+01 0.17155715E+02 0.31618776E+02 0.10565837E+00 0.0000E+00 0.9000E+01
      -24  1    3    3    0    0 -.73650608E+02 -.10456928E+03 0.34657063E+03 0.37807085E+03 0.80419002E+02 0.0000E+00 0.9000E+01
       21  1    1    2  502  501 0.10071173E+03 0.14714244E+02 0.26131827E+03 0.28044101E+03 0.75000000E+00 0.0000E+00 0.9000E+01
#aMCatNLO 2  0  0  1  2 0.10178095D+03 0.00000000D+00  -5  7  0 0.00000000D+00 0.00000000D+00 0.00000000D+00 0.00000000D+00 0.00000000D+00
  <mgrwgt>
 0.3704674627D-03    1    2    0
 0.210768217257174D+03 0.000000000000000D+00 0.000000000000000D+00 0.210768217257174D+03
 0.210768217257174D+03 0.000000000000000D+00 0.000000000000000D+00 -.210768217257174D+03
 0.153617591524095D+03 0.415295478560674D+01 0.522213998194450D+02 0.119945099269372D+03
 0.580332920725495D+02 0.430355496231199D+02 0.369367013372859D+02 0.123079060661821D+02
 0.560723303654838D+02 -.116919869016695D+02 0.983676885867121D+01 -.539503628655844D+02
 0.153813220552219D+03 -.354965175070572D+02 -.989948700154021D+02 -.783026424699701D+02
 0.000000000000000D+00 0.000000000000000D+00 0.000000000000000D+00 -.000000000000000D+00
 0.251164715563072D+03 0.000000000000000D+00 0.000000000000000D+00 0.251164715563072D+03
 0.292243239515275D+03 0.000000000000000D+00 0.000000000000000D+00 -.292243239515275D+03
 0.155216997729214D+03 -.322172041899996D+02 0.469076256608733D+02 0.119945099269372D+03
 0.481297827582573D+02 0.305331679492568D+02 0.351100710851681D+02 0.123079060661821D+02
 0.601337013352626D+02 -.253770856372064D+02 0.783734058927125D+01 -.539503628655844D+02
 0.170169524338344D+03 -.736506114688522D+02 -.104569281682777D+03 -.783026424699701D+02
 0.109757948917269D+03 0.100711733346801D+03 0.147142443474645D+02 -.410785239522028D+02
0.213030423815D-05 0.000000000000D+00 0.000000000000D+00 0.945879543757D-07 0.676825093502D-10  7 2 -2 24 -13 13 -24 21 2 0.30479621D+00 0.56998945D-02 0.45043817D+05 0.45043817D+05 0.45043817D+05 0.11513045D+01  1  2  1  1  7  1        2 0.370467462735D-03 0.100000000000D+01
  </mgrwgt>
  </event>
  <event>
  8     66 0.26993063E-05 0.22649944E+03 0.75467711E-02 0.10223107E+00
        2 -1    0    0  501    0 0.00000000E+00 0.00000000E+00 0.18936547E+04 0.18936548E+04 0.32000000E+00 0.0000E+00 0.9000E+01
       -2 -1    0    0    0  501 0.00000000E+00 0.00000000E+00 -.71086067E+02 0.71086787E+02 0.32000000E+00 0.0000E+00 0.9000E+01
       25  2    1    2    0    0 -.17508305E+03 -.49913704E+02 0.16842876E+04 0.17205383E+04 0.30046910E+03 0.0000E+00 0.0000E+00
       23  2    1    2    0    0 0.17508305E+03 0.49913704E+02 0.13828106E+03 0.24420330E+03 0.85837925E+02 0.0000E+00 0.0000E+00
       24  1    3    3    0    0 -.87185301E+02 0.36113213E+02 0.25321292E+03 0.28193872E+03 0.80419002E+02 0.0000E+00 0.9000E+01
      -13  1    4    4    0    0 0.21405408E+02 0.56463164E+01 0.64281054E+02 0.67986303E+02 0.10565837E+00 0.0000E+00 0.9000E+01
       13  1    4    4    0    0 0.15367764E+03 0.44267388E+02 0.74000010E+02 0.17621700E+03 0.10565837E+00 0.0000E+00 0.9000E+01
      -24  1    3    3    0    0 -.87897745E+02 -.86026917E+02 0.14310747E+04 0.14385995E+04 0.80419002E+02 0.0000E+00 0.9000E+01
#aMCatNLO 1  0  0  2  2 0.74721365D+02 0.00000000D+00  -5  7  0 0.00000000D+00 0.00000000D+00 0.00000000D+00 0.00000000D+00 0.00000000D+00
  <mgrwgt>
 0.1327446334D-02    4    2    0
 0.366896718755094D+03 0.000000000000000D+00 0.000000000000000D+00 0.366896718755094D+03
 0.366896718755094D+03 0.000000000000000D+00 0.000000000000000D+00 -.366896718755094D+03
 0.125973838450382D+03 -.871853011355975D+02 0.361132130957711D+02 -.222879143337135D+02
 0.223749405452757D+02 0.214052072704957D+02 0.564625783657200D+01 0.325189768515052D+01
 0.288025274333012D+03 0.153677838621913D+03 0.442674462749552D+02 -.239545556776572D+03
 0.297419384181519D+03 -.878977447568113D+02 -.860269172072983D+02 0.258581573425135D+03
 0.000000000000000D+00 0.000000000000000D+00 0.000000000000000D+00 0.000000000000000D+00
 0.482204959930219D+03 0.000000000000000D+00 0.000000000000000D+00 0.482204959930219D+03
 0.381101646716545D+03 0.000000000000000D+00 0.000000000000000D+00 -.381101646716545D+03
 0.123744018972882D+03 -.883020755678468D+02 0.234810264310079D+02 -.222879143337135D+02
 0.217259778659188D+02 0.212079815749506D+02 0.341537599573733D+01 0.325189768515052D+01
 0.283646423165369D+03 0.151121239978971D+03 0.153489553497290D+02 -.239545556776572D+03
 0.308471602759145D+03 -.906073770191078D+02 -.116676419507645D+03 0.258581573425135D+03
 0.125718583883449D+03 0.658023103303299D+01 0.744310617311712D+02 0.101103313213675D+03
0.264585468093D-04 0.000000000000D+00 0.000000000000D+00 0.105109872383D-06 0.000000000000D+00  7 2 -2 24 -13 13 -24 21 0 0.29133156D+00 0.10936375D-01 0.51301997D+05 0.51301997D+05 0.51301997D+05 0.11463147D+01  1  2  2  2  7  2       -2 0.144352130049D-02 0.100000000000D+01
-.105412568263D-05 0.000000000000D+00 -.101607786443D-06 0.105109872383D-06 0.000000000000D+00  7 2 -2 24 -13 13 -24 21 2 0.29133156D+00 0.10936375D-01 0.51301997D+05 0.51301997D+05 0.51301997D+05 0.11463147D+01  1  2  3  2  7  2       -2 -.755713726336D-04 0.100000000000D+01
0.164368052728D-05 0.000000000000D+00 0.000000000000D+00 0.105109872383D-06 0.000000000000D+00  7 2 -2 24 -13 13 -24 21 2 0.29133156D+00 0.10936375D-01 0.51301997D+05 0.51301997D+05 0.51301997D+05 0.11463147D+01  1  2 15  2  7  2       -2 0.117837176026D-03 0.100000000000D+01
-.220865476133D-05 0.000000000000D+00 0.000000000000D+00 0.105109872383D-06 0.000000000000D+00  7 2 -2 24 -13 13 -24 21 2 0.29133156D+00 0.10936375D-01 0.51301997D+05 0.51301997D+05 0.51301997D+05 0.11463147D+01  1  2  4  2  7  2       -2 -.158340769737D-03 0.100000000000D+01
  </mgrwgt>
  </event>
  <event>
  8     66 0.26993063E-05 0.30086011E+03 0.75467711E-02 0.92226553E-01
        2 -1    0    0  501    0 0.00000000E+00 0.00000000E+00 0.23303132E+04 0.23303132E+04 0.32000000E+00 0.0000E+00 0.9000E+01
       -2 -1    0    0    0  501 0.00000000E+00 0.00000000E+00 -.62261498E+02 0.62262320E+02 0.32000000E+00 0.0000E+00 0.9000E+01
       25  2    1    2    0    0 -.17869466E+03 -.14682913E+03 0.19710895E+04 0.20070387E+04 0.29919940E+03 0.0000E+00 0.0000E+00
       23  2    1    2    0    0 0.17869466E+03 0.14682913E+03 0.29696226E+03 0.38553681E+03 0.83435481E+02 0.0000E+00 0.0000E+00
       24  1    3    3    0    0 -.37243111E+02 0.56552930E+02 0.36020778E+03 0.37523612E+03 0.80419002E+02 0.0000E+00 0.9000E+01
      -13  1    4    4    0    0 0.17158260E+03 0.12261478E+03 0.22093251E+03 0.30542783E+03 0.10565837E+00 0.0000E+00 0.9000E+01
       13  1    4    4    0    0 0.71120544E+01 0.24214350E+02 0.76029743E+02 0.80108982E+02 0.10565837E+00 0.0000E+00 0.9000E+01
      -24  1    3    3    0    0 -.14145155E+03 -.20338206E+03 0.16108817E+04 0.16318026E+04 0.80419002E+02 0.0000E+00 0.9000E+01
#aMCatNLO 1  0  0  2  2 0.49371792D+03 0.00000000D+00  -5  7  0 0.00000000D+00 0.00000000D+00 0.00000000D+00 0.00000000D+00 0.00000000D+00
  <mgrwgt>
 0.1719929686D-02    3    2    0
 0.380906550355376D+03 0.000000000000000D+00 0.000000000000000D+00 0.380906550355376D+03
 0.380906550355376D+03 0.000000000000000D+00 0.000000000000000D+00 -.380906550355376D+03
 0.106077052995451D+03 -.372431108183716D+02 0.565529298106848D+02 0.141365499407571D+02
 0.301482259426526D+03 0.171582868095377D+03 0.122614935751098D+03 -.215444771706909D+03
 0.252385604822422D+02 0.711179071626605D+01 0.242141918223164D+02 0.283341518128104D+00
 0.329015227806533D+03 -.141451547993271D+03 -.203382057384099D+03 0.201024880248024D+03
 0.000000000000000D+00 -.000000000000000D+00 -.000000000000000D+00 0.000000000000000D+00
 0.963162075015289D+03 0.000000000000000D+00 0.000000000000000D+00 0.963162075015289D+03
 0.573567405336927D+03 0.000000000000000D+00 0.000000000000000D+00 -.573567405336927D+03
 0.157971334009907D+03 -.228293245776041D+02 0.133291808861617D+03 0.141365499407571D+02
 0.457885502578571D+03 0.213034984973672D+03 0.343305664085310D+03 -.215444771706909D+03
 0.463492618910063D+02 0.110196031472850D+02 0.450193529707118D+02 0.283341518128104D+00
 0.245602570915223D+03 -.110084501162011D+03 -.363841587916451D+02 0.201024880248024D+03
 0.628920810957508D+03 -.911407623813422D+02 -.485232667125994D+03 0.389594669678362D+03
0.441083727412D-04 0.000000000000D+00 0.000000000000D+00 0.340337172752D-07 0.000000000000D+00  7 2 -2 24 -13 13 -24 21 0 0.35850979D+00 0.95787569D-02 0.90516803D+05 0.90516803D+05 0.90516803D+05 0.11252903D+01  1  2  2  2  7  2       -2 0.169090455904D-02 0.100000000000D+01
-.228465242328D-05 0.000000000000D+00 -.169387765328D-06 0.340337172752D-07 0.000000000000D+00  7 2 -2 24 -13 13 -24 21 2 0.35850979D+00 0.95787569D-02 0.90516803D+05 0.90516803D+05 0.90516803D+05 0.11252903D+01  1  2  3  2  7  2       -2 -.110904035365D-03 0.100000000000D+01
0.288257770489D-05 0.000000000000D+00 0.000000000000D+00 0.340337172752D-07 0.000000000000D+00  7 2 -2 24 -13 13 -24 21 2 0.35850979D+00 0.95787569D-02 0.90516803D+05 0.90516803D+05 0.90516803D+05 0.11252903D+01  1  2 15  2  7  2       -2 0.139929162295D-03 0.100000000000D+01
  </mgrwgt>
  </event>
  <event>
  8     66 0.26993063E-05 0.14451097E+03 0.75467711E-02 0.99838183E-01
        2 -1    0    0  501    0 0.00000000E+00 0.00000000E+00 0.32296328E+04 0.32296328E+04 0.32000000E+00 0.0000E+00 0.9000E+01
       -2 -1    0    0    0  501 0.00000000E+00 0.00000000E+00 -.36783864E+02 0.36785256E+02 0.32000000E+00 0.0000E+00 0.9000E+01
       25  2    1    2    0    0 -.11876953E+03 0.20470463E+03 0.12569078E+04 0.13138613E+04 0.30067258E+03 0.0000E+00 0.0000E+00
       23  2    1    2    0    0 0.11876953E+03 -.20470463E+03 0.19359411E+04 0.19525568E+04 0.92735380E+02 0.0000E+00 0.0000E+00
       24  1    3    3    0    0 -.46520583E+02 -.22446246E+02 0.64835554E+03 0.65536259E+03 0.80419002E+02 0.0000E+00 0.9000E+01
      -13  1    4    4    0    0 0.76493504E+01 0.74466851E+01 0.18568638E+03 0.18599304E+03 0.10565837E+00 0.0000E+00 0.9000E+01
       13  1    4    4    0    0 0.11112018E+03 -.21215131E+03 0.17502547E+04 0.17665637E+04 0.10565837E+00 0.0000E+00 0.9000E+01
      -24  1    3    3    0    0 -.72248951E+02 0.22715087E+03 0.60855229E+03 0.65849870E+03 0.80419002E+02 0.0000E+00 0.9000E+01
#aMCatNLO 1  0  0  1  2 0.48839896D+02 0.00000000D+00  -5  7  0 0.00000000D+00 0.00000000D+00 0.00000000D+00 0.00000000D+00 0.00000000D+00
  <mgrwgt>
 0.1828355579D-02    9    2    0
 0.344674735611559D+03 0.000000000000000D+00 0.000000000000000D+00 0.344674735611559D+03
 0.344674735611559D+03 0.000000000000000D+00 0.000000000000000D+00 -.344674735611559D+03
 0.102396398351459D+03 -.465205835847696D+02 -.224462455904461D+02 0.367397305761210D+02
 0.212696589102757D+02 0.764921614975463D+01 0.744696902350901D+01 0.183964815879749D+02
 0.264070767957423D+03 0.111120318589365D+03 -.212151598099715D+03 0.111253515494828D+03
 0.301612646003960D+03 -.722489511543502D+02 0.227150874666652D+03 -.166389727658924D+03
 0.000000000000000D+00 0.000000000000000D+00 0.000000000000000D+00 0.000000000000000D+00
 0.460476829326738D+03 0.000000000000000D+00 0.000000000000000D+00 0.460476829326738D+03
 0.350727024268162D+03 0.000000000000000D+00 0.000000000000000D+00 -.350727024268162D+03
 0.106312229278363D+03 -.532175683885568D+02 -.255569315796699D+02 0.367397305761210D+02
 0.206092036505087D+02 0.630541877369736D+01 0.682278787445026D+01 0.183964815879749D+02
 0.263924500579285D+03 0.941781522303705D+02 -.220021073850984D+03 0.111253515494828D+03
 0.300231507065938D+03 -.915607601252094D+02 0.218180722373900D+03 -.166389727658924D+03
 0.120126413020805D+03 0.442947575096983D+02 0.205744951823035D+02 0.109749805058576D+03
0.525102148867D-04 0.000000000000D+00 0.000000000000D+00 0.446708246547D-06 0.000000000000D+00  7 2 -2 24 -13 13 -24 21 0 0.49686669D+00 0.56591644D-02 0.89194651D+05 0.89194651D+05 0.89194651D+05 0.11258202D+01  1  2  2  1  7  1        2 0.129289629922D-02 0.100000000000D+01
-.284438509347D-05 0.000000000000D+00 -.201653051422D-06 0.446708246547D-06 0.000000000000D+00  7 2 -2 24 -13 13 -24 21 2 0.49686669D+00 0.56591644D-02 0.89194651D+05 0.89194651D+05 0.89194651D+05 0.11258202D+01  1  2  3  1  7  1        2 -.887659482115D-04 0.100000000000D+01
0.334510743195D-05 0.000000000000D+00 0.000000000000D+00 0.446708246547D-06 0.000000000000D+00  7 2 -2 24 -13 13 -24 21 2 0.49686669D+00 0.56591644D-02 0.89194651D+05 0.89194651D+05 0.89194651D+05 0.11258202D+01  1  2 15  1  7  1        2 0.104392205453D-03 0.100000000000D+01
0.141132573297D-03 0.000000000000D+00 0.000000000000D+00 0.446708246547D-06 0.000000000000D+00  7 2 -2 24 -13 13 -24 21 2 0.66710059D+00 0.56591644D-02 0.10469398D+06 0.10469398D+06 0.10469398D+06 0.11200909D+01  1  2 12  1  7  1        2 0.613061077900D-03 0.100000000000D+01
-.139116179928D-03 0.000000000000D+00 0.000000000000D+00 0.446708246547D-06 0.000000000000D+00  7 2 -2 24 -13 13 -24 21 2 0.49686669D+00 0.56591644D-02 0.89194651D+05 0.89194651D+05 0.89194651D+05 0.11258202D+01  1  2  4  1  7  1        2 -.434145842318D-02 0.100000000000D+01
-.161227293243D-03 0.000000000000D+00 -.155491484585D-04 0.446708246547D-06 0.000000000000D+00  7 2 -2 24 -13 13 -24 21 2 0.66551628D+00 0.56591644D-02 0.89194651D+05 0.89194651D+05 0.89194651D+05 0.11258202D+01  1  2  5  1  7  1        2 -.730891407399D-03 0.100000000000D+01
0.159550706837D-03 0.000000000000D+00 0.149079960027D-04 0.446708246547D-06 0.000000000000D+00  7 2 -2 24 -13 13 -24 21 2 0.49686669D+00 0.56591644D-02 0.89194651D+05 0.89194651D+05 0.89194651D+05 0.11258202D+01  1  2  6  1  7  1        2 0.497916748779D-02 0.100000000000D+01
0.538459047638D-05 0.000000000000D+00 0.000000000000D+00 0.446708246547D-06 0.000000000000D+00  7 21 -2 24 -13 13 -24 -2 2 0.66710059D+00 0.56591644D-02 0.10469398D+06 0.10469398D+06 0.10469398D+06 0.11200909D+01  1  2 12  3  7  1        2 0.325318300285D-06 0.100000000000D+01
-.578060055848D-05 0.000000000000D+00 -.589773256575D-06 0.446708246547D-06 0.000000000000D+00  7 21 -2 24 -13 13 -24 -2 2 0.66551628D+00 0.56591644D-02 0.89194651D+05 0.89194651D+05 0.89194651D+05 0.11258202D+01  1  2  5  3  7  1        2 -.371030946238D-06 0.100000000000D+01
  </mgrwgt>
  </event>
  <event>
  8     66 0.26993063E-05 0.54823492E+03 0.75467711E-02 0.91075517E-01
        2 -1    0    0  501    0 0.00000000E+00 0.00000000E+00 0.17702501E+04 0.17702501E+04 0.32000000E+00 0.0000E+00 0.9000E+01
       -2 -1    0    0    0  501 0.00000000E+00 0.00000000E+00 -.18574234E+03 0.18574262E+03 0.32000000E+00 0.0000E+00 0.9000E+01
       25  2    1    2    0    0 0.38718604E+03 -.33617553E+03 0.10711386E+04 0.12245882E+04 0.29891693E+03 0.0000E+00 0.0000E+00
       23  2    1    2    0    0 -.38718604E+03 0.33617553E+03 0.51336910E+03 0.73140449E+03 0.92074320E+02 0.0000E+00 0.0000E+00
       24  1    3    3    0    0 0.39671587E+02 0.28081466E+01 0.90614649E+02 0.12751451E+03 0.80419002E+02 0.0000E+00 0.9000E+01
      -13  1    4    4    0    0 -.35088443E+03 0.28563084E+03 0.40908128E+03 0.60996096E+03 0.10565837E+00 0.0000E+00 0.9000E+01
       13  1    4    4    0    0 -.36301609E+02 0.50544694E+02 0.10428781E+03 0.12144353E+03 0.10565837E+00 0.0000E+00 0.9000E+01
      -24  1    3    3    0    0 0.34751446E+03 -.33898368E+03 0.98052400E+03 0.10970737E+04 0.80419002E+02 0.0000E+00 0.9000E+01
#aMCatNLO 1  0  0  1  2 0.26017006D+03 0.00000000D+00  -5  7  0 0.00000000D+00 0.00000000D+00 0.00000000D+00 0.00000000D+00 0.00000000D+00
  <mgrwgt>
 0.1315080635D-02    3    2    0
 0.573420169559157D+03 0.000000000000000D+00 0.000000000000000D+00 0.573420169559157D+03
 0.573420169559157D+03 0.000000000000000D+00 0.000000000000000D+00 -.573420169559157D+03
 0.922864707481351D+02 0.396715869172070D+02 0.280814655290359D+01 -.216299845858423D+02
 0.475120499981311D+03 -.350884848351436D+03 0.285631144956497D+03 -.145031588734045D+03
 0.630403365004418D+02 -.363011952239232D+02 0.505443847969781D+02 0.100783141893158D+02
 0.516393031888426D+03 0.347514456658153D+03 -.338983676306379D+03 0.156583259130572D+03
 0.000000000000000D+00 0.000000000000000D+00 -.000000000000000D+00 -.000000000000000D+00
 0.610707863529325D+03 0.000000000000000D+00 0.000000000000000D+00 0.610707863529325D+03
 0.133288771411827D+04 0.000000000000000D+00 0.000000000000000D+00 -.133288771411827D+04
 0.914603505761319D+02 0.310956886279953D+02 0.215170092881286D+02 -.216299845858423D+02
 0.579266597287358D+03 -.400095585377879D+03 0.392987469982549D+03 -.145031588734045D+03
 0.784972281810630D+02 -.429070877779459D+02 0.649555558334078D+02 0.100783141893158D+02
 0.426756786470395D+03 0.303495426258384D+03 -.242953386567172D+03 0.156583259130572D+03
 0.767614615132646D+03 0.108411558269446D+03 -.236506648536913D+03 -.722179850588943D+03
0.104196435907D-03 0.000000000000D+00 0.000000000000D+00 0.119974248602D-05 0.000000000000D+00  7 2 -2 24 -13 13 -24 21 0 0.27234619D+00 0.28575768D-01 0.30056152D+06 0.30056152D+06 0.30056152D+06 0.10844918D+01  1  2  2  1  7  1        2 0.130152762722D-02 0.100000000000D+01
-.577449240445D-05 0.000000000000D+00 -.400141749434D-06 0.119974248602D-05 0.000000000000D+00  7 2 -2 24 -13 13 -24 21 2 0.27234619D+00 0.28575768D-01 0.30056152D+06 0.30056152D+06 0.30056152D+06 0.10844918D+01  1  2  3  1  7  1        2 -.848334005237D-04 0.100000000000D+01
0.669702689229D-05 0.000000000000D+00 0.000000000000D+00 0.119974248602D-05 0.000000000000D+00  7 2 -2 24 -13 13 -24 21 2 0.27234619D+00 0.28575768D-01 0.30056152D+06 0.30056152D+06 0.30056152D+06 0.10844918D+01  1  2 15  1  7  1        2 0.983864078224D-04 0.100000000000D+01
  </mgrwgt>
  </event>
  <event>
  8     66 0.26993063E-05 0.29605336E+03 0.75467711E-02 0.94629915E-01
        2 -1    0    0  501    0 0.00000000E+00 0.00000000E+00 0.24113819E+04 0.24113819E+04 0.32000000E+00 0.0000E+00 0.9000E+01
       -2 -1    0    0    0  501 0.00000000E+00 0.00000000E+00 -.10092954E+03 0.10093005E+03 0.32000000E+00 0.0000E+00 0.9000E+01
       25  2    1    2    0    0 0.41903693E+03 -.12437949E+03 0.13893731E+04 0.14887605E+04 0.30820116E+03 0.0000E+00 0.0000E+00
       23  2    1    2    0    0 -.41903693E+03 0.12437949E+03 0.92107927E+03 0.10235515E+04 0.90600430E+02 0.0000E+00 0.0000E+00
       24  1    3    3    0    0 0.27999922E+03 -.17703793E+03 0.11201402E+04 0.11708643E+04 0.80419002E+02 0.0000E+00 0.9000E+01
      -11  1    4    4    0    0 -.38098183E+03 0.11114192E+03 0.75845610E+03 0.85601129E+03 0.51099893E-03 0.0000E+00 0.9000E+01
       11  1    4    4    0    0 -.38055100E+02 0.13237579E+02 0.16262317E+03 0.16754020E+03 0.51099893E-03 0.0000E+00 0.9000E+01
      -24  1    3    3    0    0 0.13903771E+03 0.52658433E+02 0.26923292E+03 0.31789617E+03 0.80419002E+02 0.0000E+00 0.9000E+01
#aMCatNLO 1  0  0  2  1 0.51158202D+02 0.00000000D+00  -5  7  0 0.00000000D+00 0.00000000D+00 0.00000000D+00 0.00000000D+00 0.00000000D+00
  <mgrwgt>
 0.7102231426D-03    9    2    0
 0.493335916602754D+03 0.000000000000000D+00 0.000000000000000D+00 0.493335916602754D+03
 0.493335916602754D+03 0.000000000000000D+00 0.000000000000000D+00 -.493335916602754D+03
 0.358321658186600D+03 0.279999215777709D+03 -.177037927433843D+03 0.110386621404142D+03
 0.403569568919099D+03 -.380981825705146D+03 0.111141916219293D+03 -.732715490420704D+02
 0.457904727176424D+02 -.380551002347873D+02 0.132375785247807D+02 0.217564531260430D+02
 0.178990133382167D+03 0.139037710162224D+03 0.526584326897691D+02 -.588715254881144D+02
 0.000000000000000D+00 0.000000000000000D+00 0.000000000000000D+00 -.000000000000000D+00
 0.499473035961751D+03 0.000000000000000D+00 0.000000000000000D+00 0.499473035961751D+03
 0.613516015827784D+03 0.000000000000000D+00 0.000000000000000D+00 -.613516015827784D+03
 0.365313189396884D+03 0.276733729995709D+03 -.195498713270942D+03 0.110386621404142D+03
 0.401877896697387D+03 -.384616500370002D+03 0.905939931674471D+02 -.732715490420704D+02
 0.455198020711024D+02 -.384671483901089D+02 0.109081447872668D+02 0.217564531260430D+02
 0.175286312279523D+03 0.137438996805523D+03 0.436204190944737D+02 -.588715254881144D+02
 0.124991851344638D+03 0.891092195887926D+01 0.503761562217545D+02 -.114042979866033D+03
0.410545070391D-04 0.000000000000D+00 0.000000000000D+00 0.247233966809D-07 0.000000000000D+00  7 2 -2 24 -11 11 -24 21 0 0.37098187D+00 0.15527662D-01 0.22424019D+06 0.22424019D+06 0.22424019D+06 0.10940298D+01  1  2  2  2  7  2       -2 0.641149517926D-03 0.100000000000D+01
-.227615482142D-05 0.000000000000D+00 -.157660116930D-06 0.247233966809D-07 0.000000000000D+00  7 2 -2 24 -11 11 -24 21 2 0.37098187D+00 0.15527662D-01 0.22424019D+06 0.22424019D+06 0.22424019D+06 0.10940298D+01  1  2  3  2  7  2       -2 -.425459871257D-04 0.100000000000D+01
0.263386039899D-05 0.000000000000D+00 0.000000000000D+00 0.247233966809D-07 0.000000000000D+00  7 2 -2 24 -11 11 -24 21 2 0.37098187D+00 0.15527662D-01 0.22424019D+06 0.22424019D+06 0.22424019D+06 0.10940298D+01  1  2 15  2  7  2       -2 0.492322356861D-04 0.100000000000D+01
0.248724216895D-03 0.000000000000D+00 0.000000000000D+00 0.247233966809D-07 0.000000000000D+00  7 2 -2 24 -11 11 -24 21 2 0.37098187D+00 0.19390958D-01 0.24981233D+06 0.24981233D+06 0.24981233D+06 0.10904836D+01  1  2 12  2  7  2       -2 0.319320465681D-02 0.100000000000D+01
-.247679198629D-03 0.000000000000D+00 0.000000000000D+00 0.247233966809D-07 0.000000000000D+00  7 2 -2 24 -11 11 -24 21 2 0.37098187D+00 0.15527662D-01 0.22424019D+06 0.22424019D+06 0.22424019D+06 0.10940298D+01  1  2  4  2  7  2       -2 -.462963059323D-02 0.100000000000D+01
-.299604022503D-03 0.000000000000D+00 -.259783648993D-04 0.247233966809D-07 0.000000000000D+00  7 2 -2 24 -11 11 -24 21 2 0.37098187D+00 0.19517092D-01 0.22424019D+06 0.22424019D+06 0.22424019D+06 0.10940298D+01  1  2  5  2  7  2       -2 -.384818574101D-02 0.100000000000D+01
0.298374259638D-03 0.000000000000D+00 0.253136651923D-04 0.247233966809D-07 0.000000000000D+00  7 2 -2 24 -11 11 -24 21 2 0.37098187D+00 0.15527662D-01 0.22424019D+06 0.22424019D+06 0.22424019D+06 0.10940298D+01  1  2  6  2  7  2       -2 0.557722492764D-02 0.100000000000D+01
0.770968584395D-05 0.000000000000D+00 0.000000000000D+00 0.247233966809D-07 0.000000000000D+00  7 2 21 24 -11 11 -24 2 2 0.37098187D+00 0.19390958D-01 0.24981233D+06 0.24981233D+06 0.24981233D+06 0.10904836D+01  1  2 12  4  7  2       -2 0.125074535716D-02 0.100000000000D+01
-.911385914112D-05 0.000000000000D+00 -.822818871753D-06 0.247233966809D-07 0.000000000000D+00  7 2 21 24 -11 11 -24 2 2 0.37098187D+00 0.19517092D-01 0.22424019D+06 0.22424019D+06 0.22424019D+06 0.10940298D+01  1  2  5  4  7  2       -2 -.148097123128D-02 0.100000000000D+01
  </mgrwgt>
  </event>
  <event>
  8     66 0.26993063E-05 0.31301911E+03 0.75467711E-02 0.94199273E-01
        2 -1    0    0  501    0 0.00000000E+00 0.00000000E+00 0.38579081E+03 0.38579094E+03 0.32000000E+00 0.0000E+00 0.9000E+01
       -2 -1    0    0    0  501 0.00000000E+00 0.00000000E+00 -.28831693E+03 0.28831711E+03 0.32000000E+00 0.0000E+00 0.9000E+01
       25  2    1    2    0    0 -.20447136E+03 0.12808967E+03 -.31709729E+02 0.38611045E+03 0.29976703E+03 0.0000E+00 0.0000E+00
       23  2    1    2    0    0 0.20447136E+03 -.12808967E+03 0.12918361E+03 0.28799760E+03 0.89658862E+02 0.0000E+00 0.0000E+00
       24  1    3    3    0    0 0.16116744E+02 -.44544531E+02 -.51123252E+01 0.93473614E+02 0.80419002E+02 0.0000E+00 0.9000E+01
      -11  1    4    4    0    0 0.20417960E+02 -.12803571E+02 -.13995372E+02 0.27869248E+02 0.51099893E-03 0.0000E+00 0.9000E+01
       11  1    4    4    0    0 0.18405340E+03 -.11528610E+03 0.14317898E+03 0.26012835E+03 0.51099893E-03 0.0000E+00 0.9000E+01
      -24  1    3    3    0    0 -.22058810E+03 0.17263420E+03 -.26597404E+02 0.29263683E+03 0.80419002E+02 0.0000E+00 0.9000E+01
#aMCatNLO 1  0  0  1  2 0.32839257D+03 0.00000000D+00  -5  7  0 0.00000000D+00 0.00000000D+00 0.00000000D+00 0.00000000D+00 0.00000000D+00
  <mgrwgt>
 0.1137662309D-02    3    2    0
 0.333511806990840D+03 0.000000000000000D+00 0.000000000000000D+00 0.333511806990840D+03
 0.333511806990840D+03 0.000000000000000D+00 0.000000000000000D+00 -.333511806990840D+03
 0.952134709854889D+02 0.161167443073142D+02 -.445445311182656D+02 -.188261627295774D+02
 0.302104258385978D+02 0.204179604056618D+02 -.128035708012116D+02 -.182166214474749D+02
 0.241968050700410D+03 0.184053399438707D+03 -.115286099346769D+03 0.106686451868168D+03
 0.299631666457184D+03 -.220588104151683D+03 0.172634201266246D+03 -.696436676911153D+02
 0.000000000000000D+00 -.000000000000000D+00 0.000000000000000D+00 -.000000000000000D+00
 0.509988900327686D+03 0.000000000000000D+00 0.000000000000000D+00 0.509988900327686D+03
 0.566753362198927D+03 0.000000000000000D+00 0.000000000000000D+00 -.566753362198927D+03
 0.129269593795568D+03 0.276807556419577D+02 -.955131576782498D+02 -.188261627295774D+02
 0.420446985933227D+02 0.241401079036557D+02 -.292090152734154D+02 -.182166214474749D+02
 0.345104016502345D+03 0.214295805679938D+03 -.248580149774310D+03 0.106686451868168D+03
 0.227061469468912D+03 -.193456055684380D+03 0.530491190556721D+02 -.696436676911153D+02
 0.333262484166465D+03 -.726606135411712D+02 0.320253203670303D+03 -.567644618712408D+02
0.231336638195D-04 0.000000000000D+00 0.000000000000D+00 0.960189739724D-06 0.000000000000D+00  7 2 -2 24 -11 11 -24 21 0 0.59352456D-01 0.44356475D-01 0.97980963D+05 0.97980963D+05 0.97980963D+05 0.11224497D+01  1  2  2  1  7  1        2 0.112568107935D-02 0.100000000000D+01
-.127891972075D-05 0.000000000000D+00 -.888393603005D-07 0.960189739724D-06 0.000000000000D+00  7 2 -2 24 -11 11 -24 21 2 0.59352456D-01 0.44356475D-01 0.97980963D+05 0.97980963D+05 0.97980963D+05 0.11224497D+01  1  2  3  1  7  1        2 -.784057661826D-04 0.100000000000D+01
0.147435217023D-05 0.000000000000D+00 0.000000000000D+00 0.960189739724D-06 0.000000000000D+00  7 2 -2 24 -11 11 -24 21 2 0.59352456D-01 0.44356475D-01 0.97980963D+05 0.97980963D+05 0.97980963D+05 0.11224497D+01  1  2 15  1  7  1        2 0.903869958800D-04 0.100000000000D+01
  </mgrwgt>
  </event>
  <event>
  8     66 0.26993063E-05 0.20880928E+03 0.75467711E-02 0.93167346E-01
        2 -1    0    0  501    0 0.00000000E+00 0.00000000E+00 0.24264337E+04 0.24264337E+04 0.32000000E+00 0.0000E+00 0.9000E+01
       -2 -1    0    0    0  501 0.00000000E+00 0.00000000E+00 -.13929236E+03 0.13929273E+03 0.32000000E+00 0.0000E+00 0.9000E+01
       25  2    1    2    0    0 0.28021343E+03 -.42561808E+03 0.15961412E+04 0.17022247E+04 0.30038584E+03 0.0000E+00 0.0000E+00
       23  2    1    2    0    0 -.28021343E+03 0.42561808E+03 0.69100011E+03 0.86350179E+03 0.92107938E+02 0.0000E+00 0.0000E+00
       24  1    3    3    0    0 0.17979426E+03 -.15382559E+03 0.10441574E+04 0.10736481E+04 0.80419002E+02 0.0000E+00 0.9000E+01
      -13  1    4    4    0    0 -.26276145E+03 0.40432547E+03 0.60771113E+03 0.77578057E+03 0.10565837E+00 0.0000E+00 0.9000E+01
       13  1    4    4    0    0 -.17451974E+02 0.21292612E+02 0.83288980E+02 0.87721218E+02 0.10565837E+00 0.0000E+00 0.9000E+01
      -24  1    3    3    0    0 0.10041917E+03 -.27179249E+03 0.55198386E+03 0.62857662E+03 0.80419002E+02 0.0000E+00 0.9000E+01
#aMCatNLO 1  0  0  1  2 0.76321469D+02 0.00000000D+00  -5  7  0 0.00000000D+00 0.00000000D+00 0.00000000D+00 0.00000000D+00 0.00000000D+00
  <mgrwgt>
 0.1201147366D-02    9    2    0
 0.581364062144365D+03 0.000000000000000D+00 0.000000000000000D+00 0.581364062144365D+03
 0.581364062144365D+03 0.000000000000000D+00 0.000000000000000D+00 -.581364062144365D+03
 0.315251416992214D+03 0.179794258253384D+03 -.153825589711251D+03 0.192166471087778D+03
 0.516475184010978D+03 -.262761775339281D+03 0.404325970134869D+03 -.184995608040352D+03
 0.297354419867951D+02 -.174516511749326D+02 0.212921080363414D+02 0.112375494120068D+02
 0.301266081298744D+03 0.100419168260830D+03 -.271792488459959D+03 -.184084124594324D+02
 0.000000000000000D+00 -.000000000000000D+00 -.000000000000000D+00 0.000000000000000D+00
 0.816192710751465D+03 0.000000000000000D+00 0.000000000000000D+00 0.816192710751465D+03
 0.588849661325403D+03 0.000000000000000D+00 0.000000000000000D+00 -.588849661325403D+03
 0.312095963301383D+03 0.188893682663592D+03 -.135380568746420D+03 0.192166471087778D+03
 0.533757169731889D+03 -.247528572465992D+03 0.435204488785358D+03 -.184995608040352D+03
 0.305460206380839D+02 -.165772925185926D+02 0.230644798941568D+02 0.112375494120068D+02
 0.288831148736173D+03 0.108978294046711D+03 -.254442681764044D+03 -.184084124594324D+02
 0.239812069669339D+03 -.337661117257183D+02 -.684457181690500D+02 0.227343049426062D+03
0.102425929531D-03 0.000000000000D+00 0.000000000000D+00 0.474362921161D-05 0.000000000000D+00  7 2 -2 24 -13 13 -24 21 0 0.37329752D+00 0.21429623D-01 0.28108607D+06 0.28108607D+06 0.28108607D+06 0.10866505D+01  1  2  2  1  7  1        2 0.911975074408D-03 0.100000000000D+01
-.563155485610D-05 0.000000000000D+00 -.393342538765D-06 0.474362921161D-05 0.000000000000D+00  7 2 -2 24 -13 13 -24 21 2 0.37329752D+00 0.21429623D-01 0.28108607D+06 0.28108607D+06 0.28108607D+06 0.10866505D+01  1  2  3  1  7  1        2 -.592081033104D-04 0.100000000000D+01
0.654856438517D-05 0.000000000000D+00 0.000000000000D+00 0.474362921161D-05 0.000000000000D+00  7 2 -2 24 -13 13 -24 21 2 0.37329752D+00 0.21429623D-01 0.28108607D+06 0.28108607D+06 0.28108607D+06 0.10866505D+01  1  2 15  1  7  1        2 0.688492053365D-04 0.100000000000D+01
0.475231870675D-03 0.000000000000D+00 0.000000000000D+00 0.474362921161D-05 0.000000000000D+00  7 2 -2 24 -13 13 -24 21 2 0.52575225D+00 0.21429623D-01 0.32464963D+06 0.32464963D+06 0.32464963D+06 0.10820238D+01  1  2 12  1  7  1        2 0.117592346912D-02 0.100000000000D+01
-.457431000627D-03 0.000000000000D+00 0.000000000000D+00 0.474362921161D-05 0.000000000000D+00  7 2 -2 24 -13 13 -24 21 2 0.37329752D+00 0.21429623D-01 0.28108607D+06 0.28108607D+06 0.28108607D+06 0.10866505D+01  1  2  4  1  7  1        2 -.480926185300D-02 0.100000000000D+01
-.510872271118D-03 0.000000000000D+00 -.335692321294D-04 0.474362921161D-05 0.000000000000D+00  7 2 -2 24 -13 13 -24 21 2 0.52545129D+00 0.21429623D-01 0.28108607D+06 0.28108607D+06 0.28108607D+06 0.10866505D+01  1  2  5  1  7  1        2 -.129134098760D-02 0.100000000000D+01
0.495007709950D-03 0.000000000000D+00 0.316986019869D-04 0.474362921161D-05 0.000000000000D+00  7 2 -2 24 -13 13 -24 21 2 0.37329752D+00 0.21429623D-01 0.28108607D+06 0.28108607D+06 0.28108607D+06 0.10866505D+01  1  2  6  1  7  1        2 0.520432959974D-02 0.100000000000D+01
0.202092529573D-04 0.000000000000D+00 0.000000000000D+00 0.474362921161D-05 0.000000000000D+00  7 21 -2 24 -13 13 -24 -2 2 0.52575225D+00 0.21429623D-01 0.32464963D+06 0.32464963D+06 0.32464963D+06 0.10820238D+01  1  2 12  3  7  1        2 0.196461515212D-05 0.100000000000D+01
-.207814084308D-04 0.000000000000D+00 -.142581193100D-05 0.474362921161D-05 0.000000000000D+00  7 21 -2 24 -13 13 -24 -2 2 0.52545129D+00 0.21429623D-01 0.28108607D+06 0.28108607D+06 0.28108607D+06 0.10866505D+01  1  2  5  3  7  1        2 -.208365418212D-05 0.100000000000D+01
  </mgrwgt>
  </event>
  <event>
  9     66 -.26993063E-05 0.61552925E+03 0.75467711E-02 0.92008565E-01
        2 -1    0    0  502    0 0.00000000E+00 0.00000000E+00 0.10170720E+04 0.10170721E+04 0.32000000E+00 0.0000E+00 0.9000E+01
       -2 -1    0    0    0  501 0.00000000E+00 0.00000000E+00 -.41470319E+03 0.41470332E+03 0.32000000E+00 0.0000E+00 0.9000E+01
       25  2    1    2    0    0 -.29875983E+03 -.47416304E+03 0.17113163E+03 0.65823966E+03 0.29984226E+03 0.0000E+00 0.0000E+00
       23  2    1    2    0    0 0.32209346E+03 0.50182062E+03 0.42303821E+03 0.73642527E+03 0.88276450E+02 0.0000E+00 0.0000E+00
       24  1    3    3    0    0 -.32400381E+03 -.33734118E+03 0.13666111E+03 0.49388360E+03 0.80419002E+02 0.0000E+00 0.9000E+01
      -11  1    4    4    0    0 0.28832327E+03 0.45830367E+03 0.34915478E+03 0.64426828E+03 0.51099893E-03 0.0000E+00 0.9000E+01
       11  1    4    4    0    0 0.33770194E+02 0.43516949E+02 0.73883422E+02 0.92156990E+02 0.51099893E-03 0.0000E+00 0.9000E+01
      -24  1    3    3    0    0 0.25243972E+02 -.13682186E+03 0.34470526E+02 0.16435605E+03 0.80419002E+02 0.0000E+00 0.9000E+01
       21  1    1    2  502  501 -.23333629E+02 -.27657575E+02 0.81989795E+01 0.37110450E+02 0.75000000E+00 0.0000E+00 0.9000E+01
#aMCatNLO 2  0  0  1  2 0.36185628D+02 0.00000000D+00  -5  7  0 0.00000000D+00 0.00000000D+00 0.00000000D+00 0.00000000D+00 0.00000000D+00
  <mgrwgt>
 -.7236266374D-03    3    2    0
 0.630623317068241D+03 0.000000000000000D+00 0.000000000000000D+00 0.630623317068241D+03
 0.630623317068241D+03 0.000000000000000D+00 0.000000000000000D+00 -.630623317068241D+03
 0.495139045609787D+03 -.333036533005806D+03 -.348047758302481D+03 -.815161588710472D+02
 0.532550831410024D+03 0.278332672949402D+03 0.446461717275698D+03 0.825423903917470D+02
 0.655203074313029D+02 0.325439401779580D+02 0.420634581493834D+02 0.382683698646936D+02
 0.168036449685369D+03 0.221599198784461D+02 -.140477417122600D+03 -.392946013853934D+02
 0.000000000000000D+00 -.000000000000000D+00 -.000000000000000D+00 -.000000000000000D+00
 0.645251749734931D+03 0.000000000000000D+00 0.000000000000000D+00 0.645251749734931D+03
 0.653664579024129D+03 0.000000000000000D+00 0.000000000000000D+00 -.653664579024129D+03
 0.481549206142717D+03 -.324003806011120D+03 -.337341179691316D+03 -.815161588710472D+02
 0.547709598915061D+03 0.288323268753929D+03 0.458303667045293D+03 0.825423903917470D+02
 0.670717449782166D+02 0.337701941120371D+02 0.435169487896066D+02 0.382683698646936D+02
 0.165435066796471D+03 0.252439716866662D+02 -.136821860705912D+03 -.392946013853934D+02
 0.371507119265959D+02 -.233336285415129D+02 -.276575754376702D+02 -.841282928919813D+01
-.186906757034D-03 0.000000000000D+00 0.000000000000D+00 0.138970989681D-05 0.000000000000D+00  7 2 -2 24 -11 11 -24 21 2 0.15918438D+00 0.61551218D-01 0.40197063D+06 0.40197063D+06 0.40197063D+06 0.10752738D+01  1  2 13  1  7  1        2 -.160294122742D-02 0.100000000000D+01
-.650593387352D-04 0.000000000000D+00 0.000000000000D+00 0.138970989681D-05 0.000000000000D+00  7 2 -2 24 -11 11 -24 21 2 0.15292436D+00 0.61551218D-01 0.37887626D+06 0.37887626D+06 0.37887626D+06 0.10771304D+01  1  2  8  1  7  1        2 -.594645289271D-03 0.100000000000D+01
0.180767409277D-03 0.000000000000D+00 0.000000000000D+00 0.138970989681D-05 0.655382596919D-08  7 2 -2 24 -11 11 -24 21 2 0.15647172D+00 0.63800132D-01 0.40197063D+06 0.40197063D+06 0.40197063D+06 0.10752738D+01  1  2  1  1  7  1        2 0.147395987934D-02 0.100000000000D+01
  </mgrwgt>
  </event>
  <event>
  8     66 0.26993063E-05 0.42310072E+03 0.75467711E-02 0.83966262E-01
        2 -1    0    0  501    0 0.00000000E+00 0.00000000E+00 0.18522375E+04 0.18522376E+04 0.32000000E+00 0.0000E+00 0.9000E+01
       -2 -1    0    0    0  501 0.00000000E+00 0.00000000E+00 -.11134865E+03 0.11134911E+03 0.32000000E+00 0.0000E+00 0.9000E+01
       25  2    1    2    0    0 0.24637177E+03 0.31000936E+03 0.10175059E+04 0.11329717E+04 0.30249264E+03 0.0000E+00 0.0000E+00
       23  2    1    2    0    0 -.24637177E+03 -.31000936E+03 0.72338297E+03 0.83061495E+03 0.99163642E+02 0.0000E+00 0.0000E+00
       24  1    3    3    0    0 0.13110034E+03 0.73025502E+02 0.66002606E+03 0.68163160E+03 0.80419002E+02 0.0000E+00 0.9000E+01
      -13  1    4    4    0    0 -.18842861E+03 -.19236196E+03 0.55776158E+03 0.61935972E+03 0.10565837E+00 0.0000E+00 0.9000E+01
       13  1    4    4    0    0 -.57943164E+02 -.11764739E+03 0.16562139E+03 0.21125524E+03 0.10565837E+00 0.0000E+00 0.9000E+01
      -24  1    3    3    0    0 0.11527143E+03 0.23698385E+03 0.35747987E+03 0.45134014E+03 0.80419002E+02 0.0000E+00 0.9000E+01
#aMCatNLO 1  0  0  2  2 0.13233864D+04 0.00000000D+00  -5  7  0 0.00000000D+00 0.00000000D+00 0.00000000D+00 0.00000000D+00 0.00000000D+00
  <mgrwgt>
 0.7038457611D-03    5    2    0
 0.454141647235358D+03 0.000000000000000D+00 0.000000000000000D+00 0.454141647235358D+03
 0.454141647235358D+03 0.000000000000000D+00 0.000000000000000D+00 -.454141647235358D+03
 0.208537027937095D+03 0.131100337717899D+03 0.730255025112667D+02 0.120417828828193D+03
 0.269922044582148D+03 -.188428750999432D+03 -.192362049745165D+03 0.186911146280718D+02
 0.139262056275236D+03 -.579430220402119D+02 -.117647307770275D+03 -.468576300004682D+02
 0.290562165676236D+03 0.115271435321745D+03 0.236983855004174D+03 -.922513134557970D+02
 0.000000000000000D+00 0.000000000000000D+00 -.000000000000000D+00 -.000000000000000D+00
 0.871321198619422D+03 0.000000000000000D+00 0.000000000000000D+00 0.871321198619422D+03
 0.716890388262151D+04 0.000000000000000D+00 0.000000000000000D+00 -.716890388262151D+04
 0.472242308535516D+03 0.126093289416159D+03 0.431445953603808D+03 0.120417828828193D+03
 0.200586390280138D+03 -.191889282677637D+03 0.553538200401550D+02 0.186911146280718D+02
 0.758819310791638D+02 -.595253796101315D+02 -.437711746608626D+01 -.468576300004682D+02
 0.856384375368627D+03 0.106835784556725D+03 0.840834581071076D+03 -.922513134557970D+02
 0.643513007597749D+04 0.184855883148845D+02 -.132325723724895D+04 -.629758268400209D+04
0.255834455339D-04 0.000000000000D+00 0.000000000000D+00 0.383875827290D-08 0.000000000000D+00  7 2 -2 24 -13 13 -24 21 0 0.28495966D+00 0.17130600D-01 0.17901422D+06 0.17901422D+06 0.17901422D+06 0.11015421D+01  1  2  2  2  7  2       -2 0.698538179476D-03 0.100000000000D+01
-.141264047543D-05 0.000000000000D+00 -.982471671263D-07 0.383875827290D-08 0.000000000000D+00  7 2 -2 24 -13 13 -24 21 2 0.28495966D+00 0.17130600D-01 0.17901422D+06 0.17901422D+06 0.17901422D+06 0.11015421D+01  1  2  3  2  7  2       -2 -.468020591588D-04 0.100000000000D+01
0.162953944070D-05 0.000000000000D+00 0.000000000000D+00 0.383875827290D-08 0.000000000000D+00  7 2 -2 24 -13 13 -24 21 2 0.28495966D+00 0.17130600D-01 0.17901422D+06 0.17901422D+06 0.17901422D+06 0.11015421D+01  1  2 15  2  7  2       -2 0.539881184432D-04 0.100000000000D+01
-.517068091761D-04 0.000000000000D+00 -.400157875452D-04 0.383875827290D-08 0.000000000000D+00  7 2 -2 24 -13 13 -24 21 2 0.28495966D+00 0.40725030D+00 0.17901422D+06 0.17901422D+06 0.17901422D+06 0.11015421D+01  1  2  5  2  7  2       -2 -.367246137964D-06 0.100000000000D+01
-.279759460283D-04 0.000000000000D+00 -.131929186240D-04 0.383875827290D-08 0.000000000000D+00  7 2 21 24 -13 13 -24 2 2 0.28495966D+00 0.40725030D+00 0.17901422D+06 0.17901422D+06 0.17901422D+06 0.11015421D+01  1  2  5  4  7  2       -2 -.151123148802D-05 0.100000000000D+01
  </mgrwgt>
  </event>
  <event>
  9     66 -.26993063E-05 0.82588635E+03 0.75467711E-02 0.88051410E-01
        2 -1    0    0  501    0 0.00000000E+00 0.00000000E+00 0.26055902E+04 0.26055902E+04 0.32000000E+00 0.0000E+00 0.9000E+01
       -2 -1    0    0    0  502 0.00000000E+00 0.00000000E+00 -.10015725E+04 0.10015726E+04 0.32000000E+00 0.0000E+00 0.9000E+01
       25  2    1    2    0    0 0.47950944E+03 0.73140830E+03 -.63525538E+03 0.11202711E+04 0.29422860E+03 0.0000E+00 0.0000E+00
       23  2    1    2    0    0 -.53707841E+03 -.53311165E+03 0.21093108E+04 0.22429112E+04 0.93792838E+02 0.0000E+00 0.0000E+00
       24  1    3    3    0    0 0.39608001E+03 0.52863119E+03 -.57407351E+03 0.87883896E+03 0.80419002E+02 0.0000E+00 0.9000E+01
      -11  1    4    4    0    0 -.13144157E+03 -.17915501E+03 0.69196736E+03 0.72676835E+03 0.51099893E-03 0.0000E+00 0.9000E+01
       11  1    4    4    0    0 -.40563685E+03 -.35395664E+03 0.14173435E+04 0.15161428E+04 0.51099893E-03 0.0000E+00 0.9000E+01
      -24  1    3    3    0    0 0.83429437E+02 0.20277711E+03 -.61181869E+02 0.24143211E+03 0.80419002E+02 0.0000E+00 0.9000E+01
       21  1    1    2  501  502 0.57568969E+02 -.19829665E+03 0.12996225E+03 0.24398053E+03 0.75000000E+00 0.0000E+00 0.9000E+01
#aMCatNLO 2  0  0  2  1 0.20648425D+03 0.00000000D+00  -5  7  0 0.00000000D+00 0.00000000D+00 0.00000000D+00 0.00000000D+00 0.00000000D+00
  <mgrwgt>
 -.4456446450D-03    2    2    0
 0.150793895345986D+04 0.000000000000000D+00 0.000000000000000D+00 0.150793895345986D+04
 0.150793895345986D+04 0.000000000000000D+00 0.000000000000000D+00 -.150793895345986D+04
 0.123343450844217D+04 0.419828259490960D+03 0.446830192069831D+03 -.106723028566905D+04
 0.481523149356731D+03 -.122359588668633D+03 -.210437930454703D+03 0.415461853667950D+03
 0.101352181845180D+04 -.386482995950744D+03 -.419932190436473D+03 0.837564520352909D+03
 0.287398430669020D+03 0.890143251284173D+02 0.183539928821346D+03 -.185796088351807D+03
 0.000000000000000D+00 0.000000000000000D+00 -.000000000000000D+00 0.000000000000000D+00
 0.162831256913383D+04 0.000000000000000D+00 0.000000000000000D+00 0.162831256913383D+04
 0.160269316089703D+04 0.000000000000000D+00 0.000000000000000D+00 -.160269316089703D+04
 0.125768756126989D+04 0.396080007214658D+03 0.528631186229333D+03 -.106723028566905D+04
 0.471149608793214D+03 -.131441565530538D+03 -.179155007922389D+03 0.415461853667950D+03
 0.995661026228062D+03 -.405636846998353D+03 -.353956638238011D+03 0.837564520352909D+03
 0.298439993093246D+03 0.834294367563008D+02 0.202777109553372D+03 -.185796088351807D+03
 0.208067540646442D+03 0.575689685579323D+02 -.198296649622305D+03 0.256194082367928D+02
-.934850760834D-02 0.000000000000D+00 0.000000000000D+00 0.970478501316D-07 0.000000000000D+00  7 2 -2 24 -11 11 -24 21 2 0.37122615D+00 0.15948253D+00 0.87051012D+06 0.87051012D+06 0.87051012D+06 0.10518967D+01  1  2 13  2  7  2       -2 -.119410324765D-02 0.100000000000D+01
0.690213066242D-02 0.000000000000D+00 0.000000000000D+00 0.970478501316D-07 0.134727362007D-10  7 2 -2 24 -11 11 -24 21 2 0.40085987D+00 0.15408802D+00 0.87051012D+06 0.87051012D+06 0.87051012D+06 0.10518967D+01  1  2  1  2  7  2       -2 0.748458602601D-03 0.100000000000D+01
  </mgrwgt>
  </event>
  <event>
  9     66 0.26993063E-05 0.18175351E+03 0.75467711E-02 0.10717932E+00
        2 -1    0    0  502    0 0.00000000E+00 0.00000000E+00 0.85662294E+03 0.85662300E+03 0.32000000E+00 0.0000E+00 0.9000E+01
       -2 -1    0    0    0  501 0.00000000E+00 0.00000000E+00 -.15945075E+03 0.15945107E+03 0.32000000E+00 0.0000E+00 0.9000E+01
       25  2    1    2    0    0 0.78716925E+02 0.51590609E+01 0.79010923E+03 0.84850512E+03 0.29910763E+03 0.0000E+00 0.0000E+00
       23  2    1    2    0    0 -.65035170E+02 0.57308449E+01 -.98306041E+02 0.14926132E+03 0.91391737E+02 0.0000E+00 0.0000E+00
       24  1    3    3    0    0 0.39864447E+02 -.87754332E+02 0.63286532E+03 0.64519433E+03 0.80419002E+02 0.0000E+00 0.9000E+01
      -11  1    4    4    0    0 0.20012232E+02 -.35380276E+00 -.12248431E+01 0.20052802E+02 0.51099893E-03 0.0000E+00 0.9000E+01
       11  1    4    4    0    0 -.85047402E+02 0.60846477E+01 -.97081198E+02 0.12920852E+03 0.51099893E-03 0.0000E+00 0.9000E+01
      -24  1    3    3    0    0 0.38852478E+02 0.92913393E+02 0.15724391E+03 0.20331079E+03 0.80419002E+02 0.0000E+00 0.9000E+01
       21  1    1    2  502  501 -.13681755E+02 -.10889906E+02 0.53689989E+01 0.18307625E+02 0.75000000E+00 0.0000E+00 0.9000E+01
#aMCatNLO 2  0  0  1  2 0.17486580D+02 0.00000000D+00  -5  7  0 0.00000000D+00 0.00000000D+00 0.00000000D+00 0.00000000D+00 0.00000000D+00
  <mgrwgt>
 0.5239109451D-03    2    2    0
 0.359388524697642D+03 0.000000000000000D+00 0.000000000000000D+00 0.359388524697642D+03
 0.359388524697642D+03 0.000000000000000D+00 0.000000000000000D+00 -.359388524697642D+03
 0.287078210378780D+03 0.344070250561101D+02 -.920981319488173D+02 0.257450526583728D+03
 0.286394974930911D+02 0.194636745019198D+02 -.790423846358871D+00 -.209943187954073D+02
 0.274324768578161D+03 -.902530423583077D+02 0.194125121325131D+01 -.259045746045477D+03
 0.128734572945252D+03 0.363823428002778D+02 0.909473045819248D+02 0.225895382571566D+02
 0.000000000000000D+00 -.000000000000000D+00 -.000000000000000D+00 -.000000000000000D+00
 0.364525708128651D+03 0.000000000000000D+00 0.000000000000000D+00 0.364525708128651D+03
 0.374690147929624D+03 0.000000000000000D+00 0.000000000000000D+00 -.374690147929624D+03
 0.286422740844860D+03 0.398644466890569D+02 -.877543319195565D+02 0.257450526583728D+03
 0.290064827191254D+02 0.200122323008064D+02 -.353802756196203D+00 -.209943187954073D+02
 0.272717403263812D+03 -.850474018508686D+02 0.608464765746647D+01 -.259045746045477D+03
 0.130843099946335D+03 0.388524778618605D+02 0.929133928694789D+02 0.225895382571566D+02
 0.202261292841432D+02 -.136817550008551D+02 -.108899058511927D+02 -.101644398009734D+02
-.521701866725D-05 0.000000000000D+00 0.000000000000D+00 0.978878732453D-06 0.000000000000D+00  7 2 -2 24 -11 11 -24 21 2 0.12992845D+00 0.23528673D-01 0.33034338D+05 0.33034338D+05 0.33034338D+05 0.11634733D+01  1  2  8  1  7  1        2 -.434944132315D-03 0.100000000000D+01
0.126266371478D-04 0.000000000000D+00 0.000000000000D+00 0.978878732453D-06 0.230160745571D-07  7 2 -2 24 -11 11 -24 21 2 0.13178568D+00 0.24530450D-01 0.35564833D+05 0.35564833D+05 0.35564833D+05 0.11605409D+01  1  2  1  1  7  1        2 0.958855077365D-03 0.100000000000D+01
  </mgrwgt>
  </event>
  <event>
  8     66 0.26993063E-05 0.39930074E+03 0.75467711E-02 0.94223590E-01
        2 -1    0    0  501    0 0.00000000E+00 0.00000000E+00 0.14854832E+04 0.14854832E+04 0.32000000E+00 0.0000E+00 0.9000E+01
       -2 -1    0    0    0  501 0.00000000E+00 0.00000000E+00 -.28065333E+03 0.28065352E+03 0.32000000E+00 0.0000E+00 0.9000E+01
       25  2    1    2    0    0 -.36495795E+03 -.29624689E+02 -.30166091E+02 0.47487273E+03 0.30086906E+03 0.0000E+00 0.0000E+00
       23  2    1    2    0    0 0.36495795E+03 0.29624689E+02 0.12349959E+04 0.12912640E+04 0.89865566E+02 0.0000E+00 0.0000E+00
       24  1    3    3    0    0 -.82554526E+02 -.56308263E+02 0.89779870E+02 0.15656791E+03 0.80419002E+02 0.0000E+00 0.9000E+01
      -13  1    4    4    0    0 0.72989872E+02 -.27479493E+02 0.21214948E+03 0.22603110E+03 0.10565837E+00 0.0000E+00 0.9000E+01
       13  1    4    4    0    0 0.29196808E+03 0.57104182E+02 0.10228465E+04 0.10652329E+04 0.10565837E+00 0.0000E+00 0.9000E+01
      -24  1    3    3    0    0 -.28240343E+03 0.26683574E+02 -.11994596E+03 0.31830482E+03 0.80419002E+02 0.0000E+00 0.9000E+01
#aMCatNLO 1  0  0  2  2 0.21280482D+03 0.00000000D+00  -5  7  0 0.00000000D+00 0.00000000D+00 0.00000000D+00 0.00000000D+00 0.00000000D+00
  <mgrwgt>
 0.8809489177D-03    4    2    0
 0.645682585768001D+03 0.000000000000000D+00 0.000000000000000D+00 0.645682585768001D+03
 0.645682585768001D+03 0.000000000000000D+00 0.000000000000000D+00 -.645682585768001D+03
 0.130366590879772D+03 -.825545260267324D+02 -.563082629105690D+02 -.232886629873674D+02
 0.111197903401588D+03 0.729895694676522D+02 -.274796100680972D+02 0.792613871966736D+02
 0.502562507599359D+03 0.291968383510735D+03 0.571042992656940D+02 0.405046461631327D+03
 0.547238169655284D+03 -.282403426951655D+03 0.266835737129723D+02 -.461019185840633D+03
 0.000000000000000D+00 0.000000000000000D+00 -.000000000000000D+00 0.000000000000000D+00
 0.811395126229958D+03 0.000000000000000D+00 0.000000000000000D+00 0.811395126229958D+03
 0.726500274323745D+03 0.000000000000000D+00 0.000000000000000D+00 -.726500274323745D+03
 0.137342335280351D+03 -.999994011247605D+02 -.430518182756538D+02 -.232886629873674D+02
 0.100381128770714D+03 0.592023198508807D+02 -.170026126585172D+02 0.792613871966736D+02
 0.476726093168715D+03 0.228154421195920D+03 0.105596836678962D+03 0.405046461631327D+03
 0.594332279298788D+03 -.356792257325179D+03 0.832120043128672D+02 -.461019185840633D+03
 0.229113564035135D+03 0.169434917403139D+03 -.128754410057658D+03 0.848948519062129D+02
0.139685733913D-03 0.000000000000D+00 0.000000000000D+00 0.175800466841D-05 0.000000000000D+00  7 2 -2 24 -13 13 -24 21 0 0.22853589D+00 0.43177453D-01 0.15944108D+06 0.15944108D+06 0.15944108D+06 0.11054660D+01  1  2  2  2  7  2       -2 0.120086463285D-02 0.100000000000D+01
-.558102244511D-05 0.000000000000D+00 -.536429998323D-06 0.175800466841D-05 0.000000000000D+00  7 2 -2 24 -13 13 -24 21 2 0.22853589D+00 0.43177453D-01 0.15944108D+06 0.15944108D+06 0.15944108D+06 0.11054660D+01  1  2  3  2  7  2       -2 -.586336009637D-04 0.100000000000D+01
0.843249132943D-05 0.000000000000D+00 0.000000000000D+00 0.175800466841D-05 0.000000000000D+00  7 2 -2 24 -13 13 -24 21 2 0.22853589D+00 0.43177453D-01 0.15944108D+06 0.15944108D+06 0.15944108D+06 0.11054660D+01  1  2 15  2  7  2       -2 0.885908158590D-04 0.100000000000D+01
-.333025542260D-04 0.000000000000D+00 0.000000000000D+00 0.175800466841D-05 0.000000000000D+00  7 2 -2 24 -13 13 -24 21 2 0.22853589D+00 0.43177453D-01 0.15944108D+06 0.15944108D+06 0.15944108D+06 0.11054660D+01  1  2  4  2  7  2       -2 -.349872930052D-03 0.100000000000D+01
  </mgrwgt>
  </event>
  <event>
  8     66 0.26993063E-05 0.95474353E+03 0.75467711E-02 0.81654584E-01
        2 -1    0    0  501    0 0.00000000E+00 0.00000000E+00 0.13810724E+04 0.13810724E+04 0.32000000E+00 0.0000E+00 0.9000E+01
       -2 -1    0    0    0  501 0.00000000E+00 0.00000000E+00 -.23275293E+04 0.23275293E+04 0.32000000E+00 0.0000E+00 0.9000E+01
       25  2    1    2    0    0 -.53064463E+03 -.77396661E+03 0.10868412E+04 0.14670447E+04 0.30064642E+03 0.0000E+00 0.0000E+00
       23  2    1    2    0    0 0.53064463E+03 0.77396661E+03 -.20332982E+04 0.22415570E+04 0.98328017E+02 0.0000E+00 0.0000E+00
       24  1    3    3    0    0 -.24923771E+03 -.22532920E+03 0.25954490E+03 0.43211510E+03 0.80419002E+02 0.0000E+00 0.9000E+01
      -11  1    4    4    0    0 0.39067265E+03 0.63065533E+03 -.15499882E+04 0.17183756E+04 0.51099893E-03 0.0000E+00 0.9000E+01
       11  1    4    4    0    0 0.13997198E+03 0.14331128E+03 -.48331000E+03 0.52318145E+03 0.51099893E-03 0.0000E+00 0.9000E+01
      -24  1    3    3    0    0 -.28140692E+03 -.54863741E+03 0.82729632E+03 0.10349296E+04 0.80419002E+02 0.0000E+00 0.9000E+01
#aMCatNLO 1  0  0  2  2 0.14271830D+04 0.00000000D+00  -5  7  0 0.00000000D+00 0.00000000D+00 0.00000000D+00 0.00000000D+00 0.00000000D+00
  <mgrwgt>
 0.9077104923D-03    3    2    0
 0.179289889724281D+04 0.000000000000000D+00 0.000000000000000D+00 0.179289889724281D+04
 0.179289889724281D+04 0.000000000000000D+00 0.000000000000000D+00 -.179289889724281D+04
 0.515419707445483D+03 -.249237713492286D+03 -.225329196580363D+03 0.382488658930434D+03
 0.136811213162329D+04 0.390672652237619D+03 0.630655327804752D+03 -.114951274068621D+04
 0.413531268890619D+03 0.139971976508624D+03 0.143311277308568D+03 -.361770416063477D+03
 0.128873468652624D+04 -.281406915253957D+03 -.548637408532956D+03 0.112879449781925D+04
 0.000000000000000D+00 0.000000000000000D+00 -.000000000000000D+00 0.000000000000000D+00
 0.647556345230318D+04 0.000000000000000D+00 0.000000000000000D+00 0.647556345230318D+04
 0.204170539403711D+04 0.000000000000000D+00 0.000000000000000D+00 -.204170539403711D+04
 0.627607135450918D+03 -.461010049477256D+03 -.169102515017111D+03 0.382488658930434D+03
 0.138662015701387D+04 -.119705643253371D+03 0.766163479820432D+03 -.114951274068621D+04
 0.405874227597686D+03 -.118419701092334D+02 0.183618687592546D+03 -.361770416063477D+03
 0.143927631155161D+04 -.786834469511314D+03 -.414443704646446D+03 0.112879449781925D+04
 0.465789101472621D+04 0.137939213235117D+04 -.366235947749421D+03 0.443385805826606D+04
0.440578519933D-01 0.000000000000D+00 0.000000000000D+00 0.142695780847D-05 0.000000000000D+00  7 2 -2 24 -11 11 -24 21 0 0.21247267D+00 0.35808143D+00 0.91153520D+06 0.91153520D+06 0.91153520D+06 0.10505522D+01  1  2  2  2  7  2       -2 0.877288862547D-03 0.100000000000D+01
-.126593690454D-02 0.000000000000D+00 -.169193752353D-03 0.142695780847D-05 0.000000000000D+00  7 2 -2 24 -11 11 -24 21 2 0.21247267D+00 0.35808143D+00 0.91153520D+06 0.91153520D+06 0.91153520D+06 0.10505522D+01  1  2  3  2  7  2       -2 -.278206112499D-04 0.100000000000D+01
0.265022941632D-02 0.000000000000D+00 0.000000000000D+00 0.142695780847D-05 0.000000000000D+00  7 2 -2 24 -11 11 -24 21 2 0.21247267D+00 0.35808143D+00 0.91153520D+06 0.91153520D+06 0.91153520D+06 0.10505522D+01  1  2 15  2  7  2       -2 0.582422410233D-04 0.100000000000D+01
  </mgrwgt>
  </event>
  <event>
  8     66 0.26993063E-05 0.16682680E+03 0.75467711E-02 0.99745127E-01
        2 -1    0    0  501    0 0.00000000E+00 0.00000000E+00 0.23614456E+04 0.23614456E+04 0.32000000E+00 0.0000E+00 0.9000E+01
       -2 -1    0    0    0  501 0.00000000E+00 0.00000000E+00 -.30472907E+02 0.30474588E+02 0.32000000E+00 0.0000E+00 0.9000E+01
       25  2    1    2    0    0 0.16455527E+03 -.32451540E+02 0.13962205E+04 0.14378171E+04 0.29959094E+03 0.0000E+00 0.0000E+00
       23  2    1    2    0    0 -.16455527E+03 0.32451540E+02 0.93475213E+03 0.95410307E+03 0.91758283E+02 0.0000E+00 0.0000E+00
       24  1    3    3    0    0 -.53272309E+02 0.55467277E+01 0.25723432E+03 0.27478249E+03 0.80419002E+02 0.0000E+00 0.9000E+01
      -11  1    4    4    0    0 -.16656272E+03 0.27018711E+02 0.72918449E+03 0.74845386E+03 0.51099893E-03 0.0000E+00 0.9000E+01
       11  1    4    4    0    0 0.20074479E+01 0.54328289E+01 0.20556764E+03 0.20564921E+03 0.51099893E-03 0.0000E+00 0.9000E+01
      -24  1    3    3    0    0 0.21782758E+03 -.37998267E+02 0.11389862E+04 0.11630346E+04 0.80419002E+02 0.0000E+00 0.9000E+01
#aMCatNLO 1  0  0  2  1 0.12858442D+03 0.00000000D+00  -5  7  0 0.00000000D+00 0.00000000D+00 0.00000000D+00 0.00000000D+00 0.00000000D+00
  <mgrwgt>
 0.1407649716D-02    9    2    0
 0.268257613452590D+03 0.000000000000000D+00 0.000000000000000D+00 0.268257613452590D+03
 0.268257613452590D+03 0.000000000000000D+00 0.000000000000000D+00 -.268257613452590D+03
 0.107455688422221D+03 -.532723094668256D+02 0.554672765338660D+01 -.470191862576630D+02
 0.168742201715846D+03 -.166562715355045D+03 0.270187107568748D+02 -.884173343850584D+00
 0.237159356677996D+02 0.200744791232041D+01 0.543282890416124D+01 0.229978287578771D+02
 0.236601401099313D+03 0.217827576909550D+03 -.379982673144226D+02 0.249055308436364D+02
 0.000000000000000D+00 -.000000000000000D+00 -.000000000000000D+00 -.000000000000000D+00
 0.327499549008332D+03 0.000000000000000D+00 0.000000000000000D+00 0.327499549008332D+03
 0.355890656985950D+03 0.000000000000000D+00 0.000000000000000D+00 -.355890656985950D+03
 0.978304335444742D+02 -.290570228624761D+02 0.696156011006040D+01 -.470191862576630D+02
 0.134047051033544D+03 -.130846084996404D+03 0.291055350303215D+02 -.884173343850584D+00
 0.249437890263531D+02 0.774728637908640D+01 0.576819184623712D+01 0.229978287578771D+02
 0.294887472528974D+03 0.280521320055129D+03 -.343352446923074D+02 0.249055308436364D+02
 0.131681459860937D+03 -.128365498575335D+03 -.750004229431157D+01 -.283911079776172D+02
0.103418573306D-04 0.000000000000D+00 0.000000000000D+00 0.608773540496D-06 0.000000000000D+00  7 2 -2 24 -11 11 -24 21 0 0.36329945D+00 0.46882705D-02 0.64120679D+05 0.64120679D+05 0.64120679D+05 0.11379128D+01  1  2  2  2  7  2       -2 0.112387468953D-02 0.100000000000D+01
-.572222975168D-06 0.000000000000D+00 -.397154552232D-07 0.608773540496D-06 0.000000000000D+00  7 2 -2 24 -11 11 -24 21 2 0.36329945D+00 0.46882705D-02 0.64120679D+05 0.64120679D+05 0.64120679D+05 0.11379128D+01  1  2  3  2  7  2       -2 -.805197842147D-04 0.100000000000D+01
0.673600010797D-06 0.000000000000D+00 0.000000000000D+00 0.608773540496D-06 0.000000000000D+00  7 2 -2 24 -11 11 -24 21 2 0.36329945D+00 0.46882705D-02 0.64120679D+05 0.64120679D+05 0.64120679D+05 0.11379128D+01  1  2 15  2  7  2       -2 0.947849524924D-04 0.100000000000D+01
0.265830598951D-05 0.000000000000D+00 0.000000000000D+00 0.608773540496D-06 0.000000000000D+00  7 2 -2 24 -11 11 -24 21 2 0.36329945D+00 0.65974314D-02 0.10624718D+06 0.10624718D+06 0.10624718D+06 0.11195688D+01  1  2 12  2  7  2       -2 0.215332735298D-03 0.100000000000D+01
-.405521908381D-05 0.000000000000D+00 0.000000000000D+00 0.608773540496D-06 0.000000000000D+00  7 2 -2 24 -11 11 -24 21 2 0.36329945D+00 0.46882705D-02 0.64120679D+05 0.64120679D+05 0.64120679D+05 0.11379128D+01  1  2  4  2  7  2       -2 -.570626101609D-03 0.100000000000D+01
-.520219323854D-05 0.000000000000D+00 -.360098781668D-05 0.608773540496D-06 0.000000000000D+00  7 2 -2 24 -11 11 -24 21 2 0.36329945D+00 0.81184060D-02 0.64120679D+05 0.64120679D+05 0.64120679D+05 0.11379128D+01  1  2  5  2  7  2       -2 -.322375732212D-03 0.100000000000D+01
0.663580269337D-05 0.000000000000D+00 0.311891497323D-05 0.608773540496D-06 0.000000000000D+00  7 2 -2 24 -11 11 -24 21 2 0.36329945D+00 0.46882705D-02 0.64120679D+05 0.64120679D+05 0.64120679D+05 0.11379128D+01  1  2  6  2  7  2       -2 0.933750345840D-03 0.100000000000D+01
0.112845173903D-06 0.000000000000D+00 0.000000000000D+00 0.608773540496D-06 0.000000000000D+00  7 2 21 24 -11 11 -24 2 2 0.36329945D+00 0.65974314D-02 0.10624718D+06 0.10624718D+06 0.10624718D+06 0.11195688D+01  1  2 12  4  7  2       -2 0.142855428731D-03 0.100000000000D+01
-.137013595406D-06 0.000000000000D+00 -.219068764347D-06 0.608773540496D-06 0.000000000000D+00  7 2 21 24 -11 11 -24 2 2 0.36329945D+00 0.81184060D-02 0.64120679D+05 0.64120679D+05 0.64120679D+05 0.11379128D+01  1  2  5  4  7  2       -2 -.129426818127D-03 0.100000000000D+01
  </mgrwgt>
  </event>
  <event>
  8     66 0.26993063E-05 0.20407984E+03 0.75467711E-02 0.10563246E+00
        4 -1    0    0  501    0 0.00000000E+00 0.00000000E+00 0.41358975E+03 0.41359265E+03 0.15500000E+01 0.0000E+00 0.9000E+01
       -4 -1    0    0    0  501 0.00000000E+00 0.00000000E+00 -.15764801E+03 0.15765563E+03 0.15500000E+01 0.0000E+00 0.9000E+01
       25  2    1    2    0    0 -.71824540E+02 -.58339014E+02 0.29895792E+03 0.43353113E+03 0.30001867E+03 0.0000E+00 0.0000E+00
       23  2    1    2    0    0 0.71824540E+02 0.58339014E+02 -.43016179E+02 0.13771714E+03 0.92484675E+02 0.0000E+00 0.0000E+00
       24  1    3    3    0    0 -.15053463E+03 -.78264078E+02 0.12559720E+03 0.22589337E+03 0.80419002E+02 0.0000E+00 0.9000E+01
      -11  1    4    4    0    0 0.12941566E+02 0.43520983E+02 -.59457722E+02 0.74811636E+02 0.51099893E-03 0.0000E+00 0.9000E+01
       11  1    4    4    0    0 0.58882974E+02 0.14818031E+02 0.16441543E+02 0.62905508E+02 0.51099893E-03 0.0000E+00 0.9000E+01
      -24  1    3    3    0    0 0.78710091E+02 0.19925064E+02 0.17336071E+03 0.20763776E+03 0.80419002E+02 0.0000E+00 0.9000E+01
#aMCatNLO 1  0  0  1  1 0.10079307D+02 0.00000000D+00  -5  7  0 0.00000000D+00 0.00000000D+00 0.00000000D+00 0.00000000D+00 0.00000000D+00
  <mgrwgt>
 0.1555698734D-04    4    2    0
 0.255351922974711D+03 0.000000000000000D+00 0.000000000000000D+00 0.255351922974711D+03
 0.255351922974711D+03 0.000000000000000D+00 0.000000000000000D+00 -.255351922974711D+03
 0.189729590279947D+03 -.150534631605774D+03 -.782640779586171D+02 0.272793009812813D+02
 0.113478155836550D+03 0.129415665288897D+02 0.435209832907114D+02 -.103998710190330D+03
 0.621232564581559D+02 0.588829738400483D+02 0.148180306522838D+02 -.131347003127585D+02
 0.145372843374769D+03 0.787100912368363D+02 0.199250640156219D+02 0.898541095218074D+02
 0.000000000000000D+00 -.000000000000000D+00 -.000000000000000D+00 -.000000000000000D+00
 0.256720523869763D+03 0.000000000000000D+00 0.000000000000000D+00 0.256720523869763D+03
 0.274659063851162D+03 0.000000000000000D+00 0.000000000000000D+00 -.274659063851162D+03
 0.186987075441066D+03 -.148753318584947D+03 -.750016024866819D+02 0.272793009812813D+02
 0.114376537276290D+03 0.140189824454958D+02 0.454942709498150D+02 -.103998710190330D+03
 0.629489491756757D+02 0.594743805090704D+02 0.159011921904659D+02 -.131347003127585D+02
 0.146490737520148D+03 0.800901745839811D+02 0.224526871883276D+02 0.898541095218074D+02
 0.205762883077459D+02 -.483021895360061D+01 -.884654784192662D+01 -.179385399813993D+02
0.267335459147D-05 0.000000000000D+00 0.000000000000D+00 0.598593377961D-06 0.000000000000D+00  7 4 -4 24 -11 11 -24 21 0 0.63630001D-01 0.24254349D-01 0.41648581D+05 0.41648581D+05 0.41648581D+05 0.11543428D+01  1  2  2  1  7  1        4 0.233217155361D-04 0.100000000000D+01
-.139448369462D-06 0.000000000000D+00 -.102663855417D-07 0.598593377961D-06 0.000000000000D+00  7 4 -4 24 -11 11 -24 21 2 0.63630001D-01 0.24254349D-01 0.41648581D+05 0.41648581D+05 0.41648581D+05 0.11543428D+01  1  2  3  1  7  1        4 -.162101487986D-05 0.100000000000D+01
0.167155670557D-06 0.000000000000D+00 0.000000000000D+00 0.598593377961D-06 0.000000000000D+00  7 4 -4 24 -11 11 -24 21 2 0.63630001D-01 0.24254349D-01 0.41648581D+05 0.41648581D+05 0.41648581D+05 0.11543428D+01  1  2 15  1  7  1        4 0.194309786676D-05 0.100000000000D+01
-.695670747791D-06 0.000000000000D+00 0.000000000000D+00 0.598593377961D-06 0.000000000000D+00  7 4 -4 24 -11 11 -24 21 2 0.63630001D-01 0.24254349D-01 0.41648581D+05 0.41648581D+05 0.41648581D+05 0.11543428D+01  1  2  4  1  7  1        4 -.808681118327D-05 0.100000000000D+01
  </mgrwgt>
  </event>
  <event>
  8     66 0.26993063E-05 0.33954605E+03 0.75467711E-02 0.91807848E-01
        2 -1    0    0  501    0 0.00000000E+00 0.00000000E+00 0.33646889E+04 0.33646889E+04 0.32000000E+00 0.0000E+00 0.9000E+01
       -2 -1    0    0    0  501 0.00000000E+00 0.00000000E+00 -.13402976E+03 0.13403015E+03 0.32000000E+00 0.0000E+00 0.9000E+01
       25  2    1    2    0    0 0.13980167E+03 0.58606094E+03 0.22056582E+04 0.23060100E+04 0.29956966E+03 0.0000E+00 0.0000E+00
       23  2    1    2    0    0 -.13980167E+03 -.58606094E+03 0.10250010E+04 0.11927091E+04 0.94425143E+02 0.0000E+00 0.0000E+00
       24  1    3    3    0    0 0.14428866E+03 0.27137491E+03 0.14339882E+04 0.14687590E+04 0.80419002E+02 0.0000E+00 0.9000E+01
      -13  1    4    4    0    0 -.45759675E+00 -.15486715E+03 0.30298206E+03 0.34026781E+03 0.10565837E+00 0.0000E+00 0.9000E+01
       13  1    4    4    0    0 -.13934408E+03 -.43119380E+03 0.72201891E+03 0.85244130E+03 0.10565837E+00 0.0000E+00 0.9000E+01
      -24  1    3    3    0    0 -.44869851E+01 0.31468603E+03 0.77167000E+03 0.83725100E+03 0.80419002E+02 0.0000E+00 0.9000E+01
#aMCatNLO 1  0  0  1  2 0.40418484D+02 0.00000000D+00  -5  7  0 0.00000000D+00 0.00000000D+00 0.00000000D+00 0.00000000D+00 0.00000000D+00
  <mgrwgt>
 0.9285637884D-03    9    2    0
 0.671542369286724D+03 0.000000000000000D+00 0.000000000000000D+00 0.671542369286724D+03
 0.671542369286724D+03 0.000000000000000D+00 0.000000000000000D+00 -.671542369286724D+03
 0.376780355668073D+03 0.144288656956339D+03 0.271374910597169D+03 0.202565203910009D+03
 0.157599264803291D+03 -.457423031776287D+00 -.154866803026248D+03 -.292163028314146D+02
 0.483853464134542D+03 -.139344248814023D+03 -.431194141416618D+03 -.169614172419162D+03
 0.324851653967542D+03 -.448698511053954D+01 0.314686033845697D+03 -.373472865943263D+01
 0.000000000000000D+00 0.000000000000000D+00 -.000000000000000D+00 0.000000000000000D+00
 0.706620043921228D+03 0.000000000000000D+00 0.000000000000000D+00 0.706620043921228D+03
 0.683591296383815D+03 0.000000000000000D+00 0.000000000000000D+00 -.683591296383815D+03
 0.384707544514296D+03 0.143288990865562D+03 0.282786637084347D+03 0.202565203910009D+03
 0.153029067131436D+03 -.865209695484839D+00 -.150211698772644D+03 -.292163028314146D+02
 0.471511697233384D+03 -.140598433097057D+03 -.416876952772783D+03 -.169614172419162D+03
 0.334444464360937D+03 -.535249587323991D+01 0.324566305055024D+03 -.373472865943263D+01
 0.465185670649907D+02 0.352714780022005D+01 -.402642905939438D+02 0.230287475374128D+02
0.122785314296D-03 0.000000000000D+00 0.000000000000D+00 0.464197453220D-06 0.000000000000D+00  7 2 -2 24 -13 13 -24 21 0 0.51764448D+00 0.20619994D-01 0.39096509D+06 0.39096509D+06 0.39096509D+06 0.10761436D+01  1  2  2  1  7  1        2 0.297577596836D-03 0.100000000000D+01
-.677913614731D-05 0.000000000000D+00 -.471527937014D-06 0.464197453220D-06 0.000000000000D+00  7 2 -2 24 -13 13 -24 21 2 0.51764448D+00 0.20619994D-01 0.39096509D+06 0.39096509D+06 0.39096509D+06 0.10761436D+01  1  2  3  1  7  1        2 -.190269262180D-04 0.100000000000D+01
0.773858746524D-05 0.000000000000D+00 0.000000000000D+00 0.464197453220D-06 0.000000000000D+00  7 2 -2 24 -13 13 -24 21 2 0.51764448D+00 0.20619994D-01 0.39096509D+06 0.39096509D+06 0.39096509D+06 0.10761436D+01  1  2 15  1  7  1        2 0.217198075880D-04 0.100000000000D+01
0.275508219370D-03 0.000000000000D+00 0.000000000000D+00 0.464197453220D-06 0.000000000000D+00  7 2 -2 24 -13 13 -24 21 2 0.54915905D+00 0.20619994D-01 0.41735658D+06 0.41735658D+06 0.41735658D+06 0.10741003D+01  1  2 12  1  7  1        2 0.549405515193D-03 0.100000000000D+01
-.270484205832D-03 0.000000000000D+00 0.000000000000D+00 0.464197453220D-06 0.000000000000D+00  7 2 -2 24 -13 13 -24 21 2 0.51764448D+00 0.20619994D-01 0.39096509D+06 0.39096509D+06 0.39096509D+06 0.10761436D+01  1  2  4  1  7  1        2 -.759165019799D-03 0.100000000000D+01
-.108382783689D-02 0.000000000000D+00 -.157485505948D-03 0.464197453220D-06 0.000000000000D+00  7 2 -2 24 -13 13 -24 21 2 0.54711128D+00 0.20619994D-01 0.39096509D+06 0.39096509D+06 0.39096509D+06 0.10761436D+01  1  2  5  1  7  1        2 -.222837133542D-02 0.100000000000D+01
0.109270379828D-02 0.000000000000D+00 0.157875243984D-03 0.464197453220D-06 0.000000000000D+00  7 2 -2 24 -13 13 -24 21 2 0.51764448D+00 0.20619994D-01 0.39096509D+06 0.39096509D+06 0.39096509D+06 0.10761436D+01  1  2  6  1  7  1        2 0.306687962836D-02 0.100000000000D+01
0.351723835806D-05 0.000000000000D+00 0.000000000000D+00 0.464197453220D-06 0.000000000000D+00  7 21 -2 24 -13 13 -24 -2 2 0.54915905D+00 0.20619994D-01 0.41735658D+06 0.41735658D+06 0.41735658D+06 0.10741003D+01  1  2 12  3  7  1        2 0.221631195040D-06 0.100000000000D+01
-.102045024527D-04 0.000000000000D+00 -.150728338433D-05 0.464197453220D-06 0.000000000000D+00  7 21 -2 24 -13 13 -24 -2 2 0.54711128D+00 0.20619994D-01 0.39096509D+06 0.39096509D+06 0.39096509D+06 0.10761436D+01  1  2  5  3  7  1        2 -.677109345419D-06 0.100000000000D+01
  </mgrwgt>
  </event>
  <event>
  8     66 0.26993063E-05 0.42125494E+03 0.75467711E-02 0.89030142E-01
        2 -1    0    0  501    0 0.00000000E+00 0.00000000E+00 0.61077508E+03 0.61077516E+03 0.32000000E+00 0.0000E+00 0.9000E+01
       -2 -1    0    0    0  501 0.00000000E+00 0.00000000E+00 -.19642271E+04 0.19642272E+04 0.32000000E+00 0.0000E+00 0.9000E+01
       25  2    1    2    0    0 0.80417167E+03 0.90501123E+02 0.13972008E+03 0.87410657E+03 0.29942959E+03 0.0000E+00 0.0000E+00
       23  2    1    2    0    0 -.80417167E+03 -.90501123E+02 -.14931721E+04 0.17008957E+04 0.92740449E+02 0.0000E+00 0.0000E+00
       24  1    3    3    0    0 0.45852478E+03 0.17333493E+03 0.10767439E+03 0.50828237E+03 0.80419002E+02 0.0000E+00 0.9000E+01
      -11  1    4    4    0    0 -.58658547E+02 -.31797635E+02 -.12318070E+03 0.14009069E+03 0.51099893E-03 0.0000E+00 0.9000E+01
       11  1    4    4    0    0 -.74551312E+03 -.58703488E+02 -.13699914E+04 0.15608051E+04 0.51099893E-03 0.0000E+00 0.9000E+01
      -24  1    3    3    0    0 0.34564688E+03 -.82833808E+02 0.32045694E+02 0.36582421E+03 0.80419002E+02 0.0000E+00 0.9000E+01
#aMCatNLO 1  0  0  2  1 0.14754437D+02 0.00000000D+00  -5  7  0 0.00000000D+00 0.00000000D+00 0.00000000D+00 0.00000000D+00 0.00000000D+00
  <mgrwgt>
 0.2195652414D-02    9    2    0
 0.109530868624326D+04 0.000000000000000D+00 0.000000000000000D+00 0.109530868624326D+04
 0.109530868624326D+04 0.000000000000000D+00 0.000000000000000D+00 -.109530868624326D+04
 0.663995642625509D+03 0.458524783368566D+03 0.173334930928636D+03 0.440605290739986D+03
 0.885662048420574D+02 -.586585471565019D+02 -.317976349168817D+02 -.582413761797093D+02
 0.988241466817764D+03 -.745513120322432D+03 -.587034877012362D+02 -.646053623700810D+03
 0.449814058201186D+03 0.345646884110368D+03 -.828338083105180D+02 0.263689709140533D+03
 0.000000000000000D+00 -.000000000000000D+00 -.000000000000000D+00 -.000000000000000D+00
 0.110080449808002D+04 0.000000000000000D+00 0.000000000000000D+00 0.110080449808002D+04
 0.110528119364193D+04 0.000000000000000D+00 0.000000000000000D+00 -.110528119364193D+04
 0.666912416493572D+03 0.461453386442853D+03 0.176727771533739D+03 0.440605290739986D+03
 0.881479365964381D+02 -.582696956694734D+02 -.313471433066910D+02 -.582413761797093D+02
 0.984683603616589D+03 -.741171787811127D+03 -.536739740215118D+02 -.646053623700810D+03
 0.450923102901691D+03 0.347628915552027D+03 -.805375883772360D+02 0.263689709140533D+03
 0.154186321136536D+02 -.964081851427905D+01 -.111690658282999D+02 -.447669556191029D+01
0.331971665761D-02 0.000000000000D+00 0.000000000000D+00 0.609959075884D-05 0.000000000000D+00  7 2 -2 24 -11 11 -24 21 0 0.93965405D-01 0.30218880D+00 0.70199931D+06 0.70199931D+06 0.70199931D+06 0.10582486D+01  1  2  2  2  7  2       -2 0.510716713421D-03 0.100000000000D+01
-.168329293551D-03 0.000000000000D+00 -.127485860667D-04 0.609959075884D-05 0.000000000000D+00  7 2 -2 24 -11 11 -24 21 2 0.93965405D-01 0.30218880D+00 0.70199931D+06 0.70199931D+06 0.70199931D+06 0.10582486D+01  1  2  3  2  7  2       -2 -.290010786046D-04 0.100000000000D+01
0.207137373205D-03 0.000000000000D+00 0.000000000000D+00 0.609959075884D-05 0.000000000000D+00  7 2 -2 24 -11 11 -24 21 2 0.93965405D-01 0.30218880D+00 0.70199931D+06 0.70199931D+06 0.70199931D+06 0.10582486D+01  1  2 15  2  7  2       -2 0.356872361045D-04 0.100000000000D+01
0.114321273784D-02 0.000000000000D+00 0.000000000000D+00 0.609959075884D-05 0.000000000000D+00  7 2 -2 24 -11 11 -24 21 2 0.93965405D-01 0.30569291D+00 0.71441235D+06 0.71441235D+06 0.71441235D+06 0.10577267D+01  1  2 12  2  7  2       -2 0.186455306052D-03 0.100000000000D+01
-.103746538984D-02 0.000000000000D+00 0.000000000000D+00 0.609959075884D-05 0.000000000000D+00  7 2 -2 24 -11 11 -24 21 2 0.93965405D-01 0.30218880D+00 0.70199931D+06 0.70199931D+06 0.70199931D+06 0.10582486D+01  1  2  4  2  7  2       -2 -.178742598424D-03 0.100000000000D+01
-.238106857406D+00 0.000000000000D+00 -.261076484910D-01 0.609959075884D-05 0.000000000000D+00  7 2 -2 24 -11 11 -24 21 2 0.93965405D-01 0.30566117D+00 0.70199931D+06 0.70199931D+06 0.70199931D+06 0.10582486D+01  1  2  5  2  7  2       -2 -.389385087407D-01 0.100000000000D+01
0.238391287447D+00 0.000000000000D+00 0.261059445947D-01 0.609959075884D-05 0.000000000000D+00  7 2 -2 24 -11 11 -24 21 2 0.93965405D-01 0.30218880D+00 0.70199931D+06 0.70199931D+06 0.70199931D+06 0.10582486D+01  1  2  6  2  7  2       -2 0.410719032916D-01 0.100000000000D+01
0.945470799229D-04 0.000000000000D+00 0.000000000000D+00 0.609959075884D-05 0.000000000000D+00  7 2 21 24 -11 11 -24 2 2 0.93965405D-01 0.30569291D+00 0.71441235D+06 0.71441235D+06 0.71441235D+06 0.10577267D+01  1  2 12  4  7  2       -2 0.107445957012D-03 0.100000000000D+01
-.500188508620D-03 0.000000000000D+00 -.549821905590D-04 0.609959075884D-05 0.000000000000D+00  7 2 21 24 -11 11 -24 2 2 0.93965405D-01 0.30566117D+00 0.70199931D+06 0.70199931D+06 0.70199931D+06 0.10582486D+01  1  2  5  4  7  2       -2 -.570303672442D-03 0.100000000000D+01
  </mgrwgt>
  </event>
  <event>
  8     66 0.26993063E-05 0.29326174E+03 0.75467711E-02 0.94190237E-01
        2 -1    0    0  501    0 0.00000000E+00 0.00000000E+00 0.19383495E+04 0.19383495E+04 0.32000000E+00 0.0000E+00 0.9000E+01
       -2 -1    0    0    0  501 0.00000000E+00 0.00000000E+00 -.15242032E+03 0.15242065E+03 0.32000000E+00 0.0000E+00 0.9000E+01
       25  2    1    2    0    0 0.32178001E+03 -.29964219E+03 0.50835760E+03 0.73637810E+03 0.30082792E+03 0.0000E+00 0.0000E+00
       23  2    1    2    0    0 -.32178001E+03 0.29964219E+03 0.12775716E+04 0.13543921E+04 0.94132452E+02 0.0000E+00 0.0000E+00
       24  1    3    3    0    0 0.13555808E+03 0.15027550E+02 0.14713147E+03 0.21614048E+03 0.80419002E+02 0.0000E+00 0.9000E+01
      -11  1    4    4    0    0 -.31154540E+03 0.30519733E+03 0.12188619E+04 0.12945386E+04 0.51099893E-03 0.0000E+00 0.9000E+01
       11  1    4    4    0    0 -.10234611E+02 -.55551438E+01 0.58709700E+02 0.59853452E+02 0.51099893E-03 0.0000E+00 0.9000E+01
      -24  1    3    3    0    0 0.18622193E+03 -.31466974E+03 0.36122612E+03 0.52023762E+03 0.80419002E+02 0.0000E+00 0.9000E+01
#aMCatNLO 1  0  0  1  2 0.57913789D+02 0.00000000D+00  -5  7  0 0.00000000D+00 0.00000000D+00 0.00000000D+00 0.00000000D+00 0.00000000D+00
  <mgrwgt>
 0.2117720306D-02    9    2    0
 0.543547806276953D+03 0.000000000000000D+00 0.000000000000000D+00 0.543547806276953D+03
 0.543547806276953D+03 0.000000000000000D+00 0.000000000000000D+00 -.543547806276953D+03
 0.173980715359376D+03 0.135558078638177D+03 0.150275498202571D+02 -.721127826734976D+02
 0.487336828327060D+03 -.311545401309792D+03 0.305197334738720D+03 0.217465477800456D+03
 0.186629827295494D+02 -.102346112145794D+02 -.555514378191107D+01 0.145842392743729D+02
 0.407115086137921D+03 0.186221933886194D+03 -.314669740777067D+03 -.159936934401331D+03
 0.000000000000000D+00 -.000000000000000D+00 -.000000000000000D+00 0.000000000000000D+00
 0.625219142910079D+03 0.000000000000000D+00 0.000000000000000D+00 0.625219142910079D+03
 0.554683180182545D+03 0.000000000000000D+00 0.000000000000000D+00 -.554683180182545D+03
 0.181493311309673D+03 0.144958205857515D+03 0.161081105482436D+02 -.721127826734976D+02
 0.473396025607194D+03 -.286139857238388D+03 0.308117745554035D+03 0.217465477800456D+03
 0.181139807150490D+02 -.926208408408942D+01 -.544335012214580D+01 0.145842392743729D+02
 0.415633847731880D+03 0.207978642021586D+03 -.312168769903714D+03 -.159936934401331D+03
 0.912651577288284D+02 -.575349065566236D+02 -.661373607641860D+01 0.705359627275336D+02
0.840665082618D-04 0.000000000000D+00 0.000000000000D+00 0.347198031935D-06 0.000000000000D+00  7 2 -2 24 -11 11 -24 21 0 0.29820764D+00 0.23449307D-01 0.24033843D+06 0.24033843D+06 0.24033843D+06 0.10917491D+01  1  2  2  1  7  1        2 0.120873524234D-02 0.100000000000D+01
-.460986566046D-05 0.000000000000D+00 -.322837526945D-06 0.347198031935D-06 0.000000000000D+00  7 2 -2 24 -11 11 -24 21 2 0.29820764D+00 0.23449307D-01 0.24033843D+06 0.24033843D+06 0.24033843D+06 0.10917491D+01  1  2  3  1  7  1        2 -.790027411740D-04 0.100000000000D+01
0.542682271643D-05 0.000000000000D+00 0.000000000000D+00 0.347198031935D-06 0.000000000000D+00  7 2 -2 24 -11 11 -24 21 2 0.29820764D+00 0.23449307D-01 0.24033843D+06 0.24033843D+06 0.24033843D+06 0.10917491D+01  1  2 15  1  7  1        2 0.930035497869D-04 0.100000000000D+01
0.261153576158D-03 0.000000000000D+00 0.000000000000D+00 0.347198031935D-06 0.000000000000D+00  7 2 -2 24 -11 11 -24 21 2 0.34576915D+00 0.23449307D-01 0.27005143D+06 0.27005143D+06 0.27005143D+06 0.10879473D+01  1  2 12  1  7  1        2 0.298748112347D-02 0.100000000000D+01
-.265356024594D-03 0.000000000000D+00 0.000000000000D+00 0.347198031935D-06 0.000000000000D+00  7 2 -2 24 -11 11 -24 21 2 0.29820764D+00 0.23449307D-01 0.24033843D+06 0.24033843D+06 0.24033843D+06 0.10917491D+01  1  2  4  1  7  1        2 -.454760612870D-02 0.100000000000D+01
-.429638530260D-03 0.000000000000D+00 -.623964946755D-04 0.347198031935D-06 0.000000000000D+00  7 2 -2 24 -11 11 -24 21 2 0.34541432D+00 0.23449307D-01 0.24033843D+06 0.24033843D+06 0.24033843D+06 0.10917491D+01  1  2  5  1  7  1        2 -.498968510697D-02 0.100000000000D+01
0.434772664276D-03 0.000000000000D+00 0.617287577914D-04 0.347198031935D-06 0.000000000000D+00  7 2 -2 24 -11 11 -24 21 2 0.29820764D+00 0.23449307D-01 0.24033843D+06 0.24033843D+06 0.24033843D+06 0.10917491D+01  1  2  6  1  7  1        2 0.745102673164D-02 0.100000000000D+01
0.589210398835D-05 0.000000000000D+00 0.000000000000D+00 0.347198031935D-06 0.000000000000D+00  7 21 -2 24 -11 11 -24 -2 2 0.34576915D+00 0.23449307D-01 0.27005143D+06 0.27005143D+06 0.27005143D+06 0.10879473D+01  1  2 12  3  7  1        2 0.103366716727D-04 0.100000000000D+01
-.922140809983D-05 0.000000000000D+00 -.139984310653D-05 0.347198031935D-06 0.000000000000D+00  7 21 -2 24 -11 11 -24 -2 2 0.34541432D+00 0.23449307D-01 0.24033843D+06 0.24033843D+06 0.24033843D+06 0.10917491D+01  1  2  5  3  7  1        2 -.165690358899D-04 0.100000000000D+01
  </mgrwgt>
  </event>
  <event>
  9     66 0.26993063E-05 0.29544856E+03 0.75467711E-02 0.99730296E-01
        2 -1    0    0  501    0 0.00000000E+00 0.00000000E+00 0.16135263E+03 0.16135295E+03 0.32000000E+00 0.0000E+00 0.9000E+01
       -2 -1    0    0    0  502 0.00000000E+00 0.00000000E+00 -.76277848E+03 0.76277855E+03 0.32000000E+00 0.0000E+00 0.9000E+01
       25  2    1    2    0    0 0.25206890E+03 -.63435088E+01 -.25160680E+03 0.46597243E+03 0.30040865E+03 0.0000E+00 0.0000E+00
       23  2    1    2    0    0 -.20741233E+03 -.31216548E+02 -.31861869E+03 0.39198511E+03 0.90222565E+02 0.0000E+00 0.0000E+00
       24  1    3    3    0    0 0.14612602E+02 -.82631968E+02 -.13780332E+03 0.18027352E+03 0.80419002E+02 0.0000E+00 0.9000E+01
      -11  1    4    4    0    0 -.19981621E+03 -.17775991E+02 -.24444241E+03 0.31621922E+03 0.51099893E-03 0.0000E+00 0.9000E+01
       11  1    4    4    0    0 -.75961185E+01 -.13440557E+02 -.74176283E+02 0.75765893E+02 0.51099893E-03 0.0000E+00 0.9000E+01
      -24  1    3    3    0    0 0.23745630E+03 0.76288459E+02 -.11380348E+03 0.28569892E+03 0.80419002E+02 0.0000E+00 0.9000E+01
       21  1    1    2  501  502 -.44656567E+02 0.37560057E+02 -.31200356E+02 0.66173950E+02 0.75000000E+00 0.0000E+00 0.9000E+01
#aMCatNLO 2  0  0  2  2 0.58352094D+02 0.00000000D+00  -5  7  0 0.00000000D+00 0.00000000D+00 0.00000000D+00 0.00000000D+00 0.00000000D+00
  <mgrwgt>
 0.3646495515D-03    1    2    0
 0.319190020187790D+03 0.000000000000000D+00 0.000000000000000D+00 0.319190020187790D+03
 0.319190020187790D+03 0.000000000000000D+00 0.000000000000000D+00 -.319190020187790D+03
 0.113305311594578D+03 0.651494684093355D+01 -.758211358011592D+02 -.240746446423573D+02
 0.219572677203707D+03 -.214662707400048D+03 -.528879871494433D+01 -.458705922595017D+02
 0.353098458921359D+02 -.100649091614597D+02 -.113640897706385D+02 -.318800922862970D+02
 0.270192205685160D+03 0.218212669720574D+03 0.924740242867420D+02 0.101825329188156D+03
 0.000000000000000D+00 -.000000000000000D+00 0.000000000000000D+00 0.000000000000000D+00
 0.359477326586968D+03 0.000000000000000D+00 0.000000000000000D+00 0.359477326586968D+03
 0.342371691795027D+03 0.000000000000000D+00 0.000000000000000D+00 -.342371691795027D+03
 0.118694459668823D+03 0.146126020007173D+02 -.826319680863045D+02 -.240746446423573D+02
 0.205782935320906D+03 -.199816214010223D+03 -.177759909336008D+02 -.458705922595017D+02
 0.354216019530412D+02 -.759611847910940D+01 -.134405574582384D+02 -.318800922862970D+02
 0.281142376803452D+03 0.237456297860135D+03 0.762884593015624D+02 0.101825329188156D+03
 0.608076446357729D+02 -.446565673715201D+02 0.375600571765813D+02 0.171056347919412D+02
0.188908293384D-04 0.000000000000D+00 0.000000000000D+00 0.747733606369D-06 0.148462878465D-08  7 2 -2 24 -11 11 -24 21 2 0.24823347D-01 0.11734979D+00 0.10649713D+06 0.10649713D+06 0.10649713D+06 0.11194855D+01  1  2  1  2  7  2       -2 0.364649551545D-03 0.100000000000D+01
  </mgrwgt>
  </event>
  <event>
  8     66 0.26993063E-05 0.21581406E+03 0.75467711E-02 0.95281688E-01
        2 -1    0    0  501    0 0.00000000E+00 0.00000000E+00 0.20980592E+04 0.20980592E+04 0.32000000E+00 0.0000E+00 0.9000E+01
       -2 -1    0    0    0  501 0.00000000E+00 0.00000000E+00 -.10983103E+03 0.10983149E+03 0.32000000E+00 0.0000E+00 0.9000E+01
       25  2    1    2    0    0 0.22040250E+03 -.35032212E+03 0.82011405E+03 0.96536295E+03 0.29670814E+03 0.0000E+00 0.0000E+00
       23  2    1    2    0    0 -.22040250E+03 0.35032212E+03 0.11681141E+04 0.12425278E+04 0.89898837E+02 0.0000E+00 0.0000E+00
       24  1    3    3    0    0 0.68004080E+02 -.19768118E+03 0.62389571E+03 0.66288421E+03 0.80419002E+02 0.0000E+00 0.9000E+01
      -13  1    4    4    0    0 -.17909258E+03 0.32410281E+03 0.10803317E+04 0.11420304E+04 0.10565837E+00 0.0000E+00 0.9000E+01
       13  1    4    4    0    0 -.41309918E+02 0.26219310E+02 0.87782457E+02 0.10049743E+03 0.10565837E+00 0.0000E+00 0.9000E+01
      -24  1    3    3    0    0 0.15239842E+03 -.15264095E+03 0.19621834E+03 0.30247874E+03 0.80419002E+02 0.0000E+00 0.9000E+01
#aMCatNLO 1  0  0  2  1 0.65702192D+02 0.00000000D+00  -5  7  0 0.00000000D+00 0.00000000D+00 0.00000000D+00 0.00000000D+00 0.00000000D+00
  <mgrwgt>
 0.2005226504D-02    9    2    0
 0.480033897325035D+03 0.000000000000000D+00 0.000000000000000D+00 0.480033897325035D+03
 0.480033897325035D+03 0.000000000000000D+00 0.000000000000000D+00 -.480033897325035D+03
 0.232409492213817D+03 0.680040801375827D+02 -.197681177480353D+03 0.620044617050757D+02
 0.389069186735571D+03 -.179092769895985D+03 0.324103225309251D+03 0.119405658082872D+03
 0.493249835910479D+02 -.413097281348359D+02 0.262188983369993D+02 -.624737846437926D+01
 0.289264132109635D+03 0.152398417893238D+03 -.152640946165897D+03 -.175162741323568D+03
 0.000000000000000D+00 -.000000000000000D+00 0.000000000000000D+00 -.000000000000000D+00
 0.498204575671779D+03 0.000000000000000D+00 0.000000000000000D+00 0.498204575671779D+03
 0.544460291138141D+03 0.000000000000000D+00 0.000000000000000D+00 -.544460291138141D+03
 0.243568472816255D+03 0.822433559782836D+02 -.205547712518932D+03 0.620044617050757D+02
 0.368525744818579D+03 -.156428688786191D+03 0.311582378732363D+03 0.119405658082872D+03
 0.460981732932058D+02 -.384550652044216D+02 0.246418303584966D+02 -.624737846437926D+01
 0.304120940742186D+03 0.170150024801255D+03 -.162447880120631D+03 -.175162741323568D+03
 0.803515351396935D+02 -.575096267889258D+02 0.317713835487033D+02 -.462557154663621D+02
0.822383462679D-04 0.000000000000D+00 0.000000000000D+00 0.524894770767D-07 0.000000000000D+00  7 2 -2 24 -13 13 -24 21 0 0.32277838D+00 0.16897119D-01 0.19070958D+06 0.19070958D+06 0.19070958D+06 0.10994155D+01  1  2  2  2  7  2       -2 0.168461829285D-02 0.100000000000D+01
-.451908114768D-05 0.000000000000D+00 -.315816903523D-06 0.524894770767D-07 0.000000000000D+00  7 2 -2 24 -13 13 -24 21 2 0.32277838D+00 0.16897119D-01 0.19070958D+06 0.19070958D+06 0.19070958D+06 0.10994155D+01  1  2  3  2  7  2       -2 -.111892497090D-03 0.100000000000D+01
0.511540172156D-05 0.000000000000D+00 0.000000000000D+00 0.524894770767D-07 0.000000000000D+00  7 2 -2 24 -13 13 -24 21 2 0.32277838D+00 0.16897119D-01 0.19070958D+06 0.19070958D+06 0.19070958D+06 0.10994155D+01  1  2 15  2  7  2       -2 0.126657400817D-03 0.100000000000D+01
0.165443020840D-03 0.000000000000D+00 0.000000000000D+00 0.524894770767D-07 0.000000000000D+00  7 2 -2 24 -13 13 -24 21 2 0.32277838D+00 0.19454658D-01 0.22286696D+06 0.22286696D+06 0.22286696D+06 0.10942326D+01  1  2 12  2  7  2       -2 0.319907709842D-02 0.100000000000D+01
-.165888703630D-03 0.000000000000D+00 0.000000000000D+00 0.524894770767D-07 0.000000000000D+00  7 2 -2 24 -13 13 -24 21 2 0.32277838D+00 0.16897119D-01 0.19070958D+06 0.19070958D+06 0.19070958D+06 0.10994155D+01  1  2  4  2  7  2       -2 -.410740605924D-02 0.100000000000D+01
-.335083727548D-03 0.000000000000D+00 -.685291958239D-04 0.524894770767D-07 0.000000000000D+00  7 2 -2 24 -13 13 -24 21 2 0.32277838D+00 0.19952394D-01 0.19070958D+06 0.19070958D+06 0.19070958D+06 0.10994155D+01  1  2  5  2  7  2       -2 -.630880233226D-02 0.100000000000D+01
0.342665579962D-03 0.000000000000D+00 0.675934297456D-04 0.524894770767D-07 0.000000000000D+00  7 2 -2 24 -13 13 -24 21 2 0.32277838D+00 0.16897119D-01 0.19070958D+06 0.19070958D+06 0.19070958D+06 0.10994155D+01  1  2  6  2  7  2       -2 0.848440338994D-02 0.100000000000D+01
0.358736266775D-05 0.000000000000D+00 0.000000000000D+00 0.524894770767D-07 0.000000000000D+00  7 2 21 24 -13 13 -24 2 2 0.32277838D+00 0.19454658D-01 0.22286696D+06 0.22286696D+06 0.22286696D+06 0.10942326D+01  1  2 12  4  7  2       -2 0.878253947017D-03 0.100000000000D+01
-.772786795153D-05 0.000000000000D+00 -.169726841880D-05 0.524894770767D-07 0.000000000000D+00  7 2 21 24 -13 13 -24 2 2 0.32277838D+00 0.19952394D-01 0.19070958D+06 0.19070958D+06 0.19070958D+06 0.10994155D+01  1  2  5  4  7  2       -2 -.183968273693D-02 0.100000000000D+01
  </mgrwgt>
  </event>
  <event>
  9     66 0.26993063E-05 0.29482135E+03 0.75467711E-02 0.97640720E-01
        2 -1    0    0  501    0 0.00000000E+00 0.00000000E+00 0.42363796E+03 0.42363808E+03 0.32000000E+00 0.0000E+00 0.9000E+01
       21 -1    0    0  502  501 0.00000000E+00 0.00000000E+00 -.54601403E+03 0.54601454E+03 0.75000000E+00 0.0000E+00 0.9000E+01
       25  2    1    2    0    0 -.86219022E+02 -.11873364E+03 0.20434640E+03 0.39175733E+03 0.30030810E+03 0.0000E+00 0.0000E+00
       23  2    1    2    0    0 0.15988266E+03 0.26171274E+03 -.23798923E+03 0.39420250E+03 0.68561790E+02 0.0000E+00 0.0000E+00
       24  1    3    3    0    0 0.60161846E+02 -.91056701E+02 0.12874365E+02 0.13617539E+03 0.80419002E+02 0.0000E+00 0.9000E+01
      -11  1    4    4    0    0 0.96354038E+02 0.13956413E+03 -.89712548E+02 0.19186086E+03 0.51099893E-03 0.0000E+00 0.9000E+01
       11  1    4    4    0    0 0.63528619E+02 0.12214861E+03 -.14827668E+03 0.20234164E+03 0.51099893E-03 0.0000E+00 0.9000E+01
      -24  1    3    3    0    0 -.14638087E+03 -.27676939E+02 0.19147204E+03 0.25558194E+03 0.80419002E+02 0.0000E+00 0.9000E+01
        2  1    1    2  502    0 -.73663635E+02 -.14297910E+03 -.88733243E+02 0.18369280E+03 0.32000000E+00 0.0000E+00 0.9000E+01
#aMCatNLO 2  0  0  2  1 0.16083953D+03 0.00000000D+00  -5  7  0 0.00000000D+00 0.00000000D+00 0.00000000D+00 0.00000000D+00 0.00000000D+00
  <mgrwgt>
 0.5294906861D-03    2    2    0
 0.384295349420866D+03 0.000000000000000D+00 0.000000000000000D+00 0.384295349420866D+03
 0.384295349420866D+03 0.000000000000000D+00 0.000000000000000D+00 -.384295349420866D+03
 0.150989308359302D+03 0.465159343225474D+02 -.117543042536344D+03 0.187204778210775D+02
 0.157072159659201D+03 0.799857736502889D+02 0.107793776861672D+03 -.815747572688175D+02
 0.171612162874129D+03 0.460926709579368D+02 0.883059090573155D+02 -.139743574291848D+03
 0.288917067949100D+03 -.172594378930773D+03 -.785566433826434D+02 0.202597853739588D+03
 0.000000000000000D+00 -.000000000000000D+00 -.000000000000000D+00 -.000000000000000D+00
 0.442177155827632D+03 0.000000000000000D+00 0.000000000000000D+00 0.442177155827632D+03
 0.523121637460557D+03 0.000000000000000D+00 0.000000000000000D+00 -.523121637460557D+03
 0.136851901122949D+03 0.601618463526503D+02 -.910567012371167D+02 0.187204778210775D+02
 0.188193219419544D+03 0.963540379388644D+02 0.139564129291527D+03 -.815747572688175D+02
 0.196174499278058D+03 0.635286192246960D+02 0.122148606830120D+03 -.139743574291848D+03
 0.264019843910053D+03 -.146380868811778D+03 -.276769385940719D+02 0.202597853739588D+03
 0.180059329557586D+03 -.736636347044328D+02 -.142979096290458D+03 -.809444816329252D+02
-.207940188109D-05 0.000000000000D+00 0.000000000000D+00 0.498694212436D-08 0.000000000000D+00  7 2 21 24 -11 11 -24 2 2 0.56643559D-01 0.87321133D-01 0.14937263D+06 0.14937263D+06 0.14937263D+06 0.11076956D+01  1  2 13  4  7  2       -2 -.305020111270D-03 0.100000000000D+01
0.603485252050D-05 0.000000000000D+00 0.000000000000D+00 0.498694212436D-08 0.643539713890D-13  7 2 21 24 -11 11 -24 2 2 0.65175100D-01 0.84002182D-01 0.14937263D+06 0.14937263D+06 0.14937263D+06 0.11076956D+01  1  2  1  4  7  2       -2 0.834510797352D-03 0.100000000000D+01
  </mgrwgt>
  </event>
  <event>
  8     66 0.26993063E-05 0.39140238E+03 0.75467711E-02 0.81290962E-01
        2 -1    0    0  501    0 0.00000000E+00 0.00000000E+00 0.54335150E+03 0.54335160E+03 0.32000000E+00 0.0000E+00 0.9000E+01
       -2 -1    0    0    0  501 0.00000000E+00 0.00000000E+00 -.36491980E+03 0.36491994E+03 0.32000000E+00 0.0000E+00 0.9000E+01
       25  2    1    2    0    0 -.28981516E+03 0.18288164E+03 0.27972659E+03 0.53909390E+03 0.30811807E+03 0.0000E+00 0.0000E+00
       23  2    1    2    0    0 0.28981516E+03 -.18288164E+03 -.10129489E+03 0.36917764E+03 0.92698207E+02 0.0000E+00 0.0000E+00
       24  1    3    3    0    0 -.93827497E+02 -.34831673E+02 0.17650908E+03 0.21826478E+03 0.80419002E+02 0.0000E+00 0.9000E+01
      -13  1    4    4    0    0 0.95568151E+01 0.72331075E+01 0.66835719E+01 0.13723405E+02 0.10565837E+00 0.0000E+00 0.9000E+01
       13  1    4    4    0    0 0.28025834E+03 -.19011475E+03 -.10797846E+03 0.35545424E+03 0.10565837E+00 0.0000E+00 0.9000E+01
      -24  1    3    3    0    0 -.19598766E+03 0.21771331E+03 0.10321751E+03 0.32082912E+03 0.80419002E+02 0.0000E+00 0.9000E+01
#aMCatNLO 1  0  0  1  1 0.18904936D+04 0.00000000D+00  -5  7  0 0.00000000D+00 0.00000000D+00 0.00000000D+00 0.00000000D+00 0.00000000D+00
  <mgrwgt>
 0.9824538093D-03    5    2    0
 0.445286234580547D+03 0.000000000000000D+00 0.000000000000000D+00 0.445286234580547D+03
 0.445286234580547D+03 0.000000000000000D+00 0.000000000000000D+00 -.445286234580547D+03
 0.187237851909591D+03 -.938274965706869D+02 -.348316725125773D+02 0.136286289518065D+03
 0.126565641093550D+02 0.955646343315919D+01 0.723336370367211D+01 0.406707157981070D+01
 0.384153105583419D+03 0.280258694933258D+03 -.190115005571327D+03 -.181342099635763D+03
 0.306524947558728D+03 -.195987661795730D+03 0.217713314380232D+03 0.409887385378871D+02
 0.000000000000000D+00 0.000000000000000D+00 0.000000000000000D+00 0.000000000000000D+00
 0.204256261252867D+04 0.000000000000000D+00 0.000000000000000D+00 0.204256261252867D+04
 0.194044419293911D+04 0.000000000000000D+00 0.000000000000000D+00 -.194044419293911D+04
 0.589974692264281D+03 -.300467393906040D+03 -.482439959006998D+03 0.136286289518065D+03
 0.725515590921917D+01 0.426247299096685D+01 -.423409258673585D+01 0.406707157981070D+01
 0.101847879883592D+04 -.926633775438211D+02 -.997911621858433D+03 -.181342099635763D+03
 0.474048561132700D+03 -.403521149138169D+03 -.231830601666167D+03 0.409887385378871D+02
 0.189324959732565D+04 0.792389447597064D+03 0.171641627511833D+04 0.102118419589562D+03
0.463940879091D-04 0.000000000000D+00 0.000000000000D+00 0.929260380736D-08 0.000000000000D+00  7 2 -2 24 -13 13 -24 21 0 0.83592557D-01 0.56141526D-01 0.15319583D+06 0.15319583D+06 0.15319583D+06 0.11068301D+01  1  2  2  1  7  1        2 0.966053100205D-03 0.100000000000D+01
-.252531495307D-05 0.000000000000D+00 -.178165513415D-06 0.929260380736D-08 0.000000000000D+00  7 2 -2 24 -13 13 -24 21 2 0.83592557D-01 0.56141526D-01 0.15319583D+06 0.15319583D+06 0.15319583D+06 0.11068301D+01  1  2  3  1  7  1        2 -.644192757706D-04 0.100000000000D+01
0.296055429929D-05 0.000000000000D+00 0.000000000000D+00 0.929260380736D-08 0.000000000000D+00  7 2 -2 24 -13 13 -24 21 2 0.83592557D-01 0.56141526D-01 0.15319583D+06 0.15319583D+06 0.15319583D+06 0.11068301D+01  1  2 15  1  7  1        2 0.755219714708D-04 0.100000000000D+01
0.719139996651D-04 0.000000000000D+00 -.286143198470D-04 0.929260380736D-08 0.000000000000D+00  7 2 -2 24 -13 13 -24 21 2 0.67985307D+00 0.56141526D-01 0.15319583D+06 0.15319583D+06 0.15319583D+06 0.11068301D+01  1  2  5  1  7  1        2 0.528438507302D-05 0.100000000000D+01
0.147640996054D-04 0.000000000000D+00 -.727133289198D-05 0.929260380736D-08 0.000000000000D+00  7 21 -2 24 -13 13 -24 -2 2 0.67985307D+00 0.56141526D-01 0.15319583D+06 0.15319583D+06 0.15319583D+06 0.11068301D+01  1  2  5  3  7  1        2 0.136283097017D-07 0.100000000000D+01
  </mgrwgt>
  </event>
  <event>
  8     66 0.26993063E-05 0.94307543E+02 0.75467711E-02 0.10358893E+00
        2 -1    0    0  501    0 0.00000000E+00 0.00000000E+00 0.38275323E+03 0.38275336E+03 0.32000000E+00 0.0000E+00 0.9000E+01
       -2 -1    0    0    0  501 0.00000000E+00 0.00000000E+00 -.25200917E+03 0.25200937E+03 0.32000000E+00 0.0000E+00 0.9000E+01
       25  2    1    2    0    0 0.16055267E+03 0.48085312E+02 -.77511618E+02 0.35167006E+03 0.29928987E+03 0.0000E+00 0.0000E+00
       23  2    1    2    0    0 -.16055267E+03 -.48085312E+02 0.20825568E+03 0.28309267E+03 0.93175504E+02 0.0000E+00 0.0000E+00
       24  1    3    3    0    0 0.11395979E+02 0.52982824E+02 -.14058805E+03 0.17079011E+03 0.80419002E+02 0.0000E+00 0.9000E+01
      -11  1    4    4    0    0 -.87353604E+02 -.19604062E+02 0.41319569E+02 0.98601613E+02 0.51099893E-03 0.0000E+00 0.9000E+01
       11  1    4    4    0    0 -.73199065E+02 -.28481250E+02 0.16693611E+03 0.18449106E+03 0.51099893E-03 0.0000E+00 0.9000E+01
      -24  1    3    3    0    0 0.14915669E+03 -.48975120E+01 0.63076429E+02 0.18087995E+03 0.80419002E+02 0.0000E+00 0.9000E+01
#aMCatNLO 1  0  0  2  1 0.54125151D+02 0.00000000D+00  -5  7  0 0.00000000D+00 0.00000000D+00 0.00000000D+00 0.00000000D+00 0.00000000D+00
  <mgrwgt>
 0.8645209009D-03    9    2    0
 0.310575963159265D+03 0.000000000000000D+00 0.000000000000000D+00 0.310575963159265D+03
 0.310575963159265D+03 0.000000000000000D+00 0.000000000000000D+00 -.310575963159265D+03
 0.204124379451769D+03 0.113959786196880D+02 0.529828239855906D+02 -.179617644918340D+03
 0.920649822366649D+02 -.873536037701975D+02 -.196040619960269D+02 0.214706687332438D+02
 0.153395871917007D+03 -.731990651926838D+02 -.284812499730801D+02 0.131761180838922D+03
 0.171566692713089D+03 0.149156690343193D+03 -.489751201648356D+01 0.263857953461745D+02
 0.000000000000000D+00 -.000000000000000D+00 0.000000000000000D+00 -.000000000000000D+00
 0.337728490055784D+03 0.000000000000000D+00 0.000000000000000D+00 0.337728490055784D+03
 0.339947750998285D+03 0.000000000000000D+00 0.000000000000000D+00 -.339947750998285D+03
 0.204358657072803D+03 0.282220378548943D+02 0.472891423006917D+02 -.179617644918340D+03
 0.857512796721101D+02 -.800290720556962D+02 -.220825717581974D+02 0.214706687332438D+02
 0.148730810723092D+03 -.607539915810826D+02 -.326924729753937D+02 0.131761180838922D+03
 0.184664864020474D+03 0.163830428880897D+03 -.986288122107452D+01 0.263857953461745D+02
 0.541706295655893D+02 -.512694030990121D+02 0.173487836539739D+02 -.221926094250113D+01
0.851297887077D-05 0.000000000000D+00 0.000000000000D+00 0.241085504690D-06 0.000000000000D+00  7 2 -2 24 -11 11 -24 21 0 0.58885138D-01 0.38770667D-01 0.47213276D+05 0.47213276D+05 0.47213276D+05 0.11494926D+01  1  2  2  2  7  2       -2 0.539207209379D-03 0.100000000000D+01
-.399568656374D-06 0.000000000000D+00 -.326920803826D-07 0.241085504690D-06 0.000000000000D+00  7 2 -2 24 -11 11 -24 21 2 0.58885138D-01 0.38770667D-01 0.47213276D+05 0.47213276D+05 0.47213276D+05 0.11494926D+01  1  2  3  2  7  2       -2 -.334408938413D-04 0.100000000000D+01
0.531516459702D-06 0.000000000000D+00 0.000000000000D+00 0.241085504690D-06 0.000000000000D+00  7 2 -2 24 -11 11 -24 21 2 0.58885138D-01 0.38770667D-01 0.47213276D+05 0.47213276D+05 0.47213276D+05 0.11494926D+01  1  2 15  2  7  2       -2 0.444839334123D-04 0.100000000000D+01
0.854798888489D-05 0.000000000000D+00 0.000000000000D+00 0.241085504690D-06 0.000000000000D+00  7 2 -2 24 -11 11 -24 21 2 0.58885138D-01 0.43982926D-01 0.59140025D+05 0.59140025D+05 0.59140025D+05 0.11409368D+01  1  2 12  2  7  2       -2 0.556862162115D-03 0.100000000000D+01
-.719023950833D-05 0.000000000000D+00 0.000000000000D+00 0.241085504690D-06 0.000000000000D+00  7 2 -2 24 -11 11 -24 21 2 0.58885138D-01 0.38770667D-01 0.47213276D+05 0.47213276D+05 0.47213276D+05 0.11494926D+01  1  2  4  2  7  2       -2 -.601769013300D-03 0.100000000000D+01
-.219835413994D-04 0.000000000000D+00 -.689141422168D-05 0.241085504690D-06 0.000000000000D+00  7 2 -2 24 -11 11 -24 21 2 0.58885138D-01 0.45836356D-01 0.47213276D+05 0.47213276D+05 0.47213276D+05 0.11494926D+01  1  2  5  2  7  2       -2 -.134621363169D-02 0.100000000000D+01
0.229109006926D-04 0.000000000000D+00 0.679595537071D-05 0.241085504690D-06 0.000000000000D+00  7 2 -2 24 -11 11 -24 21 2 0.58885138D-01 0.38770667D-01 0.47213276D+05 0.47213276D+05 0.47213276D+05 0.11494926D+01  1  2  6  2  7  2       -2 0.191747021607D-02 0.100000000000D+01
0.169106239390D-06 0.000000000000D+00 0.000000000000D+00 0.241085504690D-06 0.000000000000D+00  7 2 21 24 -11 11 -24 2 2 0.58885138D-01 0.43982926D-01 0.59140025D+05 0.59140025D+05 0.59140025D+05 0.11409368D+01  1  2 12  4  7  2       -2 0.123379551347D-03 0.100000000000D+01
-.489426233834D-06 0.000000000000D+00 -.171663947309D-06 0.241085504690D-06 0.000000000000D+00  7 2 21 24 -11 11 -24 2 2 0.58885138D-01 0.45836356D-01 0.47213276D+05 0.47213276D+05 0.47213276D+05 0.11494926D+01  1  2  5  4  7  2       -2 -.335458632554D-03 0.100000000000D+01
  </mgrwgt>
  </event>
  <event>
  8     66 0.26993063E-05 0.21707421E+03 0.75467711E-02 0.98571678E-01
        2 -1    0    0  501    0 0.00000000E+00 0.00000000E+00 0.39738931E+03 0.39738944E+03 0.32000000E+00 0.0000E+00 0.9000E+01
       -2 -1    0    0    0  501 0.00000000E+00 0.00000000E+00 -.48296742E+03 0.48296753E+03 0.32000000E+00 0.0000E+00 0.9000E+01
       25  2    1    2    0    0 0.19580192E+03 0.23006612E+03 0.18610227E+03 0.46443331E+03 0.29965886E+03 0.0000E+00 0.0000E+00
       23  2    1    2    0    0 -.19580192E+03 -.23006612E+03 -.27168038E+03 0.41592365E+03 0.88957544E+02 0.0000E+00 0.0000E+00
       24  1    3    3    0    0 0.22140768E+03 0.13442601E+03 0.46221450E+02 0.27512788E+03 0.80419002E+02 0.0000E+00 0.9000E+01
      -13  1    4    4    0    0 -.87023576E+02 -.56806534E+02 -.13293385E+03 0.16873502E+03 0.10565837E+00 0.0000E+00 0.9000E+01
       13  1    4    4    0    0 -.10877834E+03 -.17325959E+03 -.13874653E+03 0.24718864E+03 0.10565837E+00 0.0000E+00 0.9000E+01
      -24  1    3    3    0    0 -.25605760E+02 0.95640112E+02 0.13988082E+03 0.18930543E+03 0.80419002E+02 0.0000E+00 0.9000E+01
#aMCatNLO 1  0  0  2  1 0.96098552D+01 0.00000000D+00  -5  7  0 0.00000000D+00 0.00000000D+00 0.00000000D+00 0.00000000D+00 0.00000000D+00
  <mgrwgt>
 0.7044676362D-03   11    2    0
 0.438093816383922D+03 0.000000000000000D+00 0.000000000000000D+00 0.438093816383922D+03
 0.438093816383922D+03 0.000000000000000D+00 0.000000000000000D+00 -.438093816383922D+03
 0.280951567523855D+03 0.221407678878395D+03 0.134426007691862D+03 0.733134062054770D+02
 0.156554049214159D+03 -.870235453141747D+02 -.568063695702147D+02 -.117085905482058D+03
 0.234813480735310D+03 -.108778373588706D+03 -.173259749796756D+03 -.115263590412556D+03
 0.203868535294519D+03 -.256057599755144D+02 0.956401116751086D+02 0.159036089689137D+03
 0.000000000000000D+00 -.000000000000000D+00 0.000000000000000D+00 -.000000000000000D+00
 0.441571050260386D+03 0.000000000000000D+00 0.000000000000000D+00 0.441571050260386D+03
 0.444810428786332D+03 0.000000000000000D+00 0.000000000000000D+00 -.444810428786332D+03
 0.282811998510730D+03 0.224343273754680D+03 0.133456549254227D+03 0.733134062054770D+02
 0.155852527037256D+03 -.853968010550308D+02 -.573435897979243D+02 -.117085905482058D+03
 0.234290620716816D+03 -.106335683639171D+03 -.174066430037695D+03 -.115263590412556D+03
 0.203285184427655D+03 -.234856542335210D+02 0.949399624764377D+02 0.159036089689137D+03
 0.101411483542612D+02 -.912513482695722D+01 0.301350810495459D+01 -.323937852594613D+01
0.204752943868D-04 0.000000000000D+00 0.000000000000D+00 0.538680678128D-06 0.000000000000D+00  7 2 -2 24 -13 13 -24 21 0 0.61136835D-01 0.74302698D-01 0.12505813D+06 0.12505813D+06 0.12505813D+06 0.11138389D+01  1  2  2  2  7  2       -2 0.336377243287D-03 0.100000000000D+01
-.107407964882D-05 0.000000000000D+00 -.786305217143D-07 0.538680678128D-06 0.000000000000D+00  7 2 -2 24 -13 13 -24 21 2 0.61136835D-01 0.74302698D-01 0.12505813D+06 0.12505813D+06 0.12505813D+06 0.11138389D+01  1  2  3  2  7  2       -2 -.218916117089D-04 0.100000000000D+01
0.127016727485D-05 0.000000000000D+00 0.000000000000D+00 0.538680678128D-06 0.000000000000D+00  7 2 -2 24 -13 13 -24 21 2 0.61136835D-01 0.74302698D-01 0.12505813D+06 0.12505813D+06 0.12505813D+06 0.11138389D+01  1  2 15  2  7  2       -2 0.258882186407D-04 0.100000000000D+01
0.160795566783D-04 0.000000000000D+00 0.000000000000D+00 0.538680678128D-06 0.000000000000D+00  7 2 -2 24 -13 13 -24 21 2 0.61136835D-01 0.75733297D-01 0.12824031D+06 0.12824031D+06 0.12824031D+06 0.11129637D+01  1  2 12  2  7  2       -2 0.313668332283D-03 0.100000000000D+01
-.148052146968D-04 0.000000000000D+00 0.000000000000D+00 0.538680678128D-06 0.000000000000D+00  7 2 -2 24 -13 13 -24 21 2 0.61136835D-01 0.74302698D-01 0.12505813D+06 0.12505813D+06 0.12505813D+06 0.11138389D+01  1  2  4  2  7  2       -2 -.301756030630D-03 0.100000000000D+01
-.909186579168D-03 0.000000000000D+00 -.113514408273D-03 0.538680678128D-06 0.000000000000D+00  7 2 -2 24 -13 13 -24 21 2 0.61136835D-01 0.75926104D-01 0.12505813D+06 0.12505813D+06 0.12505813D+06 0.11138389D+01  1  2  5  2  7  2       -2 -.176736099880D-01 0.100000000000D+01
0.911453612704D-03 0.000000000000D+00 0.113487900207D-03 0.538680678128D-06 0.000000000000D+00  7 2 -2 24 -13 13 -24 21 2 0.61136835D-01 0.74302698D-01 0.12505813D+06 0.12505813D+06 0.12505813D+06 0.11138389D+01  1  2  6  2  7  2       -2 0.185770101890D-01 0.100000000000D+01
0.617288334239D-09 0.000000000000D+00 0.000000000000D+00 0.538680678128D-06 0.385420639198D-07  7 2 -2 24 -13 13 -24 21 2 0.61622089D-01 0.75441866D-01 0.12824031D+06 0.12824031D+06 0.12824031D+06 0.11129637D+01  1  2 11  2  7  2       -2 0.120391928041D-07 0.100000000000D+01
0.692569926960D-06 0.000000000000D+00 0.000000000000D+00 0.538680678128D-06 0.000000000000D+00  7 2 21 24 -13 13 -24 2 2 0.61136835D-01 0.75733297D-01 0.12824031D+06 0.12824031D+06 0.12824031D+06 0.11129637D+01  1  2 12  4  7  2       -2 0.134196552949D-03 0.100000000000D+01
-.354852254076D-05 0.000000000000D+00 -.445458797828D-06 0.538680678128D-06 0.000000000000D+00  7 2 21 24 -13 13 -24 2 2 0.61136835D-01 0.75926104D-01 0.12505813D+06 0.12505813D+06 0.12505813D+06 0.11138389D+01  1  2  5  4  7  2       -2 -.685427763698D-03 0.100000000000D+01
0.234662857815D-11 0.000000000000D+00 0.000000000000D+00 0.538680678128D-06 0.106594658475D-09  7 2 21 24 -13 13 -24 2 2 0.61622089D-01 0.75441866D-01 0.12824031D+06 0.12824031D+06 0.12824031D+06 0.11129637D+01  1  2 11  4  7  2       -2 0.454907107906D-09 0.100000000000D+01
  </mgrwgt>
  </event>
  <event>
  8     66 0.26993063E-05 0.44929877E+03 0.75467711E-02 0.94339234E-01
        2 -1    0    0  501    0 0.00000000E+00 0.00000000E+00 0.69848788E+03 0.69848796E+03 0.32000000E+00 0.0000E+00 0.9000E+01
       -2 -1    0    0    0  501 0.00000000E+00 0.00000000E+00 -.60977601E+03 0.60977610E+03 0.32000000E+00 0.0000E+00 0.9000E+01
       25  2    1    2    0    0 -.27737986E+03 -.37115087E+03 -.35697036E+03 0.65871528E+03 0.30296110E+03 0.0000E+00 0.0000E+00
       23  2    1    2    0    0 0.27737986E+03 0.37115087E+03 0.44568223E+03 0.64954877E+03 0.92673637E+02 0.0000E+00 0.0000E+00
       24  1    3    3    0    0 -.55893501E+02 -.28723501E+03 -.19480450E+03 0.36061620E+03 0.80419002E+02 0.0000E+00 0.9000E+01
      -13  1    4    4    0    0 0.23707701E+03 0.25071757E+03 0.31272201E+03 0.46568216E+03 0.10565837E+00 0.0000E+00 0.9000E+01
       13  1    4    4    0    0 0.40302849E+02 0.12043330E+03 0.13296022E+03 0.18386661E+03 0.10565837E+00 0.0000E+00 0.9000E+01
      -24  1    3    3    0    0 -.22148636E+03 -.83915857E+02 -.16216587E+03 0.29809908E+03 0.80419002E+02 0.0000E+00 0.9000E+01
#aMCatNLO 1  0  0  1  2 0.60043279D+02 0.00000000D+00  -5  7  0 0.00000000D+00 0.00000000D+00 0.00000000D+00 0.00000000D+00 0.00000000D+00
  <mgrwgt>
 0.3570236913D-05    1    2    0
 0.652626431185876D+03 0.000000000000000D+00 0.000000000000000D+00 0.652626431185876D+03
 0.652626431185876D+03 0.000000000000000D+00 0.000000000000000D+00 -.652626431185876D+03
 0.374688073461224D+03 -.558935012689816D+02 -.287235008961608D+03 -.219763287612906D+03
 0.445502593323039D+03 0.237077265084312D+03 0.250717734997957D+03 0.281793449879854D+03
 0.175253759366462D+03 0.403025937212587D+02 0.120433131943579D+03 0.120770202623318D+03
 0.309808436221028D+03 -.221486357536590D+03 -.839158579799278D+02 -.182800364890267D+03
 0.000000000000000D+00 -.000000000000000D+00 0.000000000000000D+00 0.000000000000000D+00
 0.885863660414223D+03 0.000000000000000D+00 0.000000000000000D+00 0.885863660414223D+03
 0.693573048074425D+03 0.000000000000000D+00 0.000000000000000D+00 -.693573048074425D+03
 0.380370282469211D+03 -.618427465964775D+01 -.299800246824178D+03 -.219763287612906D+03
 0.472607504852119D+03 0.297520994451783D+03 0.235439085769074D+03 0.281793449879854D+03
 0.178181796479734D+03 0.635710046981886D+02 0.114551464926167D+03 0.120770202623318D+03
 0.286186546275602D+03 -.182249059637352D+03 -.938340565683533D+02 -.182800364890267D+03
 0.262090578411983D+03 -.172658664852972D+03 0.436437526972893D+02 0.192290612339798D+03
0.605375911429D-06 0.000000000000D+00 0.000000000000D+00 0.891073250271D-07 0.000000000000D+00  7 2 -2 24 -13 13 -24 21 2 0.10745969D+00 0.93811706D-01 0.26299375D+06 0.26299375D+06 0.26299375D+06 0.10888075D+01  1  2 14  1  7  1        2 0.357023691277D-05 0.100000000000D+01
  </mgrwgt>
  </event>
  <event>
  8     66 0.26993063E-05 0.10967174E+03 0.75467711E-02 0.10466175E+00
        2 -1    0    0  501    0 0.00000000E+00 0.00000000E+00 0.20730177E+04 0.20730177E+04 0.32000000E+00 0.0000E+00 0.9000E+01
       -2 -1    0    0    0  501 0.00000000E+00 0.00000000E+00 -.27177225E+02 0.27179109E+02 0.32000000E+00 0.0000E+00 0.9000E+01
       25  2    1    2    0    0 -.11605696E+03 -.12482026E+02 0.12788755E+04 0.13188139E+04 0.30020432E+03 0.0000E+00 0.0000E+00
       23  2    1    2    0    0 0.11605696E+03 0.12482026E+02 0.76696497E+03 0.78138290E+03 0.93268130E+02 0.0000E+00 0.0000E+00
       24  1    3    3    0    0 -.15004324E+03 -.89736455E+02 0.96470241E+03 0.98370909E+03 0.80419002E+02 0.0000E+00 0.9000E+01
      -11  1    4    4    0    0 0.10351604E+03 0.34167313E+02 0.43413835E+03 0.44761488E+03 0.51099893E-03 0.0000E+00 0.9000E+01
       11  1    4    4    0    0 0.12540912E+02 -.21685287E+02 0.33282662E+03 0.33376802E+03 0.51099893E-03 0.0000E+00 0.9000E+01
      -24  1    3    3    0    0 0.33986286E+02 0.77254429E+02 0.31417308E+03 0.33510484E+03 0.80419002E+02 0.0000E+00 0.9000E+01
#aMCatNLO 1  0  0  1  2 0.68321035D+01 0.00000000D+00  -5  7  0 0.00000000D+00 0.00000000D+00 0.00000000D+00 0.00000000D+00 0.00000000D+00
  <mgrwgt>
 0.6182154562D-03    8    2    0
 0.237362324332168D+03 0.000000000000000D+00 0.000000000000000D+00 0.237362324332168D+03
 0.237362324332168D+03 0.000000000000000D+00 0.000000000000000D+00 -.237362324332168D+03
 0.194545337049512D+03 -.150043241816465D+03 -.897364550815731D+02 0.285493682580918D+02
 0.109329802536331D+03 0.103516044127089D+03 0.341673123784082D+02 -.836833888820420D+01
 0.422736627018121D+02 0.125409119371934D+02 -.216852865561353D+02 0.340519666537549D+02
 0.128575846376682D+03 0.339862857521826D+02 0.772544292593002D+02 -.542329960236425D+02
 0.000000000000000D+00 -.000000000000000D+00 -.000000000000000D+00 -.000000000000000D+00
 0.240712866016399D+03 0.000000000000000D+00 0.000000000000000D+00 0.240712866016399D+03
 0.240895486706048D+03 0.000000000000000D+00 0.000000000000000D+00 -.240895486706048D+03
 0.192310063505158D+03 -.148535113118679D+03 -.873967866335634D+02 0.285493682580918D+02
 0.110561569500174D+03 0.104373275247783D+03 0.354971966307819D+02 -.836833888820420D+01
 0.421135100597102D+02 0.128698894227973D+02 -.211749201369414D+02 0.340519666537549D+02
 0.129788665908679D+03 0.349935017168780D+02 0.788169957805709D+02 -.542329960236425D+02
 0.683454374872598D+01 -.370155326878002D+01 -.574248564084800D+01 -.182620689648859D+00
0.278174817469D-05 0.000000000000D+00 0.000000000000D+00 0.161856927878D-06 0.000000000000D+00  7 2 -2 24 -11 11 -24 21 0 0.31892594D+00 0.41812584D-02 0.49079331D+05 0.49079331D+05 0.49079331D+05 0.11480060D+01  1  2  2  1  7  1        2 0.515116186655D-03 0.100000000000D+01
-.153647203055D-06 0.000000000000D+00 -.106826454419D-07 0.161856927878D-06 0.000000000000D+00  7 2 -2 24 -11 11 -24 21 2 0.31892594D+00 0.41812584D-02 0.49079331D+05 0.49079331D+05 0.49079331D+05 0.11480060D+01  1  2  3  1  7  1        2 -.374973325703D-04 0.100000000000D+01
0.178212059221D-06 0.000000000000D+00 0.000000000000D+00 0.161856927878D-06 0.000000000000D+00  7 2 -2 24 -11 11 -24 21 2 0.31892594D+00 0.41812584D-02 0.49079331D+05 0.49079331D+05 0.49079331D+05 0.11480060D+01  1  2 15  1  7  1        2 0.434923429765D-04 0.100000000000D+01
0.209735874240D-05 0.000000000000D+00 0.000000000000D+00 0.161856927878D-06 0.000000000000D+00  7 2 -2 24 -11 11 -24 21 2 0.32576730D+00 0.41812584D-02 0.50613660D+05 0.50613660D+05 0.50613660D+05 0.11468297D+01  1  2 12  1  7  1        2 0.483456271960D-03 0.100000000000D+01
-.226984261656D-05 0.000000000000D+00 0.000000000000D+00 0.161856927878D-06 0.000000000000D+00  7 2 -2 24 -11 11 -24 21 2 0.31892594D+00 0.41812584D-02 0.49079331D+05 0.49079331D+05 0.49079331D+05 0.11480060D+01  1  2  4  1  7  1        2 -.553951141204D-03 0.100000000000D+01
0.716978057298D-06 0.000000000000D+00 0.000000000000D+00 0.161856927878D-06 0.243294257927D-07  7 2 -2 24 -11 11 -24 21 2 0.32342782D+00 0.42434969D-02 0.50613660D+05 0.50613660D+05 0.50613660D+05 0.11468297D+01  1  2 11  1  7  1        2 0.164764549831D-03 0.100000000000D+01
0.595810544969D-07 0.000000000000D+00 0.000000000000D+00 0.161856927878D-06 0.000000000000D+00  7 21 -2 24 -11 11 -24 -2 2 0.32576730D+00 0.41812584D-02 0.50613660D+05 0.50613660D+05 0.50613660D+05 0.11468297D+01  1  2 12  3  7  1        2 0.266126171933D-05 0.100000000000D+01
0.383066178591D-08 0.000000000000D+00 0.000000000000D+00 0.161856927878D-06 0.624262032684D-10  7 21 -2 24 -11 11 -24 -2 2 0.32342782D+00 0.42434969D-02 0.50613660D+05 0.50613660D+05 0.50613660D+05 0.11468297D+01  1  2 11  3  7  1        2 0.173316786186D-06 0.100000000000D+01
  </mgrwgt>
  </event>
  <event>
  8     66 0.26993063E-05 0.19627408E+03 0.75467711E-02 0.10640477E+00
        2 -1    0    0  501    0 0.00000000E+00 0.00000000E+00 0.61617667E+03 0.61617675E+03 0.32000000E+00 0.0000E+00 0.9000E+01
       -2 -1    0    0    0  501 0.00000000E+00 0.00000000E+00 -.77446901E+02 0.77447562E+02 0.32000000E+00 0.0000E+00 0.9000E+01
       25  2    1    2    0    0 0.19234637E+02 -.57336432E+02 0.48354445E+03 0.57210919E+03 0.29972696E+03 0.0000E+00 0.0000E+00
       23  2    1    2    0    0 -.19234637E+02 0.57336432E+02 0.55185318E+02 0.12151512E+03 0.89794590E+02 0.0000E+00 0.0000E+00
       24  1    3    3    0    0 -.61993396E+02 0.62072961E+02 0.10368282E+03 0.15784035E+03 0.80419002E+02 0.0000E+00 0.9000E+01
      -11  1    4    4    0    0 0.45047907E+00 -.24278847E+02 0.11351834E+02 0.26805400E+02 0.51099893E-03 0.0000E+00 0.9000E+01
       11  1    4    4    0    0 -.19685116E+02 0.81615279E+02 0.43833484E+02 0.94709724E+02 0.51099893E-03 0.0000E+00 0.9000E+01
      -24  1    3    3    0    0 0.81228032E+02 -.11940939E+03 0.37986163E+03 0.41426884E+03 0.80419002E+02 0.0000E+00 0.9000E+01
#aMCatNLO 1  0  0  2  2 0.52155727D+01 0.00000000D+00  -5  7  0 0.00000000D+00 0.00000000D+00 0.00000000D+00 0.00000000D+00 0.00000000D+00
  <mgrwgt>
 0.7597264242D-03    8    2    0
 0.218451897511988D+03 0.000000000000000D+00 0.000000000000000D+00 0.218451897511988D+03
 0.218451897511988D+03 0.000000000000000D+00 0.000000000000000D+00 -.218451897511988D+03
 0.122738426222224D+03 -.619933955461584D+02 0.620729611100498D+02 -.300211879316189D+02
 0.285584752530021D+02 0.450479043099807D+00 -.242788467545977D+02 -.150306745582099D+02
 0.963108247468170D+02 -.196851156091483D+02 0.816152787488971D+02 -.471934048528647D+02
 0.189296068801933D+03 0.812280321122069D+02 -.119409393104349D+03 0.922452673426936D+02
 0.000000000000000D+00 -.000000000000000D+00 -.000000000000000D+00 0.000000000000000D+00
 0.234144219189410D+03 0.000000000000000D+00 0.000000000000000D+00 0.234144219189410D+03
 0.218901260522401D+03 0.000000000000000D+00 0.000000000000000D+00 -.218901260522401D+03
 0.122261975680704D+03 -.605977248393004D+02 0.625093494003374D+02 -.300211879316189D+02
 0.284791498683935D+02 0.775399908340747D+00 -.241772528326471D+02 -.150306745582099D+02
 0.963841545940797D+02 -.185874082750549D+02 0.819585019923222D+02 -.471934048528647D+02
 0.189809644421762D+03 0.833876479113616D+02 -.118734139950693D+03 0.922452673426936D+02
 0.161105551468714D+02 -.497791470534700D+01 -.155645860931917D+01 0.152429586670092D+02
0.276762990340D-05 0.000000000000D+00 0.000000000000D+00 0.156680878853D-06 0.000000000000D+00  7 2 -2 24 -11 11 -24 21 0 0.94796468D-01 0.11914965D-01 0.38523515D+05 0.38523515D+05 0.38523515D+05 0.11573915D+01  1  2  2  2  7  2       -2 0.737923085625D-03 0.100000000000D+01
-.151614715956D-06 0.000000000000D+00 -.106284275628D-07 0.156680878853D-06 0.000000000000D+00  7 2 -2 24 -11 11 -24 21 2 0.94796468D-01 0.11914965D-01 0.38523515D+05 0.38523515D+05 0.38523515D+05 0.11573915D+01  1  2  3  2  7  2       -2 -.541508202973D-04 0.100000000000D+01
0.180480742466D-06 0.000000000000D+00 0.000000000000D+00 0.156680878853D-06 0.000000000000D+00  7 2 -2 24 -11 11 -24 21 2 0.94796468D-01 0.11914965D-01 0.38523515D+05 0.38523515D+05 0.38523515D+05 0.11573915D+01  1  2 15  2  7  2       -2 0.644606309540D-04 0.100000000000D+01
-.393319669510D-06 0.000000000000D+00 0.000000000000D+00 0.156680878853D-06 0.000000000000D+00  7 2 -2 24 -11 11 -24 21 2 0.94796468D-01 0.11914965D-01 0.38523515D+05 0.38523515D+05 0.38523515D+05 0.11573915D+01  1  2  4  2  7  2       -2 -.140478334235D-03 0.100000000000D+01
0.706149609230D-07 0.000000000000D+00 0.000000000000D+00 0.156680878853D-06 0.000000000000D+00  7 2 -2 24 -11 11 -24 21 2 0.94796468D-01 0.12869052D-01 0.38523515D+05 0.38523515D+05 0.38523515D+05 0.11573915D+01  1  2  5  2  7  2       -2 0.223785164725D-04 0.100000000000D+01
-.704059754392D-07 0.000000000000D+00 0.000000000000D+00 0.156680878853D-06 0.000000000000D+00  7 2 -2 24 -11 11 -24 21 2 0.94796468D-01 0.11914965D-01 0.38523515D+05 0.38523515D+05 0.38523515D+05 0.11573915D+01  1  2  6  2  7  2       -2 -.251462485012D-04 0.100000000000D+01
0.220939652282D-06 0.000000000000D+00 0.000000000000D+00 0.156680878853D-06 0.411714667496D-07  7 2 -2 24 -11 11 -24 21 2 0.10160610D+00 0.11939475D-01 0.39571346D+05 0.39571346D+05 0.39571346D+05 0.11563398D+01  1  2 11  2  7  2       -2 0.725226103451D-04 0.100000000000D+01
0.173772965676D-07 0.000000000000D+00 0.000000000000D+00 0.156680878853D-06 0.164058644558D-10  7 2 21 24 -11 11 -24 2 2 0.10160610D+00 0.11939475D-01 0.39571346D+05 0.39571346D+05 0.39571346D+05 0.11563398D+01  1  2 11  4  7  2       -2 0.822169838458D-04 0.100000000000D+01
  </mgrwgt>
  </event>
  <event>
  8     66 0.26993063E-05 0.33991769E+03 0.75467711E-02 0.91442285E-01
        2 -1    0    0  501    0 0.00000000E+00 0.00000000E+00 0.26221725E+04 0.26221725E+04 0.32000000E+00 0.0000E+00 0.9000E+01
       -2 -1    0    0    0  501 0.00000000E+00 0.00000000E+00 -.15712498E+03 0.15712531E+03 0.32000000E+00 0.0000E+00 0.9000E+01
       25  2    1    2    0    0 0.23744416E+03 -.19856950E+03 0.24148327E+04 0.24530151E+04 0.30009487E+03 0.0000E+00 0.0000E+00
       23  2    1    2    0    0 -.23744416E+03 0.19856950E+03 0.50214874E+02 0.32628271E+03 0.90162610E+02 0.0000E+00 0.0000E+00
       24  1    3    3    0    0 0.16603061E+03 -.70512661E+02 0.62678287E+03 0.65716222E+03 0.80419002E+02 0.0000E+00 0.9000E+01
      -11  1    4    4    0    0 -.14127816E+03 0.79695142E+02 0.60292044E+02 0.17304902E+03 0.51099893E-03 0.0000E+00 0.9000E+01
       11  1    4    4    0    0 -.96166002E+02 0.11887436E+03 -.10077170E+02 0.15323369E+03 0.51099893E-03 0.0000E+00 0.9000E+01
      -24  1    3    3    0    0 0.71413547E+02 -.12805684E+03 0.17880498E+04 0.17958529E+04 0.80419002E+02 0.0000E+00 0.9000E+01
#aMCatNLO 1  0  0  1  2 0.50109145D+03 0.00000000D+00  -5  7  0 0.00000000D+00 0.00000000D+00 0.00000000D+00 0.00000000D+00 0.00000000D+00
  <mgrwgt>
 0.9450104332D-03    6    2    0
 0.641879503495027D+03 0.000000000000000D+00 0.000000000000000D+00 0.641879503495027D+03
 0.641879503495027D+03 0.000000000000000D+00 0.000000000000000D+00 -.641879503495027D+03
 0.219199997594237D+03 0.166030611598357D+03 -.705126610912631D+02 0.950958654676799D+02
 0.258874147924265D+03 -.141278156674628D+03 0.796951418945285D+02 -.201754780038898D+03
 0.351096083088917D+03 -.961660021859274D+02 0.118874359685055D+03 -.316052916761457D+03
 0.454588778382635D+03 0.714135472621988D+02 -.128056840488320D+03 0.422711831332675D+03
 0.000000000000000D+00 -.000000000000000D+00 -.000000000000000D+00 0.000000000000000D+00
 0.988293612981075D+03 0.000000000000000D+00 0.000000000000000D+00 0.988293612981075D+03
 0.898813578781928D+03 0.000000000000000D+00 0.000000000000000D+00 -.898813578781928D+03
 0.248933382945502D+03 0.215526395219377D+03 0.240052598725759D+01 0.950958654676799D+02
 0.272661442634194D+03 -.850788517952803D+02 0.162483414562880D+03 -.201754780038898D+03
 0.394202672723021D+03 -.173654989871351D+02 0.234956890585223D+03 -.316052916761457D+03
 0.462291697534723D+03 0.168355400863880D+03 0.147500612372666D+02 0.422711831332675D+03
 0.509017995925563D+03 -.281437445300841D+03 -.414590892372627D+03 0.894800341991475D+02
0.123382429084D-03 0.000000000000D+00 0.000000000000D+00 0.546777275123D-05 0.000000000000D+00  7 2 -2 24 -11 11 -24 21 0 0.40341118D+00 0.24173101D-01 0.11554404D+06 0.11554404D+06 0.11554404D+06 0.11166090D+01  1  2  2  1  7  1        2 0.722022668219D-03 0.100000000000D+01
-.348665167495D-05 0.000000000000D+00 -.473821015021D-06 0.546777275123D-05 0.000000000000D+00  7 2 -2 24 -11 11 -24 21 2 0.40341118D+00 0.24173101D-01 0.11554404D+06 0.11554404D+06 0.11554404D+06 0.11166090D+01  1  2  3  1  7  1        2 -.254394841899D-04 0.100000000000D+01
0.737624700076D-05 0.000000000000D+00 0.000000000000D+00 0.546777275123D-05 0.000000000000D+00  7 2 -2 24 -11 11 -24 21 2 0.40341118D+00 0.24173101D-01 0.11554404D+06 0.11554404D+06 0.11554404D+06 0.11166090D+01  1  2 15  1  7  1        2 0.538189462126D-04 0.100000000000D+01
-.123440797748D-04 0.000000000000D+00 -.299868034245D-04 0.546777275123D-05 0.000000000000D+00  7 2 -2 24 -11 11 -24 21 2 0.66881576D+00 0.24173101D-01 0.11554404D+06 0.11554404D+06 0.11554404D+06 0.11166090D+01  1  2  5  1  7  1        2 -.524623045321D-05 0.100000000000D+01
0.273908699943D-04 0.000000000000D+00 0.265243980743D-04 0.546777275123D-05 0.000000000000D+00  7 2 -2 24 -11 11 -24 21 2 0.40341118D+00 0.24173101D-01 0.11554404D+06 0.11554404D+06 0.11554404D+06 0.11166090D+01  1  2  6  1  7  1        2 0.199850650173D-03 0.100000000000D+01
0.667255551696D-06 0.000000000000D+00 -.170563420912D-05 0.546777275123D-05 0.000000000000D+00  7 21 -2 24 -11 11 -24 -2 2 0.66881576D+00 0.24173101D-01 0.11554404D+06 0.11554404D+06 0.11554404D+06 0.11166090D+01  1  2  5  3  7  1        2 0.388319308632D-08 0.100000000000D+01
  </mgrwgt>
  </event>
  <event>
  8     66 0.26993063E-05 0.22631104E+03 0.75467711E-02 0.98499089E-01
        2 -1    0    0  501    0 0.00000000E+00 0.00000000E+00 0.12504044E+04 0.12504044E+04 0.32000000E+00 0.0000E+00 0.9000E+01
       -2 -1    0    0    0  501 0.00000000E+00 0.00000000E+00 -.84569281E+02 0.84569886E+02 0.32000000E+00 0.0000E+00 0.9000E+01
       25  2    1    2    0    0 0.83682171E+02 0.13187180E+03 0.10863449E+04 0.11374384E+04 0.29871039E+03 0.0000E+00 0.0000E+00
       23  2    1    2    0    0 -.83682171E+02 -.13187180E+03 0.79490192E+02 0.19753595E+03 0.91153072E+02 0.0000E+00 0.0000E+00
       24  1    3    3    0    0 -.39602530E+01 -.17010404E+02 0.85716477E+02 0.11882579E+03 0.80419002E+02 0.0000E+00 0.9000E+01
      -11  1    4    4    0    0 -.48808311E+02 -.60285860E+01 0.12374378E+02 0.50712131E+02 0.51099893E-03 0.0000E+00 0.9000E+01
       11  1    4    4    0    0 -.34873861E+02 -.12584321E+03 0.67115814E+02 0.14682382E+03 0.51099893E-03 0.0000E+00 0.9000E+01
      -24  1    3    3    0    0 0.87642424E+02 0.14888220E+03 0.10006285E+04 0.10186126E+04 0.80419002E+02 0.0000E+00 0.9000E+01
#aMCatNLO 1  0  0  2  1 0.21674855D+03 0.00000000D+00  -5  7  0 0.00000000D+00 0.00000000D+00 0.00000000D+00 0.00000000D+00 0.00000000D+00
  <mgrwgt>
 0.9011189685D-03    3    2    0
 0.325186458910839D+03 0.000000000000000D+00 0.000000000000000D+00 0.325186458910839D+03
 0.325186458910839D+03 0.000000000000000D+00 0.000000000000000D+00 -.325186458910839D+03
 0.902529849490288D+02 -.396025298024266D+01 -.170104037818419D+02 -.370587087922699D+02
 0.819113277095172D+02 -.488083107098617D+02 -.602858598177217D+01 -.655047369573063D+02
 0.181065428625532D+03 -.348738606613377D+02 -.125843212077492D+03 -.125427226948301D+03
 0.297143176537600D+03 0.876424243514420D+02 0.148882201841106D+03 0.227990672697878D+03
 0.000000000000000D+00 0.000000000000000D+00 -.000000000000000D+00 0.000000000000000D+00
 0.548198096781113D+03 0.000000000000000D+00 0.000000000000000D+00 0.548198096781113D+03
 0.399943103583059D+03 0.000000000000000D+00 0.000000000000000D+00 -.399943103583059D+03
 0.934034241780672D+02 -.296629888748000D+02 -.193465435689356D+01 -.370587087922699D+02
 0.993547474587592D+02 -.741765190878714D+02 0.885094880532937D+01 -.655047369573063D+02
 0.179662415561270D+03 -.853577645610927D+02 -.962322520494180D+02 -.125427226948301D+03
 0.313119248301317D+03 0.223612676260018D+01 0.198976633307236D+03 0.227990672697878D+03
 0.262601364864759D+03 0.186961145761164D+03 -.109660675706254D+03 0.148254993198053D+03
0.963590887506D-05 0.000000000000D+00 0.000000000000D+00 0.220953526928D-06 0.000000000000D+00  7 2 -2 24 -11 11 -24 21 0 0.19236996D+00 0.13010708D-01 0.51216685D+05 0.51216685D+05 0.51216685D+05 0.11463781D+01  1  2  2  2  7  2       -2 0.884129885705D-03 0.100000000000D+01
-.449803885363D-06 0.000000000000D+00 -.370044272733D-07 0.220953526928D-06 0.000000000000D+00  7 2 -2 24 -11 11 -24 21 2 0.19236996D+00 0.13010708D-01 0.51216685D+05 0.51216685D+05 0.51216685D+05 0.11463781D+01  1  2  3  2  7  2       -2 -.542378350965D-04 0.100000000000D+01
0.590697330853D-06 0.000000000000D+00 0.000000000000D+00 0.220953526928D-06 0.000000000000D+00  7 2 -2 24 -11 11 -24 21 2 0.19236996D+00 0.13010708D-01 0.51216685D+05 0.51216685D+05 0.51216685D+05 0.11463781D+01  1  2 15  2  7  2       -2 0.712269179198D-04 0.100000000000D+01
  </mgrwgt>
  </event>
  <event>
  8     66 0.26993063E-05 0.24885704E+03 0.75467711E-02 0.96802807E-01
        2 -1    0    0  501    0 0.00000000E+00 0.00000000E+00 0.58396090E+03 0.58396099E+03 0.32000000E+00 0.0000E+00 0.9000E+01
       -2 -1    0    0    0  501 0.00000000E+00 0.00000000E+00 -.65011909E+03 0.65011917E+03 0.32000000E+00 0.0000E+00 0.9000E+01
       25  2    1    2    0    0 0.11780635E+03 -.33566001E+03 -.48765907E+03 0.67376096E+03 0.29932671E+03 0.0000E+00 0.0000E+00
       23  2    1    2    0    0 -.11780635E+03 0.33566001E+03 0.42150088E+03 0.56031920E+03 0.98735148E+02 0.0000E+00 0.0000E+00
       24  1    3    3    0    0 -.33276829E+02 -.24351580E+03 -.35174433E+03 0.43657597E+03 0.80419002E+02 0.0000E+00 0.9000E+01
      -11  1    4    4    0    0 -.21300594E+02 0.28331120E+02 0.96166383E+02 0.10249069E+03 0.51099893E-03 0.0000E+00 0.9000E+01
       11  1    4    4    0    0 -.96505758E+02 0.30732889E+03 0.32533450E+03 0.45782851E+03 0.51099893E-03 0.0000E+00 0.9000E+01
      -24  1    3    3    0    0 0.15108318E+03 -.92144208E+02 -.13591474E+03 0.23718498E+03 0.80419002E+02 0.0000E+00 0.9000E+01
#aMCatNLO 1  0  0  1  2 0.19433682D+02 0.00000000D+00  -5  7  0 0.00000000D+00 0.00000000D+00 0.00000000D+00 0.00000000D+00 0.00000000D+00
  <mgrwgt>
 0.1407254292D-02    9    2    0
 0.616152764689750D+03 0.000000000000000D+00 0.000000000000000D+00 0.616152764689750D+03
 0.616152764689750D+03 0.000000000000000D+00 0.000000000000000D+00 -.616152764689750D+03
 0.418320753034548D+03 -.332768293755151D+02 -.243515803954936D+03 -.328812624933890D+03
 0.107801120131189D+03 -.213005936617119D+02 0.283311204960103D+02 0.101807238557179D+03
 0.475953895931077D+03 -.965057584065884D+02 0.307328891676204D+03 0.350382222704600D+03
 0.230229760282686D+03 0.151083181443815D+03 -.921442082172781D+02 -.123376836327889D+03
 0.000000000000000D+00 -.000000000000000D+00 0.000000000000000D+00 0.000000000000000D+00
 0.635489714888061D+03 0.000000000000000D+00 0.000000000000000D+00 0.635489714888061D+03
 0.621131525157127D+03 0.000000000000000D+00 0.000000000000000D+00 -.621131525157127D+03
 0.421439919113946D+03 -.299753208761000D+02 -.249255144963668D+03 -.328812624933890D+03
 0.107259745910779D+03 -.204550845771860D+02 0.268612878534668D+02 0.101807238557179D+03
 0.471053069899351D+03 -.927826124551409D+02 0.300856576295394D+03 0.350382222704600D+03
 0.232706021283268D+03 0.152903207634865D+03 -.953081409944029D+02 -.123376836327889D+03
 0.241624838378436D+02 -.969018972643761D+01 0.168454218092103D+02 0.143581897309333D+02
0.119471074296D-03 0.000000000000D+00 0.000000000000D+00 0.141321793832D-06 0.000000000000D+00  7 2 -2 24 -11 11 -24 21 0 0.89840151D-01 0.10001833D+00 0.16424863D+06 0.16424863D+06 0.16424863D+06 0.11044552D+01  1  2  2  1  7  1        2 0.641369136909D-03 0.100000000000D+01
-.522100653769D-05 0.000000000000D+00 -.458800382754D-06 0.141321793832D-06 0.000000000000D+00  7 2 -2 24 -11 11 -24 21 2 0.89840151D-01 0.10001833D+00 0.16424863D+06 0.16424863D+06 0.16424863D+06 0.11044552D+01  1  2  3  1  7  1        2 -.341897360570D-04 0.100000000000D+01
0.717436562564D-05 0.000000000000D+00 0.000000000000D+00 0.141321793832D-06 0.000000000000D+00  7 2 -2 24 -11 11 -24 21 2 0.89840151D-01 0.10001833D+00 0.16424863D+06 0.16424863D+06 0.16424863D+06 0.11044552D+01  1  2 15  1  7  1        2 0.469812985956D-04 0.100000000000D+01
0.323037246955D-03 0.000000000000D+00 0.000000000000D+00 0.141321793832D-06 0.000000000000D+00  7 2 -2 24 -11 11 -24 21 2 0.93015265D-01 0.10001833D+00 0.17179349D+06 0.17179349D+06 0.17179349D+06 0.11029324D+01  1  2 12  1  7  1        2 0.202315508665D-02 0.100000000000D+01
-.323507051570D-03 0.000000000000D+00 0.000000000000D+00 0.141321793832D-06 0.000000000000D+00  7 2 -2 24 -11 11 -24 21 2 0.89840151D-01 0.10001833D+00 0.16424863D+06 0.16424863D+06 0.16424863D+06 0.11044552D+01  1  2  4  1  7  1        2 -.211848436234D-02 0.100000000000D+01
-.326740800679D-02 0.000000000000D+00 -.434903867747D-03 0.141321793832D-06 0.000000000000D+00  7 2 -2 24 -11 11 -24 21 2 0.93173548D-01 0.10001833D+00 0.16424863D+06 0.16424863D+06 0.16424863D+06 0.11044552D+01  1  2  5  1  7  1        2 -.205107401297D-01 0.100000000000D+01
0.328136294012D-02 0.000000000000D+00 0.434615407506D-03 0.141321793832D-06 0.000000000000D+00  7 2 -2 24 -11 11 -24 21 2 0.89840151D-01 0.10001833D+00 0.16424863D+06 0.16424863D+06 0.16424863D+06 0.11044552D+01  1  2  6  1  7  1        2 0.214879893407D-01 0.100000000000D+01
0.722825799810D-05 0.000000000000D+00 0.000000000000D+00 0.141321793832D-06 0.000000000000D+00  7 21 -2 24 -11 11 -24 -2 2 0.93015265D-01 0.10001833D+00 0.17179349D+06 0.17179349D+06 0.17179349D+06 0.11029324D+01  1  2 12  3  7  1        2 0.677101362733D-04 0.100000000000D+01
-.209420821822D-04 0.000000000000D+00 -.281498475392D-05 0.141321793832D-06 0.000000000000D+00  7 21 -2 24 -11 11 -24 -2 2 0.93173548D-01 0.10001833D+00 0.16424863D+06 0.16424863D+06 0.16424863D+06 0.11044552D+01  1  2  5  3  7  1        2 -.196536478736D-03 0.100000000000D+01
  </mgrwgt>
  </event>
  <event>
  8     66 0.26993063E-05 0.18976432E+03 0.75467711E-02 0.98901260E-01
        2 -1    0    0  501    0 0.00000000E+00 0.00000000E+00 0.13319646E+04 0.13319646E+04 0.32000000E+00 0.0000E+00 0.9000E+01
       -2 -1    0    0    0  501 0.00000000E+00 0.00000000E+00 -.78977404E+02 0.78978053E+02 0.32000000E+00 0.0000E+00 0.9000E+01
       25  2    1    2    0    0 0.71080087E+02 0.27052191E+02 0.23868419E+03 0.38968120E+03 0.29849137E+03 0.0000E+00 0.0000E+00
       23  2    1    2    0    0 -.71080087E+02 -.27052191E+02 0.10143030E+04 0.10212615E+04 0.91543637E+02 0.0000E+00 0.0000E+00
       24  1    3    3    0    0 -.20542248E+02 0.10142082E+03 0.20442441E+03 0.24282653E+03 0.80419002E+02 0.0000E+00 0.9000E+01
      -13  1    4    4    0    0 0.14481489E+02 0.33582422E+01 0.40071997E+03 0.40099564E+03 0.10565837E+00 0.0000E+00 0.9000E+01
       13  1    4    4    0    0 -.85561577E+02 -.30410433E+02 0.61358301E+03 0.62026583E+03 0.10565837E+00 0.0000E+00 0.9000E+01
      -24  1    3    3    0    0 0.91622335E+02 -.74368634E+02 0.34259774E+02 0.14685467E+03 0.80419002E+02 0.0000E+00 0.9000E+01
#aMCatNLO 1  0  0  1  2 0.25575870D+03 0.00000000D+00  -5  7  0 0.00000000D+00 0.00000000D+00 0.00000000D+00 0.00000000D+00 0.00000000D+00
  <mgrwgt>
 0.1223057025D-02    6    2    0
 0.324338695623150D+03 0.000000000000000D+00 0.000000000000000D+00 0.324338695623150D+03
 0.324338695623150D+03 0.000000000000000D+00 0.000000000000000D+00 -.324338695623150D+03
 0.133306860235273D+03 -.205422477542079D+02 0.101420824288207D+03 -.243994977268275D+02
 0.981763959434207D+02 0.144816223287615D+02 0.335828707893585D+01 0.970443673948256D+02
 0.163945810807247D+03 -.855617096736380D+02 -.304104782092660D+02 0.136501375575682D+03
 0.253248324260359D+03 0.916223350990844D+02 -.743686331578773D+02 -.209146245243680D+03
 0.000000000000000D+00 0.000000000000000D+00 -.000000000000000D+00 0.000000000000000D+00
 0.477797515801836D+03 0.000000000000000D+00 0.000000000000000D+00 0.477797515801836D+03
 0.475250622508242D+03 0.000000000000000D+00 0.000000000000000D+00 -.475250622508242D+03
 0.151711917523131D+03 -.746999027155794D+02 0.101852241060943D+03 -.243994977268275D+02
 0.998327951179517D+02 -.231429634372052D+02 0.365800237085954D+01 0.970443673948256D+02
 0.209867196239772D+03 -.156591541514702D+03 -.298446586433589D+02 0.136501375575682D+03
 0.235864845440102D+03 -.131618105774872D+01 -.736282902694754D+02 -.209146245243680D+03
 0.255771383989121D+03 0.255750588725236D+03 -.203729451896788D+01 0.254689329359406D+01
0.100424294359D-04 0.000000000000D+00 0.000000000000D+00 0.227138937568D-06 0.000000000000D+00  7 2 -2 24 -13 13 -24 21 0 0.20491768D+00 0.12150423D-01 0.36010496D+05 0.36010496D+05 0.36010496D+05 0.11600483D+01  1  2  2  1  7  1        2 0.927508318862D-03 0.100000000000D+01
-.363024249979D-06 0.000000000000D+00 -.385655732662D-07 0.227138937568D-06 0.000000000000D+00  7 2 -2 24 -13 13 -24 21 2 0.20491768D+00 0.12150423D-01 0.36010496D+05 0.36010496D+05 0.36010496D+05 0.11600483D+01  1  2  3  1  7  1        2 -.451197664173D-04 0.100000000000D+01
0.631551599753D-06 0.000000000000D+00 0.000000000000D+00 0.227138937568D-06 0.000000000000D+00  7 2 -2 24 -13 13 -24 21 2 0.20491768D+00 0.12150423D-01 0.36010496D+05 0.36010496D+05 0.36010496D+05 0.11600483D+01  1  2 15  1  7  1        2 0.784946478452D-04 0.100000000000D+01
-.351243229977D-06 0.000000000000D+00 -.302065996900D-05 0.227138937568D-06 0.000000000000D+00  7 2 -2 24 -13 13 -24 21 2 0.36969770D+00 0.12150423D-01 0.36010496D+05 0.36010496D+05 0.36010496D+05 0.11600483D+01  1  2  5  1  7  1        2 -.117832567265D-04 0.100000000000D+01
0.219870072958D-05 0.000000000000D+00 0.256160465141D-05 0.227138937568D-06 0.000000000000D+00  7 2 -2 24 -13 13 -24 21 2 0.20491768D+00 0.12150423D-01 0.36010496D+05 0.36010496D+05 0.36010496D+05 0.11600483D+01  1  2  6  1  7  1        2 0.273273378696D-03 0.100000000000D+01
0.138422186736D-06 0.000000000000D+00 -.195387904847D-06 0.227138937568D-06 0.000000000000D+00  7 21 -2 24 -13 13 -24 -2 2 0.36969770D+00 0.12150423D-01 0.36010496D+05 0.36010496D+05 0.36010496D+05 0.11600483D+01  1  2  5  3  7  1        2 0.683702915415D-06 0.100000000000D+01
  </mgrwgt>
  </event>
  <event>
  8     66 0.26993063E-05 0.24618130E+03 0.75467711E-02 0.95745348E-01
        2 -1    0    0  501    0 0.00000000E+00 0.00000000E+00 0.39166280E+03 0.39166293E+03 0.32000000E+00 0.0000E+00 0.9000E+01
       -2 -1    0    0    0  501 0.00000000E+00 0.00000000E+00 -.78429703E+03 0.78429710E+03 0.32000000E+00 0.0000E+00 0.9000E+01
       25  2    1    2    0    0 -.21514438E+03 -.27109881E+03 -.60533679E+03 0.75967683E+03 0.30148729E+03 0.0000E+00 0.0000E+00
       23  2    1    2    0    0 0.21514438E+03 0.27109881E+03 0.21270255E+03 0.41628320E+03 0.90926640E+02 0.0000E+00 0.0000E+00
       24  1    3    3    0    0 -.19117850E+03 -.30450014E+03 -.49598230E+03 0.61784724E+03 0.80419002E+02 0.0000E+00 0.9000E+01
      -11  1    4    4    0    0 0.10237342E+03 0.87763503E+02 0.40980158E+02 0.14093305E+03 0.51099893E-03 0.0000E+00 0.9000E+01
       11  1    4    4    0    0 0.11277096E+03 0.18333531E+03 0.17172240E+03 0.27535015E+03 0.51099893E-03 0.0000E+00 0.9000E+01
      -24  1    3    3    0    0 -.23965878E+02 0.33401330E+02 -.10935449E+03 0.14182959E+03 0.80419002E+02 0.0000E+00 0.9000E+01
#aMCatNLO 1  0  0  1  2 0.99449436D+02 0.00000000D+00  -5  7  0 0.00000000D+00 0.00000000D+00 0.00000000D+00 0.00000000D+00 0.00000000D+00
  <mgrwgt>
 0.9388482020D-03    9    2    0
 0.554238292650719D+03 0.000000000000000D+00 0.000000000000000D+00 0.554238292650719D+03
 0.554238292650719D+03 0.000000000000000D+00 0.000000000000000D+00 -.554238292650719D+03
 0.479779216421174D+03 -.191178502230820D+03 -.304500138930931D+03 -.307329344891062D+03
 0.164028581548335D+03 0.102373423673669D+03 0.877635029501847D+02 0.933949957974364D+02
 0.352939219550083D+03 0.112770956754700D+03 0.183335306195836D+03 0.279708722622892D+03
 0.111729567781846D+03 -.239658781975492D+02 0.334013297849097D+02 -.657743735292669D+02
 0.000000000000000D+00 0.000000000000000D+00 0.000000000000000D+00 0.000000000000000D+00
 0.616561014093016D+03 0.000000000000000D+00 0.000000000000000D+00 0.616561014093016D+03
 0.597607283294561D+03 0.000000000000000D+00 0.000000000000000D+00 -.597607283294561D+03
 0.511918282783728D+03 -.226463945291317D+03 -.331445119960745D+03 -.307329344891062D+03
 0.152608962766240D+03 0.911071897165553D+02 0.791602820771628D+02 0.933949957974364D+02
 0.336333063068450D+03 0.882460609059009D+02 0.164607389069471D+03 0.279708722622892D+03
 0.112068498881450D+03 -.319288043364457D+02 0.273206099428345D+02 -.657743735292669D+02
 0.101239489887708D+03 0.790394990053064D+02 0.603568388712768D+02 0.189537307984547D+02
0.112129753147D-03 0.000000000000D+00 0.000000000000D+00 0.963230691266D-06 0.000000000000D+00  7 2 -2 24 -11 11 -24 21 0 0.60255830D-01 0.12066110D+00 0.16355049D+06 0.16355049D+06 0.16355049D+06 0.11046000D+01  1  2  2  1  7  1        2 0.592140199024D-03 0.100000000000D+01
-.547714715592D-05 0.000000000000D+00 -.430607776525D-06 0.963230691266D-06 0.000000000000D+00  7 2 -2 24 -11 11 -24 21 2 0.60255830D-01 0.12066110D+00 0.16355049D+06 0.16355049D+06 0.16355049D+06 0.11046000D+01  1  2  3  1  7  1        2 -.352913400546D-04 0.100000000000D+01
0.710925323384D-05 0.000000000000D+00 0.000000000000D+00 0.963230691266D-06 0.000000000000D+00  7 2 -2 24 -11 11 -24 21 2 0.60255830D-01 0.12066110D+00 0.16355049D+06 0.16355049D+06 0.16355049D+06 0.11046000D+01  1  2 15  1  7  1        2 0.458076195996D-04 0.100000000000D+01
0.135076702585D-03 0.000000000000D+00 0.000000000000D+00 0.963230691266D-06 0.000000000000D+00  7 2 -2 24 -11 11 -24 21 2 0.69164882D-01 0.12066110D+00 0.20568476D+06 0.20568476D+06 0.20568476D+06 0.10968918D+01  1  2 12  1  7  1        2 0.731479863046D-03 0.100000000000D+01
-.123391869830D-03 0.000000000000D+00 0.000000000000D+00 0.963230691266D-06 0.000000000000D+00  7 2 -2 24 -11 11 -24 21 2 0.60255830D-01 0.12066110D+00 0.16355049D+06 0.16355049D+06 0.16355049D+06 0.11046000D+01  1  2  4  1  7  1        2 -.795060697508D-03 0.100000000000D+01
-.328137365572D-03 0.000000000000D+00 -.968203756032D-04 0.963230691266D-06 0.000000000000D+00  7 2 -2 24 -11 11 -24 21 2 0.71556884D-01 0.12066110D+00 0.16355049D+06 0.16355049D+06 0.16355049D+06 0.11046000D+01  1  2  5  1  7  1        2 -.174827648367D-02 0.100000000000D+01
0.341140815700D-03 0.000000000000D+00 0.954073845585D-04 0.963230691266D-06 0.000000000000D+00  7 2 -2 24 -11 11 -24 21 2 0.60255830D-01 0.12066110D+00 0.16355049D+06 0.16355049D+06 0.16355049D+06 0.11046000D+01  1  2  6  1  7  1        2 0.219809988496D-02 0.100000000000D+01
0.287684694362D-05 0.000000000000D+00 0.000000000000D+00 0.963230691266D-06 0.000000000000D+00  7 21 -2 24 -11 11 -24 -2 2 0.69164882D-01 0.12066110D+00 0.20568476D+06 0.20568476D+06 0.20568476D+06 0.10968918D+01  1  2 12  3  7  1        2 0.338337454690D-04 0.100000000000D+01
-.749000487845D-05 0.000000000000D+00 -.246270512811D-05 0.963230691266D-06 0.000000000000D+00  7 21 -2 24 -11 11 -24 -2 2 0.71556884D-01 0.12066110D+00 0.16355049D+06 0.16355049D+06 0.16355049D+06 0.11046000D+01  1  2  5  3  7  1        2 -.838845888795D-04 0.100000000000D+01
  </mgrwgt>
  </event>
  <event>
  8     66 0.26993063E-05 0.13539994E+03 0.75467711E-02 0.99611082E-01
        2 -1    0    0  501    0 0.00000000E+00 0.00000000E+00 0.99916186E+03 0.99916191E+03 0.32000000E+00 0.0000E+00 0.9000E+01
       -2 -1    0    0    0  501 0.00000000E+00 0.00000000E+00 -.62226321E+02 0.62227144E+02 0.32000000E+00 0.0000E+00 0.9000E+01
       25  2    1    2    0    0 -.57445160E+02 0.21117936E+02 0.85145774E+03 0.90495240E+03 0.30035419E+03 0.0000E+00 0.0000E+00
       23  2    1    2    0    0 0.57445160E+02 -.21117936E+02 0.85477790E+02 0.15643665E+03 0.11584498E+03 0.0000E+00 0.0000E+00
       24  1    3    3    0    0 0.72188236E+02 0.59704706E+02 0.20232764E+03 0.23702212E+03 0.80419002E+02 0.0000E+00 0.9000E+01
      -11  1    4    4    0    0 0.44250571E+02 -.63498494E+02 0.24831107E+02 0.81281951E+02 0.51099893E-03 0.0000E+00 0.9000E+01
       11  1    4    4    0    0 0.13194589E+02 0.42380557E+02 0.60646683E+02 0.75154700E+02 0.51099893E-03 0.0000E+00 0.9000E+01
      -24  1    3    3    0    0 -.12963340E+03 -.38586770E+02 0.64913010E+03 0.66793028E+03 0.80419002E+02 0.0000E+00 0.9000E+01
#aMCatNLO 1  0  0  1  2 0.20053921D+03 0.00000000D+00  -5  7  0 0.00000000D+00 0.00000000D+00 0.00000000D+00 0.00000000D+00 0.00000000D+00
  <mgrwgt>
 0.4863980838D-03    7    2    0
 0.249348412140068D+03 0.000000000000000D+00 0.000000000000000D+00 0.249348412140068D+03
 0.249348412140068D+03 0.000000000000000D+00 0.000000000000000D+00 -.249348412140068D+03
 0.124333501961674D+03 0.721882355152353D+02 0.597047066005827D+02 -.146904873512878D+02
 0.126342546898545D+03 0.442505719576915D+02 -.634984913375239D+02 -.998612419113972D+02
 0.460126105975903D+02 0.131945897928777D+02 0.423805544475362D+02 -.121223652363136D+02
 0.202008164822326D+03 -.129633397265804D+03 -.385867697105949D+02 0.126674094498998D+03
 0.000000000000000D+00 0.000000000000000D+00 0.000000000000000D+00 0.000000000000000D+00
 0.818048516975229D+03 0.000000000000000D+00 0.000000000000000D+00 0.818048516975229D+03
 0.287057295196326D+03 0.000000000000000D+00 0.000000000000000D+00 -.287057295196326D+03
 0.966949929106784D+02 0.357968702970139D+02 0.372220278591325D+02 -.146904873512878D+02
 0.134457374803050D+03 0.131101701475349D+01 -.900266584808534D+02 -.998612419113972D+02
 0.361223278506144D+02 -.328564965837611D+00 0.340259147634257D+02 -.121223652363136D+02
 0.270232974720070D+03 -.207385814618514D+03 -.866224125129390D+02 0.126674094498998D+03
 0.567598141887143D+03 0.170606492272584D+03 0.105401128371234D+03 0.530991221778903D+03
0.252396550214D-05 0.000000000000D+00 0.000000000000D+00 0.260828881985D-08 0.000000000000D+00  7 2 -2 24 -11 11 -24 21 0 0.15371728D+00 0.95733475D-02 0.40522094D+05 0.40522094D+05 0.40522094D+05 0.11554118D+01  1  2  2  1  7  1        2 0.517881859231D-03 0.100000000000D+01
-.132409025194D-06 0.000000000000D+00 -.969269210359D-08 0.260828881985D-08 0.000000000000D+00  7 2 -2 24 -11 11 -24 21 2 0.15371728D+00 0.95733475D-02 0.40522094D+05 0.40522094D+05 0.40522094D+05 0.11554118D+01  1  2  3  1  7  1        2 -.362692395380D-04 0.100000000000D+01
0.154419373691D-06 0.000000000000D+00 0.000000000000D+00 0.260828881985D-08 0.000000000000D+00  7 2 -2 24 -11 11 -24 21 2 0.15371728D+00 0.95733475D-02 0.40522094D+05 0.40522094D+05 0.40522094D+05 0.11554118D+01  1  2 15  1  7  1        2 0.422982741964D-04 0.100000000000D+01
0.776531285480D-10 0.000000000000D+00 0.000000000000D+00 0.260828881985D-08 0.000000000000D+00  7 2 -2 24 -11 11 -24 21 2 0.48572349D+00 0.95733475D-02 0.10853049D+06 0.10853049D+06 0.10853049D+06 0.11188162D+01  1  2 12  1  7  1        2 0.119344985251D-08 0.100000000000D+01
-.293092189811D-05 0.000000000000D+00 -.795322397570D-06 0.260828881985D-08 0.000000000000D+00  7 2 -2 24 -11 11 -24 21 2 0.51657504D+00 0.95733475D-02 0.40522094D+05 0.40522094D+05 0.40522094D+05 0.11554118D+01  1  2  5  1  7  1        2 -.372804931012D-04 0.100000000000D+01
0.102649596113D-10 0.000000000000D+00 0.000000000000D+00 0.260828881985D-08 0.000000000000D+00  7 21 -2 24 -11 11 -24 -2 2 0.48572349D+00 0.95733475D-02 0.10853049D+06 0.10853049D+06 0.10853049D+06 0.11188162D+01  1  2 12  3  7  1        2 0.922314973438D-11 0.100000000000D+01
-.383055920968D-06 0.000000000000D+00 -.112000478125D-06 0.260828881985D-08 0.000000000000D+00  7 21 -2 24 -11 11 -24 -2 2 0.51657504D+00 0.95733475D-02 0.40522094D+05 0.40522094D+05 0.40522094D+05 0.11554118D+01  1  2  5  3  7  1        2 -.233519626190D-06 0.100000000000D+01
  </mgrwgt>
  </event>
  <event>
  9     66 -.26993063E-05 0.20460701E+03 0.75467711E-02 0.10540372E+00
        2 -1    0    0  501    0 0.00000000E+00 0.00000000E+00 0.23058903E+03 0.23058925E+03 0.32000000E+00 0.0000E+00 0.9000E+01
       -2 -1    0    0    0  502 0.00000000E+00 0.00000000E+00 -.32227086E+03 0.32227102E+03 0.32000000E+00 0.0000E+00 0.9000E+01
       25  2    1    2    0    0 0.10106832E+03 0.13969986E+03 -.54524146E+02 0.35030722E+03 0.30001901E+03 0.0000E+00 0.0000E+00
       23  2    1    2    0    0 -.90870813E+02 -.12707924E+03 -.33400107E+02 0.18588119E+03 0.95024258E+02 0.0000E+00 0.0000E+00
       24  1    3    3    0    0 0.81223778E+01 0.91762614E+02 0.92086020E+02 0.15307972E+03 0.80419002E+02 0.0000E+00 0.9000E+01
      -11  1    4    4    0    0 -.75676413E+02 -.10939285E+03 -.63834332E+02 0.14754165E+03 0.51099893E-03 0.0000E+00 0.9000E+01
       11  1    4    4    0    0 -.15194400E+02 -.17686390E+02 0.30434225E+02 0.38339539E+02 0.51099893E-03 0.0000E+00 0.9000E+01
      -24  1    3    3    0    0 0.92945942E+02 0.47937248E+02 -.14661017E+03 0.19722749E+03 0.80419002E+02 0.0000E+00 0.9000E+01
       21  1    1    2  501  502 -.10197507E+02 -.12620620E+02 -.37575740E+01 0.16671864E+02 0.75000000E+00 0.0000E+00 0.9000E+01
#aMCatNLO 2  0  0  2  1 0.16225572D+02 0.00000000D+00  -5  7  0 0.00000000D+00 0.00000000D+00 0.00000000D+00 0.00000000D+00 0.00000000D+00
  <mgrwgt>
 -.2438562024D-03    3    2    0
 0.264340717134327D+03 0.000000000000000D+00 0.000000000000000D+00 0.264340717134327D+03
 0.264340717134327D+03 0.000000000000000D+00 0.000000000000000D+00 -.264340717134327D+03
 0.168220844035120D+03 0.485654467668563D+01 0.877207592570760D+02 0.118796122759470D+03
 0.143091557994740D+03 -.783959098852816D+02 -.112758550742975D+03 -.401843815053154D+02
 0.446606955952900D+02 -.160485417005927D+02 -.187434911876789D+02 0.372250396700513D+02
 0.172708336643505D+03 0.895879069091887D+02 0.437812826735778D+02 -.115836780924206D+03
 0.000000000000000D+00 -.000000000000000D+00 -.000000000000000D+00 -.000000000000000D+00
 0.272075675781853D+03 0.000000000000000D+00 0.000000000000000D+00 0.272075675781853D+03
 0.273113409754642D+03 0.000000000000000D+00 0.000000000000000D+00 -.273113409754642D+03
 0.170487785500402D+03 0.812237780096972D+01 0.917626135560439D+02 0.118796122759470D+03
 0.138955028909260D+03 -.756764129319105D+02 -.109392851996679D+03 -.401843815053154D+02
 0.439247282102373D+02 -.151943998625487D+02 -.176863897594535D+02 0.372250396700513D+02
 0.175562819649868D+03 0.929459420440341D+02 0.479372478528567D+02 -.115836780924206D+03
 0.162587232667271D+02 -.101975070505446D+02 -.126206196527677D+02 -.103773397278923D+01
-.110473878493D-04 0.000000000000D+00 0.000000000000D+00 0.131988717282D-06 0.000000000000D+00  7 2 -2 24 -11 11 -24 21 2 0.34465630D-01 0.50258958D-01 0.45533104D+05 0.45533104D+05 0.45533104D+05 0.11508876D+01  1  2 13  2  7  2       -2 -.101622676851D-02 0.100000000000D+01
-.405649439422D-05 0.000000000000D+00 0.000000000000D+00 0.131988717282D-06 0.000000000000D+00  7 2 -2 24 -11 11 -24 21 2 0.34465630D-01 0.47986072D-01 0.41864028D+05 0.41864028D+05 0.41864028D+05 0.11541420D+01  1  2  8  2  7  2       -2 -.410328991049D-03 0.100000000000D+01
0.129267301855D-04 0.000000000000D+00 0.000000000000D+00 0.131988717282D-06 0.354557852584D-08  7 2 -2 24 -11 11 -24 21 2 0.35474139D-01 0.49578589D-01 0.45533104D+05 0.45533104D+05 0.45533104D+05 0.11508876D+01  1  2  1  2  7  2       -2 0.118269955714D-02 0.100000000000D+01
  </mgrwgt>
  </event>
  <event>
  8     66 0.26993063E-05 0.50896213E+03 0.75467711E-02 0.89294528E-01
        2 -1    0    0  501    0 0.00000000E+00 0.00000000E+00 0.71634322E+03 0.71634329E+03 0.32000000E+00 0.0000E+00 0.9000E+01
       -2 -1    0    0    0  501 0.00000000E+00 0.00000000E+00 -.86698714E+03 0.86698720E+03 0.32000000E+00 0.0000E+00 0.9000E+01
       25  2    1    2    0    0 -.66298296E+03 0.26862683E+03 0.17042176E+03 0.79432187E+03 0.30032795E+03 0.0000E+00 0.0000E+00
       23  2    1    2    0    0 0.66298296E+03 -.26862683E+03 -.32106569E+03 0.78900862E+03 0.88003674E+02 0.0000E+00 0.0000E+00
       24  1    3    3    0    0 -.79352919E+02 0.19993562E+01 -.30711330E+02 0.11709520E+03 0.80419002E+02 0.0000E+00 0.9000E+01
      -11  1    4    4    0    0 0.99531936E+02 -.41083468E+02 -.15315050E+02 0.10876125E+03 0.51099893E-03 0.0000E+00 0.9000E+01
       11  1    4    4    0    0 0.56345103E+03 -.22754336E+03 -.30575064E+03 0.68024737E+03 0.51099893E-03 0.0000E+00 0.9000E+01
      -24  1    3    3    0    0 -.58363004E+03 0.26662747E+03 0.20113309E+03 0.67722668E+03 0.80419002E+02 0.0000E+00 0.9000E+01
#aMCatNLO 1  0  0  2  1 0.16292207D+03 0.00000000D+00  -5  7  0 0.00000000D+00 0.00000000D+00 0.00000000D+00 0.00000000D+00 0.00000000D+00
  <mgrwgt>
 0.9737008219D-03    7    2    0
 0.788073894316657D+03 0.000000000000000D+00 0.000000000000000D+00 0.788073894316657D+03
 0.788073894316657D+03 0.000000000000000D+00 0.000000000000000D+00 -.788073894316657D+03
 0.114693508054979D+03 -.793529193820529D+02 0.199935619740221D+01 -.196596438403234D+02
 0.107793113062609D+03 0.995319364003588D+02 -.410834684380989D+02 -.498973759018861D+01
 0.654124530637830D+03 0.563451025326549D+03 -.227543360381117D+03 -.242127781939807D+03
 0.699536636877897D+03 -.583630042344855D+03 0.266627472621814D+03 0.266777163370319D+03
 0.000000000000000D+00 -.000000000000000D+00 -.000000000000000D+00 -.000000000000000D+00
 0.798904808709366D+03 0.000000000000000D+00 0.000000000000000D+00 0.798904808709366D+03
 0.179287628934021D+04 0.000000000000000D+00 0.000000000000000D+00 -.179287628934021D+04
 0.109275263688609D+03 -.706749424834995D+02 0.961343897209656D+01 -.196596438403234D+02
 0.113300203209188D+03 0.108098499837282D+03 -.335671401664397D+02 -.498973759018861D+01
 0.685877097274772D+03 0.615371224203035D+03 -.181988423263221D+03 -.242127781939807D+03
 0.676093255243730D+03 -.530329377560847D+03 0.313393634638139D+03 0.266777163370319D+03
 0.100723527863328D+04 -.122465403995970D+03 -.107451510180575D+03 -.993971480630847D+03
0.501931649672D-03 0.000000000000D+00 0.000000000000D+00 0.157017689541D-05 0.000000000000D+00  7 2 -2 24 -11 11 -24 21 0 0.11020666D+00 0.13338265D+00 0.54390996D+06 0.54390996D+06 0.54390996D+06 0.10659363D+01  1  2  2  2  7  2       -2 0.972316361281D-03 0.100000000000D+01
-.277359587200D-04 0.000000000000D+00 -.192754969638D-05 0.157017689541D-05 0.000000000000D+00  7 2 -2 24 -11 11 -24 21 2 0.11020666D+00 0.13338265D+00 0.54390996D+06 0.54390996D+06 0.54390996D+06 0.10659363D+01  1  2  3  2  7  2       -2 -.610476141848D-04 0.100000000000D+01
0.317029453098D-04 0.000000000000D+00 0.000000000000D+00 0.157017689541D-05 0.000000000000D+00  7 2 -2 24 -11 11 -24 21 2 0.11020666D+00 0.13338265D+00 0.54390996D+06 0.54390996D+06 0.54390996D+06 0.10659363D+01  1  2 15  2  7  2       -2 0.697790616625D-04 0.100000000000D+01
0.449230129355D-02 0.000000000000D+00 0.000000000000D+00 0.157017689541D-05 0.000000000000D+00  7 2 -2 24 -11 11 -24 21 2 0.11020666D+00 0.30311010D+00 0.67778709D+06 0.67778709D+06 0.67778709D+06 0.10592961D+01  1  2 12  2  7  2       -2 0.631052654081D-03 0.100000000000D+01
-.449669560884D-02 0.000000000000D+00 -.134821147292D-03 0.157017689541D-05 0.000000000000D+00  7 2 -2 24 -11 11 -24 21 2 0.11020666D+00 0.30438408D+00 0.54390996D+06 0.54390996D+06 0.54390996D+06 0.10659363D+01  1  2  5  2  7  2       -2 -.637606577841D-03 0.100000000000D+01
0.400818379889D-03 0.000000000000D+00 0.000000000000D+00 0.157017689541D-05 0.000000000000D+00  7 2 21 24 -11 11 -24 2 2 0.11020666D+00 0.30311010D+00 0.67778709D+06 0.67778709D+06 0.67778709D+06 0.10592961D+01  1  2 12  4  7  2       -2 0.393404194763D-03 0.100000000000D+01
-.394903504888D-03 0.000000000000D+00 -.120958301971D-04 0.157017689541D-05 0.000000000000D+00  7 2 21 24 -11 11 -24 2 2 0.11020666D+00 0.30438408D+00 0.54390996D+06 0.54390996D+06 0.54390996D+06 0.10659363D+01  1  2  5  4  7  2       -2 -.394197257898D-03 0.100000000000D+01
  </mgrwgt>
  </event>
  <event>
  8     66 0.26993063E-05 0.52370015E+03 0.75467711E-02 0.86884448E-01
        2 -1    0    0  501    0 0.00000000E+00 0.00000000E+00 0.11749062E+04 0.11749062E+04 0.32000000E+00 0.0000E+00 0.9000E+01
       -2 -1    0    0    0  501 0.00000000E+00 0.00000000E+00 -.80311013E+03 0.80311020E+03 0.32000000E+00 0.0000E+00 0.9000E+01
       25  2    1    2    0    0 -.44895412E+03 -.81514775E+03 0.21504337E+02 0.97940714E+03 0.30454928E+03 0.0000E+00 0.0000E+00
       23  2    1    2    0    0 0.44895412E+03 0.81514775E+03 0.35029173E+03 0.99860930E+03 0.92144389E+02 0.0000E+00 0.0000E+00
       24  1    3    3    0    0 -.16680332E+03 -.56177885E+03 0.10832708E+02 0.59161084E+03 0.80419002E+02 0.0000E+00 0.9000E+01
      -13  1    4    4    0    0 0.41978875E+03 0.78805752E+03 0.31968312E+03 0.94839578E+03 0.10565837E+00 0.0000E+00 0.9000E+01
       13  1    4    4    0    0 0.29165374E+02 0.27090223E+02 0.30608610E+02 0.50213518E+02 0.10565837E+00 0.0000E+00 0.9000E+01
      -24  1    3    3    0    0 -.28215080E+03 -.25336890E+03 0.10671629E+02 0.38779630E+03 0.80419002E+02 0.0000E+00 0.9000E+01
#aMCatNLO 1  0  0  2  1 0.18533449D+03 0.00000000D+00  -5  7  0 0.00000000D+00 0.00000000D+00 0.00000000D+00 0.00000000D+00 0.00000000D+00
  <mgrwgt>
 0.1703658729D-02    9    2    0
 0.971380040982497D+03 0.000000000000000D+00 0.000000000000000D+00 0.971380040982497D+03
 0.971380040982497D+03 0.000000000000000D+00 0.000000000000000D+00 -.971380040982497D+03
 0.600274024656670D+03 -.166803321162750D+03 -.561778849167115D+03 -.102190339077109D+03
 0.904428569497786D+03 0.419789259082264D+03 0.788058524736056D+03 0.143985335620707D+03
 0.452659133443144D+02 0.291648608207115D+02 0.270892223990118D+02 0.215542996643449D+02
 0.392791574466223D+03 -.282150798740225D+03 -.253368897967953D+03 -.633492962079422D+02
 0.000000000000000D+00 0.000000000000000D+00 0.000000000000000D+00 -.000000000000000D+00
 0.101498441671159D+04 0.000000000000000D+00 0.000000000000000D+00 0.101498441671159D+04
 0.119488383679871D+04 0.000000000000000D+00 0.000000000000000D+00 -.119488383679871D+04
 0.657763724349853D+03 -.195030613559527D+03 -.614577981618378D+03 -.102190339077109D+03
 0.823354956529261D+03 0.381022019525252D+03 0.715544427834073D+03 0.143985335620707D+03
 0.418806746105158D+02 0.272095043764990D+02 0.234317294154060D+02 0.215542996643449D+02
 0.428580929647357D+03 -.300580390267662D+03 -.287841437182905D+03 -.633492962079422D+02
 0.258287968373315D+03 0.873794799254383D+02 0.163443261551803D+03 -.179899420087124D+03
0.990540302447D-03 0.000000000000D+00 0.000000000000D+00 0.220029279616D-06 0.000000000000D+00  7 2 -2 24 -13 13 -24 21 0 0.18075481D+00 0.12355541D+00 0.91380175D+06 0.91380175D+06 0.91380175D+06 0.10504799D+01  1  2  2  2  7  2       -2 0.114503336586D-02 0.100000000000D+01
-.550128168117D-04 0.000000000000D+00 -.380393557665D-05 0.220029279616D-06 0.000000000000D+00  7 2 -2 24 -13 13 -24 21 2 0.18075481D+00 0.12355541D+00 0.91380175D+06 0.91380175D+06 0.91380175D+06 0.10504799D+01  1  2  3  2  7  2       -2 -.701754750744D-04 0.100000000000D+01
0.627138301509D-04 0.000000000000D+00 0.000000000000D+00 0.220029279616D-06 0.000000000000D+00  7 2 -2 24 -13 13 -24 21 2 0.18075481D+00 0.12355541D+00 0.91380175D+06 0.91380175D+06 0.91380175D+06 0.10504799D+01  1  2 15  2  7  2       -2 0.799990453067D-04 0.100000000000D+01
0.167616883876D-02 0.000000000000D+00 0.000000000000D+00 0.220029279616D-06 0.000000000000D+00  7 2 -2 24 -13 13 -24 21 2 0.18075481D+00 0.15430372D+00 0.11083461D+07 0.11083461D+07 0.11083461D+07 0.10449029D+01  1  2 12  2  7  2       -2 0.114567966131D-02 0.100000000000D+01
-.170816767771D-02 0.000000000000D+00 0.000000000000D+00 0.220029279616D-06 0.000000000000D+00  7 2 -2 24 -13 13 -24 21 2 0.18075481D+00 0.12355541D+00 0.91380175D+06 0.91380175D+06 0.91380175D+06 0.10504799D+01  1  2  4  2  7  2       -2 -.217897365081D-02 0.100000000000D+01
-.279016591604D-02 0.000000000000D+00 -.552831765784D-03 0.220029279616D-06 0.000000000000D+00  7 2 -2 24 -13 13 -24 21 2 0.18075481D+00 0.15569803D+00 0.91380175D+06 0.91380175D+06 0.91380175D+06 0.10504799D+01  1  2  5  2  7  2       -2 -.190007016703D-02 0.100000000000D+01
0.285576826468D-02 0.000000000000D+00 0.538374955061D-03 0.220029279616D-06 0.000000000000D+00  7 2 -2 24 -13 13 -24 21 2 0.18075481D+00 0.12355541D+00 0.91380175D+06 0.91380175D+06 0.91380175D+06 0.10504799D+01  1  2  6  2  7  2       -2 0.364287644754D-02 0.100000000000D+01
0.519647553687D-04 0.000000000000D+00 0.000000000000D+00 0.220029279616D-06 0.000000000000D+00  7 2 21 24 -13 13 -24 2 2 0.18075481D+00 0.15430372D+00 0.11083461D+07 0.11083461D+07 0.11083461D+07 0.10449029D+01  1  2 12  4  7  2       -2 0.287773468769D-03 0.100000000000D+01
-.809702081752D-04 0.000000000000D+00 -.176564208504D-04 0.220029279616D-06 0.000000000000D+00  7 2 21 24 -13 13 -24 2 2 0.18075481D+00 0.15569803D+00 0.91380175D+06 0.91380175D+06 0.91380175D+06 0.10504799D+01  1  2  5  4  7  2       -2 -.448483966498D-03 0.100000000000D+01
  </mgrwgt>
  </event>
  <event>
  8     66 0.26993063E-05 0.38594143E+03 0.75467711E-02 0.90878266E-01
        2 -1    0    0  501    0 0.00000000E+00 0.00000000E+00 0.64434194E+03 0.64434201E+03 0.32000000E+00 0.0000E+00 0.9000E+01
       -2 -1    0    0    0  501 0.00000000E+00 0.00000000E+00 -.79311000E+03 0.79311006E+03 0.32000000E+00 0.0000E+00 0.9000E+01
       25  2    1    2    0    0 0.61662071E+02 -.65285005E+03 0.10439133E+03 0.72876161E+03 0.30030074E+03 0.0000E+00 0.0000E+00
       23  2    1    2    0    0 -.61662071E+02 0.65285005E+03 -.25315940E+03 0.70869047E+03 0.90205892E+02 0.0000E+00 0.0000E+00
       24  1    3    3    0    0 0.97726360E+02 -.47532416E+03 0.16929793E+03 0.52020429E+03 0.80419002E+02 0.0000E+00 0.9000E+01
      -11  1    4    4    0    0 -.54093760E+02 0.40226620E+03 -.19970697E+03 0.45235728E+03 0.51099893E-03 0.0000E+00 0.9000E+01
       11  1    4    4    0    0 -.75683109E+01 0.25058385E+03 -.53452430E+02 0.25633319E+03 0.51099893E-03 0.0000E+00 0.9000E+01
      -24  1    3    3    0    0 -.36064289E+02 -.17752589E+03 -.64906593E+02 0.20855732E+03 0.80419002E+02 0.0000E+00 0.9000E+01
#aMCatNLO 1  0  0  1  2 0.62106009D+02 0.00000000D+00  -5  7  0 0.00000000D+00 0.00000000D+00 0.00000000D+00 0.00000000D+00 0.00000000D+00
  <mgrwgt>
 0.7225727943D-03    9    2    0
 0.714866516222684D+03 0.000000000000000D+00 0.000000000000000D+00 0.714866516222684D+03
 0.714866516222684D+03 0.000000000000000D+00 0.000000000000000D+00 -.714866516222684D+03
 0.540628808872196D+03 0.977263600602275D+02 -.475324162916585D+03 0.224340793716223D+03
 0.434019412364347D+03 -.540937603637730D+02 0.402266203514788D+03 -.153716026843656D+03
 0.252155232314193D+03 -.756831089117624D+01 0.250583845396490D+03 -.270687694583047D+02
 0.202929578894633D+03 -.360642888052782D+02 -.177525885994693D+03 -.435559974142626D+02
 0.000000000000000D+00 -.000000000000000D+00 0.000000000000000D+00 0.000000000000000D+00
 0.835245626697512D+03 0.000000000000000D+00 0.000000000000000D+00 0.835245626697512D+03
 0.723596199567810D+03 0.000000000000000D+00 0.000000000000000D+00 -.723596199567810D+03
 0.562162065010223D+03 0.104243126291546D+03 -.498360863509492D+03 0.224340793716223D+03
 0.416974916628842D+03 -.490649455290052D+02 0.384489395574528D+03 -.153716026843656D+03
 0.241829474702146D+03 -.464918729874146D+01 0.240264773972778D+03 -.270687694583047D+02
 0.210114848261225D+03 -.336234688468690D+02 -.186154159065597D+03 -.435559974142626D+02
 0.127760521662885D+03 -.169055246169305D+02 0.597608530277823D+02 0.111649427129703D+03
0.188969441404D-03 0.000000000000D+00 0.000000000000D+00 0.625046237264D-05 0.000000000000D+00  7 2 -2 24 -11 11 -24 21 0 0.99129540D-01 0.12201693D+00 0.45338007D+06 0.45338007D+06 0.45338007D+06 0.10715276D+01  1  2  2  1  7  1        2 0.530453109813D-03 0.100000000000D+01
-.104525756250D-04 0.000000000000D+00 -.725692411788D-06 0.625046237264D-05 0.000000000000D+00  7 2 -2 24 -11 11 -24 21 2 0.99129540D-01 0.12201693D+00 0.45338007D+06 0.45338007D+06 0.45338007D+06 0.10715276D+01  1  2  3  1  7  1        2 -.336887958491D-04 0.100000000000D+01
0.118061894592D-04 0.000000000000D+00 0.000000000000D+00 0.625046237264D-05 0.000000000000D+00  7 2 -2 24 -11 11 -24 21 2 0.99129540D-01 0.12201693D+00 0.45338007D+06 0.45338007D+06 0.45338007D+06 0.10715276D+01  1  2 15  1  7  1        2 0.380515119636D-04 0.100000000000D+01
0.118172489582D-02 0.000000000000D+00 0.000000000000D+00 0.625046237264D-05 0.000000000000D+00  7 2 -2 24 -11 11 -24 21 2 0.11636216D+00 0.12201693D+00 0.49775306D+06 0.49775306D+06 0.49775306D+06 0.10686487D+01  1  2 12  1  7  1        2 0.309659193339D-02 0.100000000000D+01
-.119328813366D-02 0.000000000000D+00 0.000000000000D+00 0.625046237264D-05 0.000000000000D+00  7 2 -2 24 -11 11 -24 21 2 0.99129540D-01 0.12201693D+00 0.45338007D+06 0.45338007D+06 0.45338007D+06 0.10715276D+01  1  2  4  1  7  1        2 -.384598416374D-02 0.100000000000D+01
-.161140068470D-02 0.000000000000D+00 -.165215234892D-03 0.625046237264D-05 0.000000000000D+00  7 2 -2 24 -11 11 -24 21 2 0.11652295D+00 0.12201693D+00 0.45338007D+06 0.45338007D+06 0.45338007D+06 0.10715276D+01  1  2  5  1  7  1        2 -.425466064782D-02 0.100000000000D+01
0.161904281619D-02 0.000000000000D+00 0.163079611818D-03 0.625046237264D-05 0.000000000000D+00  7 2 -2 24 -11 11 -24 21 2 0.99129540D-01 0.12201693D+00 0.45338007D+06 0.45338007D+06 0.45338007D+06 0.10715276D+01  1  2  6  1  7  1        2 0.521819739577D-02 0.100000000000D+01
0.284330765371D-04 0.000000000000D+00 0.000000000000D+00 0.625046237264D-05 0.000000000000D+00  7 21 -2 24 -11 11 -24 -2 2 0.11636216D+00 0.12201693D+00 0.49775306D+06 0.49775306D+06 0.49775306D+06 0.10686487D+01  1  2 12  3  7  1        2 0.777734333785D-04 0.100000000000D+01
-.377271576411D-04 0.000000000000D+00 -.400253045260D-05 0.625046237264D-05 0.000000000000D+00  7 21 -2 24 -11 11 -24 -2 2 0.11652295D+00 0.12201693D+00 0.45338007D+06 0.45338007D+06 0.45338007D+06 0.10715276D+01  1  2  5  3  7  1        2 -.104160982579D-03 0.100000000000D+01
  </mgrwgt>
  </event>
  <event>
  8     66 0.26993063E-05 0.22002486E+03 0.75467711E-02 0.10356214E+00
        2 -1    0    0  501    0 0.00000000E+00 0.00000000E+00 0.10960114E+04 0.10960114E+04 0.32000000E+00 0.0000E+00 0.9000E+01
       -2 -1    0    0    0  501 0.00000000E+00 0.00000000E+00 -.68725935E+02 0.68726680E+02 0.32000000E+00 0.0000E+00 0.9000E+01
       25  2    1    2    0    0 0.53197101E+01 -.12169658E+03 0.93413010E+03 0.98832517E+03 0.29891344E+03 0.0000E+00 0.0000E+00
       23  2    1    2    0    0 -.53197101E+01 0.12169658E+03 0.93155356E+02 0.17641295E+03 0.87208087E+02 0.0000E+00 0.0000E+00
       24  1    3    3    0    0 -.34546003E+02 0.66274742E+02 0.40653860E+03 0.42110167E+03 0.80419002E+02 0.0000E+00 0.9000E+01
      -13  1    4    4    0    0 -.34983779E+01 0.24548898E+02 -.16590144E+02 0.29835065E+02 0.10565837E+00 0.0000E+00 0.9000E+01
       13  1    4    4    0    0 -.18213321E+01 0.97147681E+02 0.10974550E+03 0.14657788E+03 0.10565837E+00 0.0000E+00 0.9000E+01
      -24  1    3    3    0    0 0.39865713E+02 -.18797132E+03 0.52759150E+03 0.56722350E+03 0.80419002E+02 0.0000E+00 0.9000E+01
#aMCatNLO 1  0  0  2  1 0.50123056D+02 0.00000000D+00  -5  7  0 0.00000000D+00 0.00000000D+00 0.00000000D+00 0.00000000D+00 0.00000000D+00
  <mgrwgt>
 0.1057453648D-02    4    2    0
 0.274453763655078D+03 0.000000000000000D+00 0.000000000000000D+00 0.274453763655078D+03
 0.274453763655078D+03 0.000000000000000D+00 0.000000000000000D+00 -.274453763655078D+03
 0.132703547153106D+03 -.345460030516950D+02 0.662747409792974D+02 0.745469506681895D+02
 0.943562246580988D+02 -.349838037197951D+01 0.245487927037189D+02 -.910396355621682D+02
 0.105636915865176D+03 -.182132972686049D+01 0.971477877153476D+02 -.414505499788142D+02
 0.216210839633775D+03 0.398657131505350D+02 -.187971321398364D+03 0.579432348727929D+02
 0.000000000000000D+00 0.000000000000000D+00 0.000000000000000D+00 0.000000000000000D+00
 0.431139779832525D+03 0.000000000000000D+00 0.000000000000000D+00 0.431139779832525D+03
 0.279633579423809D+03 0.000000000000000D+00 0.000000000000000D+00 -.279633579423809D+03
 0.129843362943797D+03 -.409679001692014D+02 0.561824371844534D+02 0.745469506681895D+02
 0.930290519665942D+02 -.808182402163093D+01 0.173457022629314D+02 -.910396355621682D+02
 0.986814426210894D+02 -.681895653927394D+01 0.892937895709925D+02 -.414505499788142D+02
 0.229637392675056D+03 0.289602659035930D+02 -.205109728417491D+03 0.579432348727929D+02
 0.159582109049797D+03 0.269084148265133D+02 0.422877993991139D+02 0.151506200408716D+03
0.700260103767D-05 0.000000000000D+00 0.000000000000D+00 0.213650725433D-07 0.000000000000D+00  7 2 -2 24 -13 13 -24 21 0 0.16861720D+00 0.10573282D-01 0.48410938D+05 0.48410938D+05 0.48410938D+05 0.11485312D+01  1  2  2  2  7  2       -2 0.108349299040D-02 0.100000000000D+01
-.365922373923D-06 0.000000000000D+00 -.268918318119D-07 0.213650725433D-07 0.000000000000D+00  7 2 -2 24 -13 13 -24 21 2 0.16861720D+00 0.10573282D-01 0.48410938D+05 0.48410938D+05 0.48410938D+05 0.11485312D+01  1  2  3  2  7  2       -2 -.746863578482D-04 0.100000000000D+01
0.456264708778D-06 0.000000000000D+00 0.000000000000D+00 0.213650725433D-07 0.000000000000D+00  7 2 -2 24 -13 13 -24 21 2 0.16861720D+00 0.10573282D-01 0.48410938D+05 0.48410938D+05 0.48410938D+05 0.11485312D+01  1  2 15  2  7  2       -2 0.931256237435D-04 0.100000000000D+01
-.217920895787D-06 0.000000000000D+00 0.000000000000D+00 0.213650725433D-07 0.000000000000D+00  7 2 -2 24 -13 13 -24 21 2 0.16861720D+00 0.10573282D-01 0.48410938D+05 0.48410938D+05 0.48410938D+05 0.11485312D+01  1  2  4  2  7  2       -2 -.444786084842D-04 0.100000000000D+01
  </mgrwgt>
  </event>
  <event>
  8     66 0.26993063E-05 0.41848321E+03 0.75467711E-02 0.86668771E-01
        2 -1    0    0  501    0 0.00000000E+00 0.00000000E+00 0.22425663E+04 0.22425663E+04 0.32000000E+00 0.0000E+00 0.9000E+01
       -2 -1    0    0    0  501 0.00000000E+00 0.00000000E+00 -.93211764E+02 0.93212313E+02 0.32000000E+00 0.0000E+00 0.9000E+01
       25  2    1    2    0    0 0.13919822E+03 0.35964220E+03 0.14746651E+04 0.15533904E+04 0.29944260E+03 0.0000E+00 0.0000E+00
       23  2    1    2    0    0 -.13919822E+03 -.35964220E+03 0.67468940E+03 0.78238823E+03 0.90591884E+02 0.0000E+00 0.0000E+00
       24  1    3    3    0    0 -.17871274E+02 0.12891527E+03 0.86056709E+03 0.87406033E+03 0.80419002E+02 0.0000E+00 0.9000E+01
      -13  1    4    4    0    0 -.67827900E+02 -.27277056E+03 0.52074021E+03 0.59175567E+03 0.10565837E+00 0.0000E+00 0.9000E+01
       13  1    4    4    0    0 -.71370316E+02 -.86871636E+02 0.15394920E+03 0.19063255E+03 0.10565837E+00 0.0000E+00 0.9000E+01
      -24  1    3    3    0    0 0.15706949E+03 0.23072692E+03 0.61409804E+03 0.67933008E+03 0.80419002E+02 0.0000E+00 0.9000E+01
#aMCatNLO 1  0  0  2  1 0.93153778D+03 0.00000000D+00  -5  7  0 0.00000000D+00 0.00000000D+00 0.00000000D+00 0.00000000D+00 0.00000000D+00
  <mgrwgt>
 0.7473944112D-03    5    2    0
 0.457202612688110D+03 0.000000000000000D+00 0.000000000000000D+00 0.457202612688110D+03
 0.457202612688110D+03 0.000000000000000D+00 0.000000000000000D+00 -.457202612688110D+03
 0.209915324698049D+03 -.178712742791257D+02 0.128915273377777D+03 0.143731337690463D+03
 0.287569589078404D+03 -.678278952545510D+02 -.272770812409754D+03 -.607596007671454D+02
 0.125090967089044D+03 -.713703208328917D+02 -.868713833815157D+02 -.548396763380692D+02
 0.291829344510722D+03 0.157069490366568D+03 0.230726922413492D+03 -.281320605852488D+02
 0.000000000000000D+00 0.000000000000000D+00 0.000000000000000D+00 -.000000000000000D+00
 0.786088686717486D+03 0.000000000000000D+00 0.000000000000000D+00 0.786088686717486D+03
 0.227865133562463D+04 0.000000000000000D+00 0.000000000000000D+00 -.227865133562463D+04
 0.179070332297883D+03 -.646983513505975D+02 -.274662311416807D+02 0.143731337690463D+03
 0.696536946499170D+03 -.186297128654877D+03 -.668405093194204D+03 -.607596007671454D+02
 0.284206681929897D+03 -.120642606869862D+03 -.251418792774887D+03 -.548396763380692D+02
 0.145521076095143D+03 0.104420140745007D+03 0.549016302812474D+02 -.281320605852488D+02
 0.175940498552002D+04 0.267217946130329D+03 0.892388486829524D+03 -.149256264890714D+04
0.324294473572D-04 0.000000000000D+00 0.000000000000D+00 0.928657888400D-06 0.000000000000D+00  7 2 -2 24 -13 13 -24 21 0 0.34501024D+00 0.14340315D-01 0.17512819D+06 0.17512819D+06 0.17512819D+06 0.11022826D+01  1  2  2  2  7  2       -2 0.723025864474D-03 0.100000000000D+01
-.178448313259D-05 0.000000000000D+00 -.124537616721D-06 0.928657888400D-06 0.000000000000D+00  7 2 -2 24 -13 13 -24 21 2 0.34501024D+00 0.14340315D-01 0.17512819D+06 0.17512819D+06 0.17512819D+06 0.11022826D+01  1  2  3  2  7  2       -2 -.483406626960D-04 0.100000000000D+01
0.210010029624D-05 0.000000000000D+00 0.000000000000D+00 0.928657888400D-06 0.000000000000D+00  7 2 -2 24 -13 13 -24 21 2 0.34501024D+00 0.14340315D-01 0.17512819D+06 0.17512819D+06 0.17512819D+06 0.11022826D+01  1  2 15  2  7  2       -2 0.568905573799D-04 0.100000000000D+01
0.262851869730D-04 0.000000000000D+00 -.228206826682D-04 0.928657888400D-06 0.000000000000D+00  7 2 -2 24 -13 13 -24 21 2 0.34501024D+00 0.14239044D+00 0.17512819D+06 0.17512819D+06 0.17512819D+06 0.11022826D+01  1  2  5  2  7  2       -2 0.721632263338D-05 0.100000000000D+01
0.357110087171D-05 0.000000000000D+00 -.623860656459D-05 0.928657888400D-06 0.000000000000D+00  7 2 21 24 -13 13 -24 2 2 0.34501024D+00 0.14239044D+00 0.17512819D+06 0.17512819D+06 0.17512819D+06 0.11022826D+01  1  2  5  4  7  2       -2 0.860232940146D-05 0.100000000000D+01
  </mgrwgt>
  </event>
  <event>
  8     66 0.26993063E-05 0.50249637E+03 0.75467711E-02 0.93959238E-01
        2 -1    0    0  501    0 0.00000000E+00 0.00000000E+00 0.27486150E+03 0.27486169E+03 0.32000000E+00 0.0000E+00 0.9000E+01
       -2 -1    0    0    0  501 0.00000000E+00 0.00000000E+00 -.23581276E+04 0.23581276E+04 0.32000000E+00 0.0000E+00 0.9000E+01
       25  2    1    2    0    0 0.13373027E+03 0.45912861E+03 -.78781284E+02 0.57021292E+03 0.30042208E+03 0.0000E+00 0.0000E+00
       23  2    1    2    0    0 -.13373027E+03 -.45912861E+03 -.20044848E+04 0.20627764E+04 0.91674331E+02 0.0000E+00 0.0000E+00
       24  1    3    3    0    0 0.73200035E+02 0.38835562E+03 -.14733056E+03 0.42936213E+03 0.80419002E+02 0.0000E+00 0.9000E+01
      -13  1    4    4    0    0 -.36745124E+01 -.46102248E+01 -.11130658E+03 0.11146265E+03 0.10565837E+00 0.0000E+00 0.9000E+01
       13  1    4    4    0    0 -.13005576E+03 -.45451838E+03 -.18931783E+04 0.19513138E+04 0.10565837E+00 0.0000E+00 0.9000E+01
      -24  1    3    3    0    0 0.60530233E+02 0.70772992E+02 0.68549280E+02 0.14085079E+03 0.80419002E+02 0.0000E+00 0.9000E+01
#aMCatNLO 1  0  0  2  1 0.52837975D+02 0.00000000D+00  -5  7  0 0.00000000D+00 0.00000000D+00 0.00000000D+00 0.00000000D+00 0.00000000D+00
  <mgrwgt>
 0.8627691025D-03    4    2    0
 0.805083082389867D+03 0.000000000000000D+00 0.000000000000000D+00 0.805083082389867D+03
 0.805083082389867D+03 0.000000000000000D+00 0.000000000000000D+00 -.805083082389867D+03
 0.511485806107084D+03 0.732000352076181D+02 0.388355615259356D+03 0.314598450149986D+03
 0.382552051504556D+02 -.367434450870403D+01 -.460962714068601D+01 -.377982969346325D+02
 0.741411481654893D+03 -.130055923970822D+03 -.454518979779394D+03 -.571129528907496D+03
 0.319013671867300D+03 0.605302332719081D+02 0.707729916607242D+02 0.294329375692142D+03
 0.000000000000000D+00 -.000000000000000D+00 0.000000000000000D+00 0.000000000000000D+00
 0.893059259852727D+03 0.000000000000000D+00 0.000000000000000D+00 0.893059259852727D+03
 0.813489255416959D+03 0.000000000000000D+00 0.000000000000000D+00 -.813489255416959D+03
 0.499169748837009D+03 0.741182178954570D+02 0.371803075752286D+03 0.314598450149986D+03
 0.384201526611008D+02 -.360468478558469D+01 -.586541788282934D+01 -.377982969346325D+02
 0.756466440253917D+03 -.128695098742420D+03 -.479051258217754D+03 -.571129528907496D+03
 0.316976534947582D+03 0.611080317064745D+02 0.603567296880729D+02 0.294329375692142D+03
 0.955156385700773D+02 -.292646607392706D+01 0.527568706602246D+02 0.795700044357679D+02
0.695764240337D-02 0.000000000000D+00 0.000000000000D+00 0.124643252688D-04 0.000000000000D+00  7 2 -2 24 -13 13 -24 21 0 0.42286401D-01 0.36278888D+00 0.25250260D+06 0.25250260D+06 0.25250260D+06 0.10901338D+01  1  2  2  2  7  2       -2 0.112217766707D-02 0.100000000000D+01
-.282118706903D-03 0.000000000000D+00 -.267191788182D-04 0.124643252688D-04 0.000000000000D+00  7 2 -2 24 -13 13 -24 21 2 0.42286401D-01 0.36278888D+00 0.25250260D+06 0.25250260D+06 0.25250260D+06 0.10901338D+01  1  2  3  2  7  2       -2 -.540743157160D-04 0.100000000000D+01
0.436782364489D-03 0.000000000000D+00 0.000000000000D+00 0.124643252688D-04 0.000000000000D+00  7 2 -2 24 -13 13 -24 21 2 0.42286401D-01 0.36278888D+00 0.25250260D+06 0.25250260D+06 0.25250260D+06 0.10901338D+01  1  2 15  2  7  2       -2 0.837190405975D-04 0.100000000000D+01
-.150806051199D-02 0.000000000000D+00 0.000000000000D+00 0.124643252688D-04 0.000000000000D+00  7 2 -2 24 -13 13 -24 21 2 0.42286401D-01 0.36278888D+00 0.25250260D+06 0.25250260D+06 0.25250260D+06 0.10901338D+01  1  2  4  2  7  2       -2 -.289053289445D-03 0.100000000000D+01
  </mgrwgt>
  </event>
  <event>
  8     66 0.26993063E-05 0.25258377E+03 0.75467711E-02 0.10124559E+00
        2 -1    0    0  501    0 0.00000000E+00 0.00000000E+00 0.16781987E+04 0.16781987E+04 0.32000000E+00 0.0000E+00 0.9000E+01
       -2 -1    0    0    0  501 0.00000000E+00 0.00000000E+00 -.50289164E+02 0.50290182E+02 0.32000000E+00 0.0000E+00 0.9000E+01
       25  2    1    2    0    0 -.29812962E+02 0.17821553E+03 0.76301827E+03 0.83937339E+03 0.29950161E+03 0.0000E+00 0.0000E+00
       23  2    1    2    0    0 0.29812962E+02 -.17821553E+03 0.86489128E+03 0.88911554E+03 0.99196418E+02 0.0000E+00 0.0000E+00
       24  1    3    3    0    0 0.45275574E+02 -.21298623E+02 0.39774706E+03 0.40886849E+03 0.80419002E+02 0.0000E+00 0.9000E+01
      -11  1    4    4    0    0 0.32407732E+02 -.11880738E+03 0.74692788E+03 0.75701170E+03 0.51099893E-03 0.0000E+00 0.9000E+01
       11  1    4    4    0    0 -.25947708E+01 -.59408149E+02 0.11796340E+03 0.13210384E+03 0.51099893E-03 0.0000E+00 0.9000E+01
      -24  1    3    3    0    0 -.75088535E+02 0.19951415E+03 0.36527121E+03 0.43050489E+03 0.80419002E+02 0.0000E+00 0.9000E+01
#aMCatNLO 1  0  0  2  1 0.69230314D+02 0.00000000D+00  -5  7  0 0.00000000D+00 0.00000000D+00 0.00000000D+00 0.00000000D+00 0.00000000D+00
  <mgrwgt>
 0.1149050907D-02    4    2    0
 0.290510096982823D+03 0.000000000000000D+00 0.000000000000000D+00 0.290510096982823D+03
 0.290510096982823D+03 0.000000000000000D+00 0.000000000000000D+00 -.290510096982823D+03
 0.101938682912760D+03 0.452755735935810D+02 -.212986224318505D+02 0.376931059730466D+02
 0.159297924683737D+03 0.324077323939536D+02 -.118807383710668D+03 0.101046391649843D+03
 0.624871230836629D+02 -.259477063517021D+01 -.594081489496477D+02 -.191984258469328D+02
 0.257296463285486D+03 -.750885353523643D+02 0.199514155092166D+03 -.119541071775957D+03
 0.000000000000000D+00 0.000000000000000D+00 0.000000000000000D+00 0.000000000000000D+00
 0.458313631663775D+03 0.000000000000000D+00 0.000000000000000D+00 0.458313631663775D+03
 0.299794156503314D+03 0.000000000000000D+00 0.000000000000000D+00 -.299794156503314D+03
 0.103256470666085D+03 0.412194280086797D+02 -.327852298571688D+02 0.376931059730466D+02
 0.172487463628938D+03 0.258492449517923D+02 -.137380378435615D+03 0.101046391649843D+03
 0.697068191585180D+02 -.520788242569935D+01 -.668082258620767D+02 -.191984258469328D+02
 0.239679404894593D+03 -.849123856644359D+02 0.171693972217098D+03 -.119541071775957D+03
 0.172977629818955D+03 0.230515951296633D+02 0.652798619377628D+02 0.158519475160461D+03
0.993560374807D-05 0.000000000000D+00 0.000000000000D+00 0.210500017080D-07 0.000000000000D+00  7 2 -2 24 -11 11 -24 21 0 0.25818450D+00 0.77368751D-02 0.63798561D+05 0.63798561D+05 0.63798561D+05 0.11381004D+01  1  2  2  2  7  2       -2 0.118983143427D-02 0.100000000000D+01
-.538843594109D-06 0.000000000000D+00 -.381553344972D-07 0.210500017080D-07 0.000000000000D+00  7 2 -2 24 -11 11 -24 21 2 0.25818450D+00 0.77368751D-02 0.63798561D+05 0.63798561D+05 0.63798561D+05 0.11381004D+01  1  2  3  2  7  2       -2 -.835824452583D-04 0.100000000000D+01
0.643100764882D-06 0.000000000000D+00 0.000000000000D+00 0.210500017080D-07 0.000000000000D+00  7 2 -2 24 -11 11 -24 21 2 0.25818450D+00 0.77368751D-02 0.63798561D+05 0.63798561D+05 0.63798561D+05 0.11381004D+01  1  2 15  2  7  2       -2 0.997542423515D-04 0.100000000000D+01
-.367163162722D-06 0.000000000000D+00 0.000000000000D+00 0.210500017080D-07 0.000000000000D+00  7 2 -2 24 -11 11 -24 21 2 0.25818450D+00 0.77368751D-02 0.63798561D+05 0.63798561D+05 0.63798561D+05 0.11381004D+01  1  2  4  2  7  2       -2 -.569523239853D-04 0.100000000000D+01
  </mgrwgt>
  </event>
  <event>
  9     66 0.26993063E-05 0.16859570E+03 0.75467711E-02 0.10508148E+00
       21 -1    0    0  501  502 0.00000000E+00 0.00000000E+00 0.65223631E+03 0.65223674E+03 0.75000000E+00 0.0000E+00 0.9000E+01
       -2 -1    0    0    0  501 0.00000000E+00 0.00000000E+00 -.43110446E+03 0.43110458E+03 0.32000000E+00 0.0000E+00 0.9000E+01
       25  2    1    2    0    0 -.10031504E+03 0.10711862E+02 0.39600402E+03 0.50689872E+03 0.29991545E+03 0.0000E+00 0.0000E+00
       23  2    1    2    0    0 0.36197314E+02 0.52981211E+02 -.35352529E+03 0.37623039E+03 0.11158819E+03 0.0000E+00 0.0000E+00
       24  1    3    3    0    0 0.27516464E+02 -.96687392E+01 0.32391168E+01 0.85605772E+02 0.80419002E+02 0.0000E+00 0.9000E+01
      -11  1    4    4    0    0 -.29009641E+02 0.20192067E+02 -.36100221E+02 0.50522320E+02 0.51099893E-03 0.0000E+00 0.9000E+01
       11  1    4    4    0    0 0.65206955E+02 0.32789144E+02 -.31742506E+03 0.32570807E+03 0.51099893E-03 0.0000E+00 0.9000E+01
      -24  1    3    3    0    0 -.12783151E+03 0.20380601E+02 0.39276490E+03 0.42129294E+03 0.80419002E+02 0.0000E+00 0.9000E+01
       -2  1    1    2    0  502 0.64117729E+02 -.63693073E+02 0.17865312E+03 0.20021222E+03 0.32000000E+00 0.0000E+00 0.9000E+01
#aMCatNLO 2  0  0  1  2 0.90376383D+02 0.00000000D+00  -5  7  0 0.00000000D+00 0.00000000D+00 0.00000000D+00 0.00000000D+00 0.00000000D+00
  <mgrwgt>
 0.5275660912D-04    2    2    0
 0.438732459604863D+03 0.000000000000000D+00 0.000000000000000D+00 0.438732459604863D+03
 0.438732459604863D+03 0.000000000000000D+00 0.000000000000000D+00 -.438732459604863D+03
 0.887140651842618D+02 0.338665043821299D+02 -.159767225059167D+02 -.879560146336999D+00
 0.490106153722734D+02 -.253172398302315D+02 0.165241213335913D+02 -.385750074620889D+02
 0.345562043399573D+03 0.902383939053725D+02 0.792348980436294D+01 -.333477700023836D+03
 0.394178195253617D+03 -.987876584572710D+02 -.847088863203754D+01 0.372932267632262D+03
 0.000000000000000D+00 0.000000000000000D+00 -.000000000000000D+00 0.000000000000000D+00
 0.621583141366888D+03 0.000000000000000D+00 0.000000000000000D+00 0.621583141366888D+03
 0.452364454980575D+03 0.000000000000000D+00 0.000000000000000D+00 -.452364454980575D+03
 0.855489912948487D+02 0.275164643899841D+02 -.966873924662839D+01 -.879560146336999D+00
 0.523193084409095D+02 -.290096407419068D+02 0.201920672309775D+02 -.385750074620889D+02
 0.341371427279446D+03 0.652069552350758D+02 0.327891436086592D+02 -.333477700023836D+03
 0.402867168500820D+03 -.127831507668086D+03 0.203806012536518D+02 0.372932267632262D+03
 0.191840700831439D+03 0.641177287849333D+02 -.636930728466601D+02 0.169218686386313D+03
-.234133093967D-05 0.000000000000D+00 0.000000000000D+00 0.265129439519D-07 0.000000000000D+00  7 21 -2 24 -11 11 -24 -2 2 0.10109316D+00 0.64325120D-01 0.47664784D+05 0.47664784D+05 0.47664784D+05 0.11491270D+01  1  2 13  3  7  1        2 -.566831342049D-04 0.100000000000D+01
0.472741500628D-05 0.000000000000D+00 0.000000000000D+00 0.265129439519D-07 0.107820512834D-11  7 21 -2 24 -11 11 -24 -2 2 0.10034406D+00 0.66323786D-01 0.47664784D+05 0.47664784D+05 0.47664784D+05 0.11491270D+01  1  2  1  3  7  1        2 0.109439743320D-03 0.100000000000D+01
  </mgrwgt>
  </event>
  <event>
  8     66 0.26993063E-05 0.25147220E+03 0.75467711E-02 0.88510591E-01
        2 -1    0    0  501    0 0.00000000E+00 0.00000000E+00 0.31219380E+03 0.31219397E+03 0.32000000E+00 0.0000E+00 0.9000E+01
       -2 -1    0    0    0  501 0.00000000E+00 0.00000000E+00 -.28768887E+03 0.28768904E+03 0.32000000E+00 0.0000E+00 0.9000E+01
       25  2    1    2    0    0 -.98136071E+02 0.14607185E+03 -.10425498E+03 0.36339573E+03 0.30036591E+03 0.0000E+00 0.0000E+00
       23  2    1    2    0    0 0.98136071E+02 -.14607185E+03 0.12875992E+03 0.23648729E+03 0.91539318E+02 0.0000E+00 0.0000E+00
       24  1    3    3    0    0 -.14328420E+03 0.37618911E+02 -.13711744E+03 0.21728772E+03 0.80419002E+02 0.0000E+00 0.9000E+01
      -11  1    4    4    0    0 0.67808692E+02 -.14677729E+03 0.83421149E+02 0.18193592E+03 0.51099893E-03 0.0000E+00 0.9000E+01
       11  1    4    4    0    0 0.30327379E+02 0.70543971E+00 0.45338771E+02 0.54551367E+02 0.51099893E-03 0.0000E+00 0.9000E+01
      -24  1    3    3    0    0 0.45148128E+02 0.10845293E+03 0.32862460E+02 0.14610801E+03 0.80419002E+02 0.0000E+00 0.9000E+01
#aMCatNLO 1  0  0  1  2 0.84008203D+03 0.00000000D+00  -5  7  0 0.00000000D+00 0.00000000D+00 0.00000000D+00 0.00000000D+00 0.00000000D+00
  <mgrwgt>
 0.9498086739D-03    3    2    0
 0.299691147975131D+03 0.000000000000000D+00 0.000000000000000D+00 0.299691147975131D+03
 0.299691147975131D+03 0.000000000000000D+00 0.000000000000000D+00 -.299691147975131D+03
 0.223075101039180D+03 -.143284199667264D+03 0.376189107621228D+02 -.146115503722408D+03
 0.178677343950400D+03 0.678086923398874D+02 -.146777285225390D+03 0.760526332626851D+02
 0.527433243468746D+02 0.303273789159558D+02 0.705439713797915D+00 0.431463869409462D+02
 0.144886526613808D+03 0.451481284114203D+02 0.108452934749469D+03 0.269164835187770D+02
 0.000000000000000D+00 -.000000000000000D+00 0.000000000000000D+00 -.000000000000000D+00
 0.632426136421577D+03 0.000000000000000D+00 0.000000000000000D+00 0.632426136421577D+03
 0.203132782668838D+04 0.000000000000000D+00 0.000000000000000D+00 -.203132782668838D+04
 0.178764825239377D+03 0.624559972567521D+02 0.154646295495879D+02 -.146115503722408D+03
 0.424155665976632D+03 0.376456425090835D+03 -.180012738331820D+03 0.760526332626851D+02
 0.132966927449047D+03 0.125410175016250D+03 -.953315748195579D+01 0.431463869409462D+02
 0.296099478359102D+03 0.270930937860196D+03 0.841404477961698D+02 0.269164835187770D+02
 0.163176706608580D+04 -.835253535224033D+03 0.899408184680179D+02 -.139890169026681D+04
0.152019969164D-04 0.000000000000D+00 0.000000000000D+00 0.824043402860D-06 0.000000000000D+00  7 2 -2 24 -11 11 -24 21 0 0.48029842D-01 0.44259852D-01 0.63238266D+05 0.63238266D+05 0.63238266D+05 0.11384293D+01  1  2  2  1  7  1        2 0.937077755944D-03 0.100000000000D+01
-.812956783683D-06 0.000000000000D+00 -.583796709369D-07 0.824043402860D-06 0.000000000000D+00  7 2 -2 24 -11 11 -24 21 2 0.48029842D-01 0.44259852D-01 0.63238266D+05 0.63238266D+05 0.63238266D+05 0.11384293D+01  1  2  3  1  7  1        2 -.649463233801D-04 0.100000000000D+01
0.972314320101D-06 0.000000000000D+00 0.000000000000D+00 0.824043402860D-06 0.000000000000D+00  7 2 -2 24 -11 11 -24 21 2 0.48029842D-01 0.44259852D-01 0.63238266D+05 0.63238266D+05 0.63238266D+05 0.11384293D+01  1  2 15  1  7  1        2 0.776772413096D-04 0.100000000000D+01
  </mgrwgt>
  </event>
  <event>
  8     66 0.26993063E-05 0.17084177E+03 0.75467711E-02 0.95228570E-01
        2 -1    0    0  501    0 0.00000000E+00 0.00000000E+00 0.13580362E+04 0.13580362E+04 0.32000000E+00 0.0000E+00 0.9000E+01
       -2 -1    0    0    0  501 0.00000000E+00 0.00000000E+00 -.61688131E+02 0.61688961E+02 0.32000000E+00 0.0000E+00 0.9000E+01
       25  2    1    2    0    0 -.33331780E+02 0.83107431E+02 0.36638168E+03 0.48200828E+03 0.30013096E+03 0.0000E+00 0.0000E+00
       23  2    1    2    0    0 0.33331780E+02 -.83107431E+02 0.92996639E+03 0.93771692E+03 0.80359688E+02 0.0000E+00 0.0000E+00
       24  1    3    3    0    0 -.68681250E+02 0.88530295E+02 0.36902497E+03 0.39395605E+03 0.80419002E+02 0.0000E+00 0.9000E+01
      -11  1    4    4    0    0 -.23308443E+02 -.17967177E+02 0.14075031E+03 0.14379413E+03 0.51099893E-03 0.0000E+00 0.9000E+01
       11  1    4    4    0    0 0.56640223E+02 -.65140254E+02 0.78921608E+03 0.79392279E+03 0.51099893E-03 0.0000E+00 0.9000E+01
      -24  1    3    3    0    0 0.35349470E+02 -.54228644E+01 -.26432872E+01 0.88052231E+02 0.80419002E+02 0.0000E+00 0.9000E+01
#aMCatNLO 1  0  0  2  2 0.42557982D+03 0.00000000D+00  -5  7  0 0.00000000D+00 0.00000000D+00 0.00000000D+00 0.00000000D+00 0.00000000D+00
  <mgrwgt>
 0.9000607305D-02    5    2    0
 0.289439684739498D+03 0.000000000000000D+00 0.000000000000000D+00 0.289439684739498D+03
 0.289439684739498D+03 0.000000000000000D+00 0.000000000000000D+00 -.289439684739498D+03
 0.139795150254529D+03 -.686812498059932D+02 0.885302953971542D+02 0.228197458858570D+02
 0.374633514216918D+02 -.233084431462264D+02 -.179671766569660D+02 0.231818838928523D+02
 0.179749785956577D+03 0.566402229909651D+02 -.651402543603489D+02 0.157666159821434D+03
 0.221871081846199D+03 0.353494699612545D+02 -.542286437983918D+01 -.203667789600143D+03
 0.000000000000000D+00 0.000000000000000D+00 0.000000000000000D+00 -.000000000000000D+00
 0.492726306864542D+03 0.000000000000000D+00 0.000000000000000D+00 0.492726306864542D+03
 0.698454811761801D+03 0.000000000000000D+00 0.000000000000000D+00 -.698454811761801D+03
 0.214459479517644D+03 -.183759677548238D+03 0.723691405619888D+02 0.228197458858570D+02
 0.653045165374607D+02 -.566922402042002D+02 -.226554638001314D+02 0.231818838928523D+02
 0.188522991634088D+03 -.629919530307244D+02 -.819409194188319D+02 0.157666159821434D+03
 0.250197186248581D+03 -.118000322853843D+03 -.269586968920481D+02 -.203667789600143D+03
 0.472696944688568D+03 0.421444193637005D+03 0.591859395490227D+02 -.205728504897259D+03
0.532626141036D-04 0.000000000000D+00 0.000000000000D+00 0.224018831663D-07 0.000000000000D+00  7 2 -2 24 -11 11 -24 21 0 0.20892871D+00 0.94905484D-02 0.29186910D+05 0.29186910D+05 0.29186910D+05 0.11684447D+01  1  2  2  2  7  2       -2 0.696068595246D-02 0.100000000000D+01
-.195904030408D-05 0.000000000000D+00 -.204542462526D-06 0.224018831663D-07 0.000000000000D+00  7 2 -2 24 -11 11 -24 21 2 0.20892871D+00 0.94905484D-02 0.29186910D+05 0.29186910D+05 0.29186910D+05 0.11684447D+01  1  2  3  2  7  2       -2 -.349533873080D-03 0.100000000000D+01
0.324560281025D-05 0.000000000000D+00 0.000000000000D+00 0.224018831663D-07 0.000000000000D+00  7 2 -2 24 -11 11 -24 21 2 0.20892871D+00 0.94905484D-02 0.29186910D+05 0.29186910D+05 0.29186910D+05 0.11684447D+01  1  2 15  2  7  2       -2 0.579083604550D-03 0.100000000000D+01
0.370130664966D-04 0.000000000000D+00 -.200085934638D-04 0.224018831663D-07 0.000000000000D+00  7 2 -2 24 -11 11 -24 21 2 0.20892871D+00 0.41027729D-01 0.29186910D+05 0.29186910D+05 0.29186910D+05 0.11684447D+01  1  2  5  2  7  2       -2 0.597122093237D-03 0.100000000000D+01
0.649414947810D-05 0.000000000000D+00 -.352772966705D-05 0.224018831663D-07 0.000000000000D+00  7 2 21 24 -11 11 -24 2 2 0.20892871D+00 0.41027729D-01 0.29186910D+05 0.29186910D+05 0.29186910D+05 0.11684447D+01  1  2  5  4  7  2       -2 0.121324952766D-02 0.100000000000D+01
  </mgrwgt>
  </event>
  <event>
  8     66 0.26993063E-05 0.30056553E+03 0.75467711E-02 0.96749150E-01
        2 -1    0    0  501    0 0.00000000E+00 0.00000000E+00 0.12132082E+04 0.12132083E+04 0.32000000E+00 0.0000E+00 0.9000E+01
       -2 -1    0    0    0  501 0.00000000E+00 0.00000000E+00 -.10631152E+03 0.10631200E+03 0.32000000E+00 0.0000E+00 0.9000E+01
       25  2    1    2    0    0 0.23544759E+03 -.10511652E+03 0.88171550E+03 0.96620090E+03 0.29939424E+03 0.0000E+00 0.0000E+00
       23  2    1    2    0    0 -.23544759E+03 0.10511652E+03 0.22518120E+03 0.35331936E+03 0.87423919E+02 0.0000E+00 0.0000E+00
       24  1    3    3    0    0 0.94122624E+02 -.12717063E+03 0.69647805E+03 0.71873523E+03 0.80419002E+02 0.0000E+00 0.9000E+01
      -13  1    4    4    0    0 -.11854778E+03 0.69200301E+02 0.17174797E+03 0.21986276E+03 0.10565837E+00 0.0000E+00 0.9000E+01
       13  1    4    4    0    0 -.11689981E+03 0.35916218E+02 0.53433233E+02 0.13345659E+03 0.10565837E+00 0.0000E+00 0.9000E+01
      -24  1    3    3    0    0 0.14132497E+03 0.22054113E+02 0.18523745E+03 0.24746567E+03 0.80419002E+02 0.0000E+00 0.9000E+01
#aMCatNLO 1  0  0  2  2 0.20660345D+03 0.00000000D+00  -5  7  0 0.00000000D+00 0.00000000D+00 0.00000000D+00 0.00000000D+00 0.00000000D+00
  <mgrwgt>
 0.8058220955D-03    4    2    0
 0.359135558918825D+03 0.000000000000000D+00 0.000000000000000D+00 0.359135558918825D+03
 0.359135558918825D+03 0.000000000000000D+00 0.000000000000000D+00 -.359135558918825D+03
 0.247060520798055D+03 0.941226239887581D+02 -.127170631793727D+03 0.171872764117212D+03
 0.139231663014496D+03 -.118547782870648D+03 0.692003493753615D+02 -.233064542254683D+02
 0.162826585312020D+03 -.116899809553961D+03 0.359161698224468D+02 -.107503302999980D+03
 0.169152348713079D+03 0.141324968435851D+03 0.220541125959187D+02 -.410630068917632D+02
 0.000000000000000D+00 0.000000000000000D+00 -.000000000000000D+00 0.000000000000000D+00
 0.518140365028199D+03 0.000000000000000D+00 0.000000000000000D+00 0.518140365028199D+03
 0.447575714352242D+03 0.000000000000000D+00 0.000000000000000D+00 -.447575714352242D+03
 0.219271926738583D+03 0.322229628859051D+02 -.105044731037985D+03 0.171872764117212D+03
 0.183686198836813D+03 -.161410994123139D+03 0.845217120669789D+02 -.233064542254683D+02
 0.204568969566888D+03 -.165666865026575D+03 0.533478489352600D+02 -.107503302999980D+03
 0.139867302440270D+03 0.100306566689291D+03 0.367160520966133D+02 -.410630068917632D+02
 0.218321681797888D+03 0.194548329574517D+03 -.695408820608673D+02 0.705646506759574D+02
0.154881358249D-04 0.000000000000D+00 0.000000000000D+00 0.983603509586D-07 0.000000000000D+00  7 2 -2 24 -13 13 -24 21 0 0.18664746D+00 0.16355658D-01 0.90339637D+05 0.90339637D+05 0.90339637D+05 0.11253608D+01  1  2  2  2  7  2       -2 0.103063966774D-02 0.100000000000D+01
-.827291981216D-06 0.000000000000D+00 -.594785196874D-07 0.983603509586D-07 0.000000000000D+00  7 2 -2 24 -13 13 -24 21 2 0.18664746D+00 0.16355658D-01 0.90339637D+05 0.90339637D+05 0.90339637D+05 0.11253608D+01  1  2  3  2  7  2       -2 -.697188315450D-04 0.100000000000D+01
0.986457400554D-06 0.000000000000D+00 0.000000000000D+00 0.983603509586D-07 0.000000000000D+00  7 2 -2 24 -13 13 -24 21 2 0.18664746D+00 0.16355658D-01 0.90339637D+05 0.90339637D+05 0.90339637D+05 0.11253608D+01  1  2 15  2  7  2       -2 0.831322663548D-04 0.100000000000D+01
-.282687758076D-05 0.000000000000D+00 0.000000000000D+00 0.983603509586D-07 0.000000000000D+00  7 2 -2 24 -13 13 -24 21 2 0.18664746D+00 0.16355658D-01 0.90339637D+05 0.90339637D+05 0.90339637D+05 0.11253608D+01  1  2  4  2  7  2       -2 -.238231007100D-03 0.100000000000D+01
  </mgrwgt>
  </event>
  <event>
  8     66 0.26993063E-05 0.35568593E+03 0.75467711E-02 0.92455566E-01
        2 -1    0    0  501    0 0.00000000E+00 0.00000000E+00 0.15249157E+04 0.15249158E+04 0.32000000E+00 0.0000E+00 0.9000E+01
       -2 -1    0    0    0  501 0.00000000E+00 0.00000000E+00 -.22535884E+03 0.22535907E+03 0.32000000E+00 0.0000E+00 0.9000E+01
       25  2    1    2    0    0 0.11783471E+03 0.53052102E+03 0.72253760E+03 0.95252387E+03 0.29983922E+03 0.0000E+00 0.0000E+00
       23  2    1    2    0    0 -.11783471E+03 -.53052102E+03 0.57701928E+03 0.79775096E+03 0.90098629E+02 0.0000E+00 0.0000E+00
       24  1    3    3    0    0 -.55228342E+02 0.30591326E+03 0.43588548E+03 0.54138384E+03 0.80419002E+02 0.0000E+00 0.9000E+01
      -13  1    4    4    0    0 -.16593574E+02 -.40104244E+02 0.17300759E+02 0.46722848E+02 0.10565837E+00 0.0000E+00 0.9000E+01
       13  1    4    4    0    0 -.10124114E+03 -.49041678E+03 0.55971853E+03 0.75102811E+03 0.10565837E+00 0.0000E+00 0.9000E+01
      -24  1    3    3    0    0 0.17306305E+03 0.22460776E+03 0.28665212E+03 0.41114002E+03 0.80419002E+02 0.0000E+00 0.9000E+01
#aMCatNLO 1  0  0  2  1 0.55106158D+02 0.00000000D+00  -5  7  0 0.00000000D+00 0.00000000D+00 0.00000000D+00 0.00000000D+00 0.00000000D+00
  <mgrwgt>
 0.1027756795D-02    9    2    0
 0.586219639491105D+03 0.000000000000000D+00 0.000000000000000D+00 0.586219639491105D+03
 0.586219639491105D+03 0.000000000000000D+00 0.000000000000000D+00 -.586219639491105D+03
 0.325059501133279D+03 -.552283423272857D+02 0.305913261457736D+03 0.506297342548463D+02
 0.505730047305219D+02 -.165934577493491D+02 -.401036242267716D+02 -.259612266904296D+02
 0.500768157893473D+03 -.101241253932452D+03 -.490417398323117D+03 0.311959679961726D+01
 0.296038615224937D+03 0.173063054009087D+03 0.224607761092152D+03 -.277881043640340D+02
 0.000000000000000D+00 0.000000000000000D+00 -.000000000000000D+00 -.000000000000000D+00
 0.594835229255027D+03 0.000000000000000D+00 0.000000000000000D+00 0.594835229255027D+03
 0.682139264028729D+03 0.000000000000000D+00 0.000000000000000D+00 -.682139264028729D+03
 0.335941340806275D+03 -.678142121152419D+02 0.315003541492504D+03 0.506297342548463D+02
 0.501574405330822D+02 -.185114284799923D+02 -.387183492053568D+02 -.259612266904296D+02
 0.491682326215951D+03 -.120138132380207D+03 -.476768924298902D+03 0.311959679961726D+01
 0.295952487233008D+03 0.161791172857919D+03 0.232748998679147D+03 -.277881043640340D+02
 0.103240898495440D+03 0.446726001175220D+02 -.322652666673924D+02 -.873040347737016D+02
0.715007776166D-04 0.000000000000D+00 0.000000000000D+00 0.455316036263D-05 0.000000000000D+00  7 2 -2 24 -13 13 -24 21 0 0.23460244D+00 0.34670611D-01 0.33639032D+06 0.33639032D+06 0.33639032D+06 0.10808923D+01  1  2  2  2  7  2       -2 0.855873403143D-03 0.100000000000D+01
-.397171445287D-05 0.000000000000D+00 -.274581812635D-06 0.455316036263D-05 0.000000000000D+00  7 2 -2 24 -13 13 -24 21 2 0.23460244D+00 0.34670611D-01 0.33639032D+06 0.33639032D+06 0.33639032D+06 0.10808923D+01  1  2  3  2  7  2       -2 -.555445679128D-04 0.100000000000D+01
0.445826086805D-05 0.000000000000D+00 0.000000000000D+00 0.455316036263D-05 0.000000000000D+00  7 2 -2 24 -13 13 -24 21 2 0.23460244D+00 0.34670611D-01 0.33639032D+06 0.33639032D+06 0.33639032D+06 0.10808923D+01  1  2 15  2  7  2       -2 0.623489368375D-04 0.100000000000D+01
0.355121202200D-03 0.000000000000D+00 0.000000000000D+00 0.455316036263D-05 0.000000000000D+00  7 2 -2 24 -13 13 -24 21 2 0.23460244D+00 0.40571420D-01 0.36993391D+06 0.36993391D+06 0.36993391D+06 0.10778826D+01  1  2 12  2  7  2       -2 0.367421732697D-02 0.100000000000D+01
-.359542009885D-03 0.000000000000D+00 0.000000000000D+00 0.455316036263D-05 0.000000000000D+00  7 2 -2 24 -13 13 -24 21 2 0.23460244D+00 0.34670611D-01 0.33639032D+06 0.33639032D+06 0.33639032D+06 0.10808923D+01  1  2  4  2  7  2       -2 -.502820779856D-02 0.100000000000D+01
-.516735350153D-03 0.000000000000D+00 -.599080319495D-04 0.455316036263D-05 0.000000000000D+00  7 2 -2 24 -13 13 -24 21 2 0.23460244D+00 0.40761846D-01 0.33639032D+06 0.33639032D+06 0.33639032D+06 0.10808923D+01  1  2  5  2  7  2       -2 -.534862672681D-02 0.100000000000D+01
0.520376948181D-03 0.000000000000D+00 0.591318088933D-04 0.455316036263D-05 0.000000000000D+00  7 2 -2 24 -13 13 -24 21 2 0.23460244D+00 0.34670611D-01 0.33639032D+06 0.33639032D+06 0.33639032D+06 0.10808923D+01  1  2  6  2  7  2       -2 0.727749013216D-02 0.100000000000D+01
0.841142699919D-05 0.000000000000D+00 0.000000000000D+00 0.455316036263D-05 0.000000000000D+00  7 2 21 24 -13 13 -24 2 2 0.23460244D+00 0.40571420D-01 0.36993391D+06 0.36993391D+06 0.36993391D+06 0.10778826D+01  1  2 12  4  7  2       -2 0.940048082401D-03 0.100000000000D+01
-.120541156363D-04 0.000000000000D+00 -.145272709025D-05 0.455316036263D-05 0.000000000000D+00  7 2 21 24 -13 13 -24 2 2 0.23460244D+00 0.40761846D-01 0.33639032D+06 0.33639032D+06 0.33639032D+06 0.10808923D+01  1  2  5  4  7  2       -2 -.134984199311D-02 0.100000000000D+01
  </mgrwgt>
  </event>
  <event>
  8     66 0.26993063E-05 0.13988342E+03 0.75467711E-02 0.10044838E+00
        2 -1    0    0  501    0 0.00000000E+00 0.00000000E+00 0.11570596E+03 0.11570640E+03 0.32000000E+00 0.0000E+00 0.9000E+01
       -2 -1    0    0    0  501 0.00000000E+00 0.00000000E+00 -.73705535E+03 0.73705542E+03 0.32000000E+00 0.0000E+00 0.9000E+01
       25  2    1    2    0    0 0.49065146E+02 -.18034806E+03 -.50903460E+03 0.61619195E+03 0.29264908E+03 0.0000E+00 0.0000E+00
       23  2    1    2    0    0 -.49065146E+02 0.18034806E+03 -.11231479E+03 0.23656987E+03 0.91749021E+02 0.0000E+00 0.0000E+00
       24  1    3    3    0    0 -.17397258E+02 -.20644375E+03 -.24329849E+03 0.32951943E+03 0.80419002E+02 0.0000E+00 0.9000E+01
      -13  1    4    4    0    0 -.29527702E+02 0.17645796E+03 -.74448575E+02 0.19378313E+03 0.10565837E+00 0.0000E+00 0.9000E+01
       13  1    4    4    0    0 -.19537444E+02 0.38900941E+01 -.37866212E+02 0.42786748E+02 0.10565837E+00 0.0000E+00 0.9000E+01
      -24  1    3    3    0    0 0.66462404E+02 0.26095687E+02 -.26573611E+03 0.28667252E+03 0.80419002E+02 0.0000E+00 0.9000E+01
#aMCatNLO 1  0  0  1  2 0.86544037D+02 0.00000000D+00  -5  7  0 0.00000000D+00 0.00000000D+00 0.00000000D+00 0.00000000D+00 0.00000000D+00
  <mgrwgt>
 0.2599159147D-02    9    2    0
 0.292030677314659D+03 0.000000000000000D+00 0.000000000000000D+00 0.292030677314659D+03
 0.292030677314659D+03 0.000000000000000D+00 0.000000000000000D+00 -.292030677314659D+03
 0.222285247891639D+03 -.173972560348523D+02 -.206443744550547D+03 -.467239705970334D+01
 0.203732735899486D+03 -.295277161326409D+02 0.176458195992158D+03 0.974558706506335D+02
 0.221870803983296D+02 -.195374308480063D+02 0.388986574636041D+01 -.976853504557393D+01
 0.135856290439863D+03 0.664624030154995D+02 0.260956828120279D+02 -.830149385453562D+02
 0.000000000000000D+00 0.000000000000000D+00 0.000000000000000D+00 0.000000000000000D+00
 0.376310258967368D+03 0.000000000000000D+00 0.000000000000000D+00 0.376310258967368D+03
 0.318310143040775D+03 0.000000000000000D+00 0.000000000000000D+00 -.318310143040775D+03
 0.253174362465430D+03 -.332057375071357D+02 -.237709043912364D+03 -.467239705970334D+01
 0.184597646501741D+03 -.424392516691804D+02 0.150922345222531D+03 0.974558706506335D+02
 0.232212436573597D+02 -.210472050409871D+02 0.903902660971622D+00 -.976853504557393D+01
 0.129445174636258D+03 0.576414365151572D+02 0.864997439422064D+01 -.830149385453562D+02
 0.104181974747354D+03 0.390507577021460D+02 0.772328216346413D+02 0.580001159265930D+02
0.835308543737D-04 0.000000000000D+00 0.000000000000D+00 0.602977011942D-08 0.000000000000D+00  7 2 -2 24 -13 13 -24 21 0 0.17800957D-01 0.11339317D+00 0.69857525D+05 0.69857525D+05 0.69857525D+05 0.11347348D+01  1  2  2  1  7  1        2 0.208374732610D-02 0.100000000000D+01
-.458445921365D-05 0.000000000000D+00 -.320780474974D-06 0.602977011942D-08 0.000000000000D+00  7 2 -2 24 -13 13 -24 21 2 0.17800957D-01 0.11339317D+00 0.69857525D+05 0.69857525D+05 0.69857525D+05 0.11347348D+01  1  2  3  1  7  1        2 -.147256688777D-03 0.100000000000D+01
0.535754601453D-05 0.000000000000D+00 0.000000000000D+00 0.602977011942D-08 0.000000000000D+00  7 2 -2 24 -13 13 -24 21 2 0.17800957D-01 0.11339317D+00 0.69857525D+05 0.69857525D+05 0.69857525D+05 0.11347348D+01  1  2 15  1  7  1        2 0.172088887544D-03 0.100000000000D+01
0.836220716821D-04 0.000000000000D+00 0.000000000000D+00 0.602977011942D-08 0.000000000000D+00  7 2 -2 24 -13 13 -24 21 2 0.23563797D-01 0.11339317D+00 0.95122348D+05 0.95122348D+05 0.95122348D+05 0.11235086D+01  1  2 12  1  7  1        2 0.188462422115D-02 0.100000000000D+01
-.916577716172D-04 0.000000000000D+00 0.000000000000D+00 0.602977011942D-08 0.000000000000D+00  7 2 -2 24 -13 13 -24 21 2 0.17800957D-01 0.11339317D+00 0.69857525D+05 0.69857525D+05 0.69857525D+05 0.11347348D+01  1  2  4  1  7  1        2 -.294412477458D-02 0.100000000000D+01
-.140507400714D-03 0.000000000000D+00 -.436159829335D-04 0.602977011942D-08 0.000000000000D+00  7 2 -2 24 -13 13 -24 21 2 0.24866844D-01 0.11339317D+00 0.69857525D+05 0.69857525D+05 0.69857525D+05 0.11347348D+01  1  2  5  1  7  1        2 -.304930915182D-02 0.100000000000D+01
0.149012366118D-03 0.000000000000D+00 0.412875761965D-04 0.602977011942D-08 0.000000000000D+00  7 2 -2 24 -13 13 -24 21 2 0.17800957D-01 0.11339317D+00 0.69857525D+05 0.69857525D+05 0.69857525D+05 0.11347348D+01  1  2  6  1  7  1        2 0.478640262651D-02 0.100000000000D+01
0.307848273683D-05 0.000000000000D+00 0.000000000000D+00 0.602977011942D-08 0.000000000000D+00  7 21 -2 24 -13 13 -24 -2 2 0.23563797D-01 0.11339317D+00 0.95122348D+05 0.95122348D+05 0.95122348D+05 0.11235086D+01  1  2 12  3  7  1        2 0.433649296308D-03 0.100000000000D+01
-.471921987272D-05 0.000000000000D+00 -.182277476333D-05 0.602977011942D-08 0.000000000000D+00  7 21 -2 24 -13 13 -24 -2 2 0.24866844D-01 0.11339317D+00 0.69857525D+05 0.69857525D+05 0.69857525D+05 0.11347348D+01  1  2  5  3  7  1        2 -.620662595157D-03 0.100000000000D+01
  </mgrwgt>
  </event>
  <event>
  7     66 0.26993063E-05 0.38461460E+03 0.75467711E-02 0.95816109E-01
        2 -1    0    0  501    0 0.00000000E+00 0.00000000E+00 0.28496296E+04 0.28496296E+04 0.32000000E+00 0.0000E+00 0.9000E+01
       -2 -1    0    0    0  501 0.00000000E+00 0.00000000E+00 -.10081468E+03 0.10081519E+03 0.32000000E+00 0.0000E+00 0.9000E+01
       25  2    1    2    0    0 -.18416409E+03 0.39417238E+02 0.16519792E+04 0.16895806E+04 0.30029545E+03 0.0000E+00 0.0000E+00
       24  1    3    3    0    0 -.94526229E+02 0.50568182E+02 0.14344148E+04 0.14406614E+04 0.80419002E+02 0.0000E+00 0.9000E+01
      -11  1    1    2    0    0 -.16174711E+02 -.23425737E+03 0.86939702E+03 0.90054945E+03 0.51099893E-03 0.0000E+00 0.9000E+01
       11  1    1    2    0    0 0.20033880E+03 0.19484014E+03 0.22743867E+03 0.36031467E+03 0.51099893E-03 0.0000E+00 0.9000E+01
      -24  1    3    3    0    0 -.89637859E+02 -.11150944E+02 0.21756442E+03 0.24891923E+03 0.80419002E+02 0.0000E+00 0.9000E+01
#aMCatNLO 1  0  0  1  2 0.13650445D+03 0.00000000D+00  -5  7  0 0.00000000D+00 0.00000000D+00 0.00000000D+00 0.00000000D+00 0.00000000D+00
  <mgrwgt>
 0.1374457443D-01    4    2    0
 0.535989982431694D+03 0.000000000000000D+00 0.000000000000000D+00 0.535989982431694D+03
 0.535989982431694D+03 0.000000000000000D+00 0.000000000000000D+00 -.535989982431694D+03
 0.286993693184018D+03 -.945263922949052D+02 0.505682170777597D+02 0.253782939840956D+03
 0.249267445088852D+03 -.161745561578163D+02 -.234257226048246D+03 0.836432600895181D+02
 0.408498032415479D+03 0.200338879830188D+03 0.194839937436559D+03 -.297946932347726D+03
 0.127220794175039D+03 -.896379313774669D+02 -.111509284660727D+02 -.394792675827474D+02
 0.000000000000000D+00 -.000000000000000D+00 0.000000000000000D+00 -.000000000000000D+00
 0.589537063890220D+03 0.000000000000000D+00 0.000000000000000D+00 0.589537063890220D+03
 0.634963803665806D+03 0.000000000000000D+00 0.000000000000000D+00 -.634963803665806D+03
 0.277220353462183D+03 -.744191915176835D+02 0.209740744459335D+02 0.253782939840956D+03
 0.274796501050915D+03 0.250179379797112D+01 -.261745416500872D+03 0.836432600895181D+02
 0.405611455145874D+03 0.229351739432569D+03 0.152138284693196D+03 -.297946932347726D+03
 0.123007850407384D+03 -.807203979932159D+02 -.242759157689577D+02 -.394792675827474D+02
 0.143864707489670D+03 -.767139437196406D+02 0.112908973130701D+03 -.454267397755860D+02
0.264372345851D-02 0.000000000000D+00 0.000000000000D+00 0.199213948924D-09 0.000000000000D+00  7 2 -2 24 -11 11 -24 21 0 0.43840459D+00 0.15509991D-01 0.14792839D+06 0.14792839D+06 0.14792839D+06 0.11080288D+01  1  2  2  1  7  1        2 0.233004051550D-01 0.100000000000D+01
-.127205053228D-03 0.000000000000D+00 -.101525941891D-04 0.199213948924D-09 0.000000000000D+00  7 2 -2 24 -11 11 -24 21 2 0.43840459D+00 0.15509991D-01 0.14792839D+06 0.14792839D+06 0.14792839D+06 0.11080288D+01  1  2  3  1  7  1        2 -.137642938348D-02 0.100000000000D+01
0.159248712344D-03 0.000000000000D+00 0.000000000000D+00 0.199213948924D-09 0.000000000000D+00  7 2 -2 24 -11 11 -24 21 2 0.43840459D+00 0.15509991D-01 0.14792839D+06 0.14792839D+06 0.14792839D+06 0.11080288D+01  1  2 15  1  7  1        2 0.172315958675D-02 0.100000000000D+01
-.915161943558D-03 0.000000000000D+00 0.000000000000D+00 0.199213948924D-09 0.000000000000D+00  7 2 -2 24 -11 11 -24 21 2 0.43840459D+00 0.15509991D-01 0.14792839D+06 0.14792839D+06 0.14792839D+06 0.11080288D+01  1  2  4  1  7  1        2 -.990256092656D-02 0.100000000000D+01
  </mgrwgt>
  </event>
  <event>
  9     66 0.26993063E-05 0.15333336E+03 0.75467711E-02 0.10332501E+00
        2 -1    0    0  501    0 0.00000000E+00 0.00000000E+00 0.23727442E+04 0.23727442E+04 0.32000000E+00 0.0000E+00 0.9000E+01
       -2 -1    0    0    0  502 0.00000000E+00 0.00000000E+00 -.38638227E+03 0.38638240E+03 0.32000000E+00 0.0000E+00 0.9000E+01
       25  2    1    2    0    0 -.28807100E+02 0.84099443E+02 0.22158097E+04 0.22377000E+04 0.29930926E+03 0.0000E+00 0.0000E+00
       23  2    1    2    0    0 -.92343194E+02 0.15926436E+02 -.31623230E+03 0.34194213E+03 0.90225478E+02 0.0000E+00 0.0000E+00
       24  1    3    3    0    0 0.25015847E+02 -.18516624E+02 0.17215664E+04 0.17237247E+04 0.80419002E+02 0.0000E+00 0.9000E+01
      -11  1    4    4    0    0 -.37804312E+02 0.37143172E+02 -.24030471E+03 0.24607953E+03 0.51099893E-03 0.0000E+00 0.9000E+01
       11  1    4    4    0    0 -.54538882E+02 -.21216736E+02 -.75927591E+02 0.95862603E+02 0.51099893E-03 0.0000E+00 0.9000E+01
      -24  1    3    3    0    0 -.53822947E+02 0.10261607E+03 0.49424327E+03 0.51397528E+03 0.80419002E+02 0.0000E+00 0.9000E+01
       21  1    1    2  501  502 0.12115029E+03 -.10002588E+03 0.86784539E+02 0.17948451E+03 0.75000000E+00 0.0000E+00 0.9000E+01
#aMCatNLO 2  0  0  2  2 0.15710688D+03 0.00000000D+00  -5  7  0 0.00000000D+00 0.00000000D+00 0.00000000D+00 0.00000000D+00 0.00000000D+00
  <mgrwgt>
 0.8368781444D-03    1    2    0
 0.869119749873855D+03 0.000000000000000D+00 0.000000000000000D+00 0.869119749873855D+03
 0.869119749873855D+03 0.000000000000000D+00 0.000000000000000D+00 -.869119749873855D+03
 0.679553630489460D+03 0.720892064821076D+02 -.573820206684499D+02 0.668458204205633D+03
 0.623032223887358D+03 0.560825050779445D+01 0.130025707117753D+01 -.623005625062741D+03
 0.222659972816620D+03 -.389937506004907D+02 -.340513348695515D+02 -.216558208115986D+03
 0.212993672554272D+03 -.387037063894113D+02 0.901330984668239D+02 0.171105628973093D+03
 0.000000000000000D+00 0.000000000000000D+00 -.000000000000000D+00 -.000000000000000D+00
 0.924537442475012D+03 0.000000000000000D+00 0.000000000000000D+00 0.924537442475012D+03
 0.991614670351790D+03 0.000000000000000D+00 0.000000000000000D+00 -.991614670351790D+03
 0.673997214141433D+03 0.250158465068226D+02 -.185166241461273D+02 0.668458204205633D+03
 0.625255779750460D+03 -.378043119246842D+02 0.371431723394784D+02 -.623005625062741D+03
 0.224325872400516D+03 -.545388818966122D+02 -.212167360193200D+02 -.216558208115986D+03
 0.221746068690643D+03 -.538229465837201D+02 0.102616066871386D+03 0.171105628973093D+03
 0.170827177843750D+03 0.121150293898194D+03 -.100025879045417D+03 -.670772278767779D+02
0.402888237882D-03 0.000000000000D+00 0.000000000000D+00 0.664775041358D-05 0.187352345536D-08  7 2 -2 24 -11 11 -24 21 2 0.36503726D+00 0.59443386D-01 0.61480066D+05 0.61480066D+05 0.61480066D+05 0.11394825D+01  1  2  1  2  7  2       -2 0.836878144443D-03 0.100000000000D+01
  </mgrwgt>
  </event>
  <event>
  8     66 0.26993063E-05 0.31571179E+03 0.75467711E-02 0.98918979E-01
        2 -1    0    0  501    0 0.00000000E+00 0.00000000E+00 0.69720690E+03 0.69720697E+03 0.32000000E+00 0.0000E+00 0.9000E+01
       -2 -1    0    0    0  501 0.00000000E+00 0.00000000E+00 -.21629279E+03 0.21629303E+03 0.32000000E+00 0.0000E+00 0.9000E+01
       25  2    1    2    0    0 -.17746252E+02 -.25010706E+03 0.51331624E+03 0.64509095E+03 0.29963360E+03 0.0000E+00 0.0000E+00
       23  2    1    2    0    0 0.17746252E+02 0.25010706E+03 -.32402134E+02 0.26840905E+03 0.90139052E+02 0.0000E+00 0.0000E+00
       24  1    3    3    0    0 -.95554669E+02 -.44646819E+02 0.30195176E+03 0.32979708E+03 0.80419002E+02 0.0000E+00 0.9000E+01
      -13  1    4    4    0    0 -.26532261E+02 0.28865822E+02 0.55913259E+01 0.39603922E+02 0.10565837E+00 0.0000E+00 0.9000E+01
       13  1    4    4    0    0 0.44278513E+02 0.22124124E+03 -.37993460E+02 0.22880513E+03 0.10565837E+00 0.0000E+00 0.9000E+01
      -24  1    3    3    0    0 0.77808417E+02 -.20546024E+03 0.21136448E+03 0.31529386E+03 0.80419002E+02 0.0000E+00 0.9000E+01
#aMCatNLO 1  0  0  1  2 0.61371241D+02 0.00000000D+00  -5  7  0 0.00000000D+00 0.00000000D+00 0.00000000D+00 0.00000000D+00 0.00000000D+00
  <mgrwgt>
 0.4393459487D-03    4    2    0
 0.388331000080885D+03 0.000000000000000D+00 0.000000000000000D+00 0.388331000080885D+03
 0.388331000080885D+03 0.000000000000000D+00 0.000000000000000D+00 -.388331000080885D+03
 0.200932671995010D+03 -.955546684794988D+02 -.446468191633492D+02 0.150939357329532D+03
 0.431191033623747D+02 -.265323585274822D+02 0.288655577866626D+02 -.179463255127376D+02
 0.292643827555218D+03 0.442786102498474D+02 0.221241503074872D+03 -.186365264461170D+03
 0.239966397249166D+03 0.778084167571336D+02 -.205460241698186D+03 0.533722326443756D+02
 0.000000000000000D+00 -.000000000000000D+00 -.000000000000000D+00 -.000000000000000D+00
 0.406449158103880D+03 0.000000000000000D+00 0.000000000000000D+00 0.406449158103880D+03
 0.445232632921384D+03 0.000000000000000D+00 0.000000000000000D+00 -.445232632921384D+03
 0.194597083375097D+03 -.873771248174046D+02 -.313585294826681D+02 0.150939357329532D+03
 0.440972622019777D+02 -.247291676732713D+02 0.317956946847850D+02 -.179463255127376D+02
 0.310278721364509D+03 0.567439820751319D+02 0.241497398810360D+03 -.186365264461170D+03
 0.230109914357588D+03 0.875272040556604D+02 -.189667472340513D+03 0.533722326443756D+02
 0.725988097260927D+02 -.321648936401164D+02 -.522670916719638D+02 -.387834748175037D+02
0.188325107321D-04 0.000000000000D+00 0.000000000000D+00 0.114080253404D-05 0.000000000000D+00  7 2 -2 24 -13 13 -24 21 0 0.10726262D+00 0.33275837D-01 0.99673936D+05 0.99673936D+05 0.99673936D+05 0.11218385D+01  1  2  2  1  7  1        2 0.797936007220D-03 0.100000000000D+01
-.991727974051D-06 0.000000000000D+00 -.723217999253D-07 0.114080253404D-05 0.000000000000D+00  7 2 -2 24 -13 13 -24 21 2 0.10726262D+00 0.33275837D-01 0.99673936D+05 0.99673936D+05 0.99673936D+05 0.11218385D+01  1  2  3  1  7  1        2 -.528826307197D-04 0.100000000000D+01
0.118121145299D-05 0.000000000000D+00 0.000000000000D+00 0.114080253404D-05 0.000000000000D+00  7 2 -2 24 -13 13 -24 21 2 0.10726262D+00 0.33275837D-01 0.99673936D+05 0.99673936D+05 0.99673936D+05 0.11218385D+01  1  2 15  1  7  1        2 0.629865958257D-04 0.100000000000D+01
-.691425846431D-05 0.000000000000D+00 0.000000000000D+00 0.114080253404D-05 0.000000000000D+00  7 2 -2 24 -13 13 -24 21 2 0.10726262D+00 0.33275837D-01 0.99673936D+05 0.99673936D+05 0.99673936D+05 0.11218385D+01  1  2  4  1  7  1        2 -.368694023599D-03 0.100000000000D+01
  </mgrwgt>
  </event>
  <event>
  8     66 0.26993063E-05 0.17145264E+03 0.75467711E-02 0.98222641E-01
        2 -1    0    0  501    0 0.00000000E+00 0.00000000E+00 0.27160746E+04 0.27160746E+04 0.32000000E+00 0.0000E+00 0.9000E+01
       -2 -1    0    0    0  501 0.00000000E+00 0.00000000E+00 -.19483623E+02 0.19486250E+02 0.32000000E+00 0.0000E+00 0.9000E+01
       25  2    1    2    0    0 0.60164600E+02 -.76527473E+02 0.20628213E+04 0.20867609E+04 0.29977193E+03 0.0000E+00 0.0000E+00
       23  2    1    2    0    0 -.60164600E+02 0.76527473E+02 0.63376965E+03 0.64879992E+03 0.99000656E+02 0.0000E+00 0.0000E+00
       24  1    3    3    0    0 0.78063673E+02 -.64829821E+02 0.18952338E+04 0.18996513E+04 0.80419002E+02 0.0000E+00 0.9000E+01
      -13  1    4    4    0    0 -.41861897E+01 0.74065113E+02 0.24413655E+03 0.25515844E+03 0.10565837E+00 0.0000E+00 0.9000E+01
       13  1    4    4    0    0 -.55978410E+02 0.24623592E+01 0.38963311E+03 0.39364148E+03 0.10565837E+00 0.0000E+00 0.9000E+01
      -24  1    3    3    0    0 -.17899073E+02 -.11697652E+02 0.16758754E+03 0.18710962E+03 0.80419002E+02 0.0000E+00 0.9000E+01
#aMCatNLO 1  0  0  1  2 0.30213748D+03 0.00000000D+00  -5  7  0 0.00000000D+00 0.00000000D+00 0.00000000D+00 0.00000000D+00 0.00000000D+00
  <mgrwgt>
 0.9589348287D-03    5    2    0
 0.230049107555005D+03 0.000000000000000D+00 0.000000000000000D+00 0.230049107555005D+03
 0.230049107555005D+03 0.000000000000000D+00 0.000000000000000D+00 -.230049107555005D+03
 0.186789537341576D+03 0.780637208026809D+02 -.648298826341891D+02 0.134633788916407D+03
 0.862099660078303D+02 -.418624847805066D+01 0.740652003371796D+02 -.439201509761149D+02
 0.568336792016661D+02 -.559784348917505D+02 0.246237865402339D+01 0.950887007126288D+01
 0.130265032558938D+03 -.178990374328798D+02 -.116976963570139D+02 -.100222508011555D+03
 0.000000000000000D+00 0.000000000000000D+00 -.000000000000000D+00 0.000000000000000D+00
 0.491307475035257D+03 0.000000000000000D+00 0.000000000000000D+00 0.491307475035257D+03
 0.380828968440468D+03 0.000000000000000D+00 0.000000000000000D+00 -.380828968440468D+03
 0.162508867951279D+03 0.315273992247442D+02 0.286649993645864D+02 0.134633788916407D+03
 0.147903037053282D+03 -.353766513855422D+02 0.136729006595403D+03 -.439201509761149D+02
 0.858200580412524D+02 -.749839043987329D+02 0.406457603360234D+02 0.950887007126288D+01
 0.154201888416794D+03 -.557979911991111D+02 0.644440804337581D+02 -.100222508011555D+03
 0.321702592013117D+03 0.134631147758642D+03 -.270483846729770D+03 0.110478506594788D+03
0.701768653477D-05 0.000000000000D+00 0.000000000000D+00 0.120448105501D-07 0.000000000000D+00  7 2 -2 24 -13 13 -24 21 0 0.41785783D+00 0.29976840D-02 0.29396007D+05 0.29396007D+05 0.29396007D+05 0.11681563D+01  1  2  2  1  7  1        2 0.940276147771D-03 0.100000000000D+01
-.348902464627D-06 0.000000000000D+00 -.269497640928D-07 0.120448105501D-07 0.000000000000D+00  7 2 -2 24 -13 13 -24 21 2 0.41785783D+00 0.29976840D-02 0.29396007D+05 0.29396007D+05 0.29396007D+05 0.11681563D+01  1  2  3  1  7  1        2 -.637921779397D-04 0.100000000000D+01
0.451012667032D-06 0.000000000000D+00 0.000000000000D+00 0.120448105501D-07 0.000000000000D+00  7 2 -2 24 -13 13 -24 21 2 0.41785783D+00 0.29976840D-02 0.29396007D+05 0.29396007D+05 0.29396007D+05 0.11681563D+01  1  2 15  1  7  1        2 0.824616711698D-04 0.100000000000D+01
-.287099523058D-06 0.000000000000D+00 -.142251668017D-05 0.120448105501D-07 0.000000000000D+00  7 2 -2 24 -13 13 -24 21 2 0.91560572D+00 0.29976840D-02 0.29396007D+05 0.29396007D+05 0.29396007D+05 0.11681563D+01  1  2  5  1  7  1        2 -.108180331801D-07 0.100000000000D+01
0.651107829539D-07 0.000000000000D+00 -.120916933937D-06 0.120448105501D-07 0.000000000000D+00  7 21 -2 24 -13 13 -24 -2 2 0.91560572D+00 0.29976840D-02 0.29396007D+05 0.29396007D+05 0.29396007D+05 0.11681563D+01  1  2  5  3  7  1        2 0.573265036685D-11 0.100000000000D+01
  </mgrwgt>
  </event>
  <event>
  8     66 0.26993063E-05 0.37478437E+03 0.75467711E-02 0.82521731E-01
        2 -1    0    0  501    0 0.00000000E+00 0.00000000E+00 0.45731834E+03 0.45731845E+03 0.32000000E+00 0.0000E+00 0.9000E+01
       -2 -1    0    0    0  501 0.00000000E+00 0.00000000E+00 -.37166246E+03 0.37166260E+03 0.32000000E+00 0.0000E+00 0.9000E+01
       25  2    1    2    0    0 -.26215768E+03 0.21414935E+03 -.33266164E+02 0.45355011E+03 0.30002411E+03 0.0000E+00 0.0000E+00
       23  2    1    2    0    0 0.26215768E+03 -.21414935E+03 0.11892204E+03 0.37543095E+03 0.11054116E+03 0.0000E+00 0.0000E+00
       24  1    3    3    0    0 -.23931544E+03 0.20278743E+03 0.58312420E+02 0.32903218E+03 0.80419002E+02 0.0000E+00 0.9000E+01
      -11  1    4    4    0    0 0.10350986E+03 -.11291953E+03 0.10701473E+03 0.18686162E+03 0.51099893E-03 0.0000E+00 0.9000E+01
       11  1    4    4    0    0 0.15864782E+03 -.10122982E+03 0.11907311E+02 0.18856933E+03 0.51099893E-03 0.0000E+00 0.9000E+01
      -24  1    3    3    0    0 -.22842242E+02 0.11361921E+02 -.91578584E+02 0.12451793E+03 0.80419002E+02 0.0000E+00 0.9000E+01
#aMCatNLO 1  0  0  1  2 0.16225428D+04 0.00000000D+00  -5  7  0 0.00000000D+00 0.00000000D+00 0.00000000D+00 0.00000000D+00 0.00000000D+00
  <mgrwgt>
 0.1130568196D-02    3    2    0
 0.412271953923368D+03 0.000000000000000D+00 0.000000000000000D+00 0.412271953923368D+03
 0.412271953923368D+03 0.000000000000000D+00 0.000000000000000D+00 -.412271953923368D+03
 0.324745156705153D+03 -.239315440664800D+03 0.202787426722734D+03 0.244454550309055D+02
 0.176750198223061D+03 0.103509861975479D+03 -.112919527378007D+03 0.881789168817369D+02
 0.188347118840030D+03 0.158647821099996D+03 -.101229820378540D+03 -.761770974063808D+01
 0.134701434078493D+03 -.228422424106751D+02 0.113619210338122D+02 -.105006662172004D+03
 0.000000000000000D+00 -.000000000000000D+00 0.000000000000000D+00 -.000000000000000D+00
 0.112792906818059D+04 0.000000000000000D+00 0.000000000000000D+00 0.112792906818059D+04
 0.393031118259707D+04 0.000000000000000D+00 0.000000000000000D+00 -.393031118259707D+04
 0.105389923999771D+03 -.164785543867538D+02 0.614060021493162D+02 0.244454550309055D+02
 0.681177097034008D+03 0.547969883266280D+03 -.394912298079435D+03 0.881789168817369D+02
 0.786068550285323D+03 0.663456108981516D+03 -.421511242674598D+03 -.761770974063808D+01
 0.247396758355464D+03 0.175108529972066D+03 -.114230222449830D+03 -.105006662172004D+03
 0.323820792110310D+04 -.137005596783311D+04 0.869247761054547D+03 -.280238211441648D+04
0.459126814940D-04 0.000000000000D+00 0.000000000000D+00 0.163942649768D-07 0.000000000000D+00  7 2 -2 24 -11 11 -24 21 0 0.70356687D-01 0.57178860D-01 0.14046332D+06 0.14046332D+06 0.14046332D+06 0.11098102D+01  1  2  2  1  7  1        2 0.111962475130D-02 0.100000000000D+01
-.252251924321D-05 0.000000000000D+00 -.176316786024D-06 0.163942649768D-07 0.000000000000D+00  7 2 -2 24 -11 11 -24 21 2 0.70356687D-01 0.57178860D-01 0.14046332D+06 0.14046332D+06 0.14046332D+06 0.11098102D+01  1  2  3  1  7  1        2 -.757655500354D-04 0.100000000000D+01
0.288686754753D-05 0.000000000000D+00 0.000000000000D+00 0.163942649768D-07 0.000000000000D+00  7 2 -2 24 -11 11 -24 21 2 0.70356687D-01 0.57178860D-01 0.14046332D+06 0.14046332D+06 0.14046332D+06 0.11098102D+01  1  2 15  1  7  1        2 0.867089946715D-04 0.100000000000D+01
  </mgrwgt>
  </event>
  <event>
  8     66 0.26993063E-05 0.32535540E+03 0.75467711E-02 0.90043008E-01
        2 -1    0    0  501    0 0.00000000E+00 0.00000000E+00 0.13946957E+04 0.13946958E+04 0.32000000E+00 0.0000E+00 0.9000E+01
       -2 -1    0    0    0  501 0.00000000E+00 0.00000000E+00 -.88227018E+02 0.88227598E+02 0.32000000E+00 0.0000E+00 0.9000E+01
       25  2    1    2    0    0 -.12194597E+03 0.23485755E+03 0.55363131E+03 0.67969862E+03 0.29232466E+03 0.0000E+00 0.0000E+00
       23  2    1    2    0    0 0.12194597E+03 -.23485755E+03 0.75283740E+03 0.80322474E+03 0.91525607E+02 0.0000E+00 0.0000E+00
       24  1    3    3    0    0 -.71882932E+02 0.26545499E+03 0.46616489E+03 0.54718409E+03 0.80419002E+02 0.0000E+00 0.9000E+01
      -11  1    4    4    0    0 0.10405540E+03 -.20101921E+03 0.71261374E+03 0.74769953E+03 0.51099893E-03 0.0000E+00 0.9000E+01
       11  1    4    4    0    0 0.17890565E+02 -.33838337E+02 0.40223669E+02 0.55525210E+02 0.51099893E-03 0.0000E+00 0.9000E+01
      -24  1    3    3    0    0 -.50063037E+02 -.30597445E+02 0.87466412E+02 0.13251453E+03 0.80419002E+02 0.0000E+00 0.9000E+01
#aMCatNLO 1  0  0  2  2 0.62340720D+03 0.00000000D+00  -5  7  0 0.00000000D+00 0.00000000D+00 0.00000000D+00 0.00000000D+00 0.00000000D+00
  <mgrwgt>
 0.3309716209D-02    3    2    0
 0.350785264763176D+03 0.000000000000000D+00 0.000000000000000D+00 0.350785264763176D+03
 0.350785264763176D+03 0.000000000000000D+00 0.000000000000000D+00 -.350785264763176D+03
 0.288498761618347D+03 -.718829317518145D+02 0.265454991811190D+03 -.336275325623888D+02
 0.253393699651859D+03 0.104055404026533D+03 -.201019210188354D+03 0.113895202056021D+03
 0.424599728908317D+02 0.178905651349541D+02 -.338383368383298D+02 -.183778109974464D+02
 0.117218095365313D+03 -.500630374096729D+02 -.305974447845065D+02 -.618898584961861D+02
 0.000000000000000D+00 0.000000000000000D+00 0.000000000000000D+00 0.000000000000000D+00
 0.108462011995533D+04 0.000000000000000D+00 0.000000000000000D+00 0.108462011995533D+04
 0.627155885571883D+03 0.000000000000000D+00 0.000000000000000D+00 -.627155885571883D+03
 0.303047190957917D+03 -.256112336338896D+03 0.136550518936807D+03 -.336275325623888D+02
 0.365623539161245D+03 -.887295805363945D+02 -.335909983292024D+03 0.113895202056021D+03
 0.610135976155147D+02 -.143349520913276D+02 -.563863840432193D+02 -.183778109974464D+02
 0.208845235970986D+03 -.151611282525968D+03 -.101650288044646D+03 -.618898584961861D+02
 0.773246441821552D+03 0.510788151492586D+03 0.357396136443083D+03 0.457464234383449D+03
0.460500977182D-04 0.000000000000D+00 0.000000000000D+00 0.114733282358D-07 0.000000000000D+00  7 2 -2 24 -11 11 -24 21 0 0.21456862D+00 0.13573435D-01 0.10585614D+06 0.10585614D+06 0.10585614D+06 0.11196994D+01  1  2  2  2  7  2       -2 0.326678415959D-02 0.100000000000D+01
-.254072211584D-05 0.000000000000D+00 -.176844500507D-06 0.114733282358D-07 0.000000000000D+00  7 2 -2 24 -11 11 -24 21 2 0.21456862D+00 0.13573435D-01 0.10585614D+06 0.10585614D+06 0.10585614D+06 0.11196994D+01  1  2  3  2  7  2       -2 -.225969575320D-03 0.100000000000D+01
0.302343491547D-05 0.000000000000D+00 0.000000000000D+00 0.114733282358D-07 0.000000000000D+00  7 2 -2 24 -11 11 -24 21 2 0.21456862D+00 0.13573435D-01 0.10585614D+06 0.10585614D+06 0.10585614D+06 0.11196994D+01  1  2 15  2  7  2       -2 0.268901624305D-03 0.100000000000D+01
  </mgrwgt>
  </event>
  <event>
  8     66 0.26993063E-05 0.18037933E+03 0.75467711E-02 0.10350833E+00
        2 -1    0    0  501    0 0.00000000E+00 0.00000000E+00 0.11056475E+04 0.11056475E+04 0.32000000E+00 0.0000E+00 0.9000E+01
       -2 -1    0    0    0  501 0.00000000E+00 0.00000000E+00 -.50015004E+02 0.50016028E+02 0.32000000E+00 0.0000E+00 0.9000E+01
       25  2    1    2    0    0 -.54519244E+02 -.53727832E+02 0.50453949E+03 0.59200311E+03 0.30008092E+03 0.0000E+00 0.0000E+00
       23  2    1    2    0    0 0.54519244E+02 0.53727832E+02 0.55109297E+03 0.56366043E+03 0.90280613E+02 0.0000E+00 0.0000E+00
       24  1    3    3    0    0 -.20737542E+01 -.10716838E+03 0.44961757E+03 0.46916153E+03 0.80419002E+02 0.0000E+00 0.9000E+01
      -11  1    4    4    0    0 0.44122968E+02 -.15580233E+02 0.26565231E+03 0.26974197E+03 0.51099893E-03 0.0000E+00 0.9000E+01
       11  1    4    4    0    0 0.10396276E+02 0.69308065E+02 0.28544066E+03 0.29391846E+03 0.51099893E-03 0.0000E+00 0.9000E+01
      -24  1    3    3    0    0 -.52445490E+02 0.53440552E+02 0.54921926E+02 0.12284159E+03 0.80419002E+02 0.0000E+00 0.9000E+01
#aMCatNLO 1  0  0  2  2 0.10835112D+03 0.00000000D+00  -5  7  0 0.00000000D+00 0.00000000D+00 0.00000000D+00 0.00000000D+00 0.00000000D+00
  <mgrwgt>
 0.5182429104D-03    4    2    0
 0.235158628610675D+03 0.000000000000000D+00 0.000000000000000D+00 0.235158628610675D+03
 0.235158628610675D+03 0.000000000000000D+00 0.000000000000000D+00 -.235158628610675D+03
 0.143651901123826D+03 -.207375420075906D+01 -.107168383307237D+03 0.517618576265083D+02
 0.665503045265880D+02 0.441229680541945D+02 -.155802334449177D+02 0.473219087576991D+02
 0.815415973195886D+02 0.103962759490204D+02 0.693080651311565D+02 0.416814304888536D+02
 0.178573454251348D+03 -.524454898024558D+02 0.534405516209985D+02 -.140765196873061D+03
 0.000000000000000D+00 0.000000000000000D+00 -.000000000000000D+00 0.000000000000000D+00
 0.330647277732784D+03 0.000000000000000D+00 0.000000000000000D+00 0.330647277732784D+03
 0.274174424617258D+03 0.000000000000000D+00 0.000000000000000D+00 -.274174424617258D+03
 0.127055096927241D+03 -.189973909189526D+02 -.814591365909653D+02 0.517618576265083D+02
 0.597063646144834D+02 0.362298510783653D+02 -.358954284625726D+01 0.473219087576991D+02
 0.956975014107206D+02 -.684080823307889D+00 0.861405953200052D+02 0.416814304888536D+02
 0.200177844445815D+03 -.761236711270687D+02 0.894108466352297D+02 -.140765196873061D+03
 0.122184894951782D+03 0.595752917909640D+02 -.905027625180123D+02 0.564728531155264D+02
0.265027868747D-05 0.000000000000D+00 0.000000000000D+00 0.311205661994D-06 0.000000000000D+00  7 2 -2 24 -11 11 -24 21 0 0.17009969D+00 0.76946983D-02 0.32536704D+05 0.32536704D+05 0.32536704D+05 0.11640792D+01  1  2  2  2  7  2       -2 0.654036569883D-03 0.100000000000D+01
-.134647236951D-06 0.000000000000D+00 -.101777679943D-07 0.311205661994D-06 0.000000000000D+00  7 2 -2 24 -11 11 -24 21 2 0.17009969D+00 0.76946983D-02 0.32536704D+05 0.32536704D+05 0.32536704D+05 0.11640792D+01  1  2  3  2  7  2       -2 -.450269991866D-04 0.100000000000D+01
0.167089411904D-06 0.000000000000D+00 0.000000000000D+00 0.311205661994D-06 0.000000000000D+00  7 2 -2 24 -11 11 -24 21 2 0.17009969D+00 0.76946983D-02 0.32536704D+05 0.32536704D+05 0.32536704D+05 0.11640792D+01  1  2 15  2  7  2       -2 0.558758945542D-04 0.100000000000D+01
-.438515006179D-06 0.000000000000D+00 0.000000000000D+00 0.311205661994D-06 0.000000000000D+00  7 2 -2 24 -11 11 -24 21 2 0.17009969D+00 0.76946983D-02 0.32536704D+05 0.32536704D+05 0.32536704D+05 0.11640792D+01  1  2  4  2  7  2       -2 -.146642554824D-03 0.100000000000D+01
  </mgrwgt>
  </event>
  <event>
  8     66 0.26993063E-05 0.39257808E+03 0.75467711E-02 0.89592991E-01
        2 -1    0    0  501    0 0.00000000E+00 0.00000000E+00 0.58500967E+03 0.58500975E+03 0.32000000E+00 0.0000E+00 0.9000E+01
       -2 -1    0    0    0  501 0.00000000E+00 0.00000000E+00 -.33970944E+03 0.33970959E+03 0.32000000E+00 0.0000E+00 0.9000E+01
       25  2    1    2    0    0 -.24580660E+03 -.22512655E+03 -.72663369E+02 0.45395688E+03 0.29948963E+03 0.0000E+00 0.0000E+00
       23  2    1    2    0    0 0.24580660E+03 0.22512655E+03 0.31796360E+03 0.47076246E+03 0.97023713E+02 0.0000E+00 0.0000E+00
       24  1    3    3    0    0 -.24706675E+03 -.69369044E+02 -.14710242E+02 0.26932815E+03 0.80419002E+02 0.0000E+00 0.9000E+01
      -11  1    4    4    0    0 0.98095997E+02 0.13841487E+03 0.20261333E+03 0.26426060E+03 0.51099893E-03 0.0000E+00 0.9000E+01
       11  1    4    4    0    0 0.14771060E+03 0.86711679E+02 0.11535026E+03 0.20650186E+03 0.51099893E-03 0.0000E+00 0.9000E+01
      -24  1    3    3    0    0 0.12601570E+01 -.15575750E+03 -.57953127E+02 0.18462873E+03 0.80419002E+02 0.0000E+00 0.9000E+01
#aMCatNLO 1  0  0  2  1 0.60798078D+03 0.00000000D+00  -5  7  0 0.00000000D+00 0.00000000D+00 0.00000000D+00 0.00000000D+00 0.00000000D+00
  <mgrwgt>
 0.8462368619D-03    3    2    0
 0.445795261394391D+03 0.000000000000000D+00 0.000000000000000D+00 0.445795261394391D+03
 0.445795261394391D+03 0.000000000000000D+00 0.000000000000000D+00 -.445795261394391D+03
 0.283382751304901D+03 -.247066753874099D+03 -.693690435257076D+02 -.893561565489951D+02
 0.218335416913707D+03 0.980959967391527D+02 0.138414866944300D+03 0.137436728393200D+03
 0.182438931325271D+03 0.147710600184051D+03 0.867116789901652D+02 0.628221854370002D+02
 0.207433423244904D+03 0.126015695089588D+01 -.155757502408758D+03 -.110902757281205D+03
 0.000000000000000D+00 -.000000000000000D+00 -.000000000000000D+00 0.000000000000000D+00
 0.190452859261849D+04 0.000000000000000D+00 0.000000000000000D+00 0.190452859261849D+04
 0.607279379146400D+03 0.000000000000000D+00 0.000000000000000D+00 -.607279379146400D+03
 0.168262812648176D+03 -.111080296895503D+03 -.390102947220728D+02 -.893561565489951D+02
 0.350116999921417D+03 0.269251956845870D+03 0.176625148428011D+03 0.137436728393200D+03
 0.332006720261723D+03 0.302605604255493D+03 0.121291729268871D+03 0.628221854370002D+02
 0.228767902227924D+03 0.132596491268529D+03 -.126436885702296D+03 -.110902757281205D+03
 0.143265353670565D+04 -.593373755474390D+03 -.132469697272514D+03 0.129724921347209D+04
0.378640624192D-04 0.000000000000D+00 0.000000000000D+00 0.671993268221D-07 0.000000000000D+00  7 2 -2 24 -11 11 -24 21 0 0.90001506D-01 0.52263009D-01 0.15411755D+06 0.15411755D+06 0.15411755D+06 0.11066250D+01  1  2  2  2  7  2       -2 0.836339545142D-03 0.100000000000D+01
-.206222633838D-05 0.000000000000D+00 -.145407969526D-06 0.671993268221D-07 0.000000000000D+00  7 2 -2 24 -11 11 -24 21 2 0.90001506D-01 0.52263009D-01 0.15411755D+06 0.15411755D+06 0.15411755D+06 0.11066250D+01  1  2  3  2  7  2       -2 -.557818232516D-04 0.100000000000D+01
0.242812523011D-05 0.000000000000D+00 0.000000000000D+00 0.671993268221D-07 0.000000000000D+00  7 2 -2 24 -11 11 -24 21 2 0.90001506D-01 0.52263009D-01 0.15411755D+06 0.15411755D+06 0.15411755D+06 0.11066250D+01  1  2 15  2  7  2       -2 0.656791400139D-04 0.100000000000D+01
  </mgrwgt>
  </event>
  <event>
  8     66 0.26993063E-05 0.93809252E+02 0.75467711E-02 0.99693111E-01
        2 -1    0    0  501    0 0.00000000E+00 0.00000000E+00 0.35812916E+04 0.35812916E+04 0.32000000E+00 0.0000E+00 0.9000E+01
       -2 -1    0    0    0  501 0.00000000E+00 0.00000000E+00 -.43134440E+02 0.43135627E+02 0.32000000E+00 0.0000E+00 0.9000E+01
       25  2    1    2    0    0 -.16328549E+03 0.10538623E+03 0.77862347E+03 0.85656521E+03 0.29946793E+03 0.0000E+00 0.0000E+00
       23  2    1    2    0    0 0.16328549E+03 -.10538623E+03 0.27595337E+04 0.27678620E+04 0.90915494E+02 0.0000E+00 0.0000E+00
       24  1    3    3    0    0 -.12291623E+03 0.93717417E+02 0.73595172E+03 0.75629592E+03 0.80419002E+02 0.0000E+00 0.9000E+01
      -13  1    4    4    0    0 0.56812810E+02 0.88657598E+01 0.85915008E+03 0.86107210E+03 0.10565837E+00 0.0000E+00 0.9000E+01
       13  1    4    4    0    0 0.10647268E+03 -.11425199E+03 0.19003836E+04 0.19067899E+04 0.10565837E+00 0.0000E+00 0.9000E+01
      -24  1    3    3    0    0 -.40369252E+02 0.11668817E+02 0.42671746E+02 0.10026930E+03 0.80419002E+02 0.0000E+00 0.9000E+01
#aMCatNLO 1  0  0  1  2 0.14854051D+03 0.00000000D+00  -5  7  0 0.00000000D+00 0.00000000D+00 0.00000000D+00 0.00000000D+00 0.00000000D+00
  <mgrwgt>
 0.8071933249D-03    9    2    0
 0.393038401731597D+03 0.000000000000000D+00 0.000000000000000D+00 0.393038401731597D+03
 0.393038401731597D+03 0.000000000000000D+00 0.000000000000000D+00 -.393038401731597D+03
 0.174571561215494D+03 -.122916234047998D+03 0.937174167786366D+02 -.108008902707864D+02
 0.103151549260731D+03 0.568127426435117D+02 0.886592601495393D+01 0.856384828456717D+02
 0.238100934953908D+03 0.106472743842098D+03 -.114252159484531D+03 0.179727722118156D+03
 0.270252758033061D+03 -.403692524376119D+02 0.116688166909400D+02 -.254565314693042D+03
 0.000000000000000D+00 0.000000000000000D+00 0.000000000000000D+00 0.000000000000000D+00
 0.525101112537869D+03 0.000000000000000D+00 0.000000000000000D+00 0.525101112537869D+03
 0.444084877465226D+03 0.000000000000000D+00 0.000000000000000D+00 -.444084877465226D+03
 0.172975089140249D+03 -.138243014363961D+03 0.650028865330673D+02 -.108008902707864D+02
 0.984438451963437D+02 0.479224013889182D+02 -.779001656305655D+01 0.856384828456717D+02
 0.251886901957765D+03 0.848643182504490D+02 -.154735273186129D+03 0.179727722118156D+03
 0.276682303139484D+03 -.644890462008631D+02 -.335193137091833D+02 -.254565314693042D+03
 0.169197850569252D+03 0.699453409254567D+02 0.131041716925302D+03 0.810162350726432D+02
0.560036968672D-04 0.000000000000D+00 0.000000000000D+00 0.155469554001D-05 0.000000000000D+00  7 2 -2 24 -13 13 -24 21 0 0.55096803D+00 0.66361601D-02 0.57275652D+05 0.57275652D+05 0.57275652D+05 0.11421417D+01  1  2  2  1  7  1        2 0.639146681866D-03 0.100000000000D+01
-.218031596434D-05 0.000000000000D+00 -.215068942082D-06 0.155469554001D-05 0.000000000000D+00  7 2 -2 24 -13 13 -24 21 2 0.55096803D+00 0.66361601D-02 0.57275652D+05 0.57275652D+05 0.57275652D+05 0.11421417D+01  1  2  3  1  7  1        2 -.324596040269D-04 0.100000000000D+01
0.338197942205D-05 0.000000000000D+00 0.000000000000D+00 0.155469554001D-05 0.000000000000D+00  7 2 -2 24 -13 13 -24 21 2 0.55096803D+00 0.66361601D-02 0.57275652D+05 0.57275652D+05 0.57275652D+05 0.11421417D+01  1  2 15  1  7  1        2 0.503494514842D-04 0.100000000000D+01
0.930402395228D-05 0.000000000000D+00 0.000000000000D+00 0.155469554001D-05 0.000000000000D+00  7 2 -2 24 -13 13 -24 21 2 0.76246206D+00 0.66361601D-02 0.10712672D+06 0.10712672D+06 0.10712672D+06 0.11192768D+01  1  2 12  1  7  1        2 0.696050400780D-05 0.100000000000D+01
-.259046021979D-04 0.000000000000D+00 0.000000000000D+00 0.155469554001D-05 0.000000000000D+00  7 2 -2 24 -13 13 -24 21 2 0.55096803D+00 0.66361601D-02 0.57275652D+05 0.57275652D+05 0.57275652D+05 0.11421417D+01  1  2  4  1  7  1        2 -.385656548670D-03 0.100000000000D+01
-.333282841686D-04 0.000000000000D+00 -.142934886036D-04 0.155469554001D-05 0.000000000000D+00  7 2 -2 24 -13 13 -24 21 2 0.74801898D+00 0.66361601D-02 0.57275652D+05 0.57275652D+05 0.57275652D+05 0.11421417D+01  1  2  5  1  7  1        2 -.356077677484D-04 0.100000000000D+01
0.379153272353D-04 0.000000000000D+00 0.145114481768D-04 0.155469554001D-05 0.000000000000D+00  7 2 -2 24 -13 13 -24 21 2 0.55096803D+00 0.66361601D-02 0.57275652D+05 0.57275652D+05 0.57275652D+05 0.11421417D+01  1  2  6  1  7  1        2 0.564467044564D-03 0.100000000000D+01
0.380915520463D-06 0.000000000000D+00 0.000000000000D+00 0.155469554001D-05 0.000000000000D+00  7 21 -2 24 -13 13 -24 -2 2 0.76246206D+00 0.66361601D-02 0.10712672D+06 0.10712672D+06 0.10712672D+06 0.11192768D+01  1  2 12  3  7  1        2 0.204737540581D-08 0.100000000000D+01
-.976071716346D-06 0.000000000000D+00 -.560147561913D-06 0.155469554001D-05 0.000000000000D+00  7 21 -2 24 -13 13 -24 -2 2 0.74801898D+00 0.66361601D-02 0.57275652D+05 0.57275652D+05 0.57275652D+05 0.11421417D+01  1  2  5  3  7  1        2 -.848392912663D-08 0.100000000000D+01
  </mgrwgt>
  </event>
  <event>
  8     66 0.26993063E-05 0.31084373E+03 0.75467711E-02 0.93111183E-01
        2 -1    0    0  501    0 0.00000000E+00 0.00000000E+00 0.66524151E+03 0.66524159E+03 0.32000000E+00 0.0000E+00 0.9000E+01
       -2 -1    0    0    0  501 0.00000000E+00 0.00000000E+00 -.16461290E+03 0.16461321E+03 0.32000000E+00 0.0000E+00 0.9000E+01
       25  2    1    2    0    0 0.23465781E+03 -.24414215E+02 0.18128393E+03 0.42238220E+03 0.29980414E+03 0.0000E+00 0.0000E+00
       23  2    1    2    0    0 -.23465781E+03 0.24414215E+02 0.31934468E+03 0.40747260E+03 0.91610851E+02 0.0000E+00 0.0000E+00
       24  1    3    3    0    0 0.27101042E+03 -.14376329E+02 0.17619345E+03 0.33341367E+03 0.80419002E+02 0.0000E+00 0.9000E+01
      -11  1    4    4    0    0 -.65217760E+02 -.30081510E+02 0.63890357E+02 0.96126121E+02 0.51099893E-03 0.0000E+00 0.9000E+01
       11  1    4    4    0    0 -.16944005E+03 0.54495725E+02 0.25545432E+03 0.31134647E+03 0.51099893E-03 0.0000E+00 0.9000E+01
      -24  1    3    3    0    0 -.36352608E+02 -.10037886E+02 0.50904793E+01 0.88968535E+02 0.80419002E+02 0.0000E+00 0.9000E+01
#aMCatNLO 1  0  0  2  2 0.40177420D+03 0.00000000D+00  -5  7  0 0.00000000D+00 0.00000000D+00 0.00000000D+00 0.00000000D+00 0.00000000D+00
  <mgrwgt>
 0.5656999660D-03    5    2    0
 0.330919166986723D+03 0.000000000000000D+00 0.000000000000000D+00 0.330919166986723D+03
 0.330919166986723D+03 0.000000000000000D+00 0.000000000000000D+00 -.330919166986723D+03
 0.284778684510426D+03 0.271010419218976D+03 -.143763286930529D+02 -.312786995442979D+02
 0.722009890228199D+02 -.652177597834299D+02 -.300815103986083D+02 0.739792922665650D+01
 0.197154826696376D+03 -.169440051337581D+03 0.544957252454918D+02 0.847956993152603D+02
 0.107703833743823D+03 -.363526080979655D+02 -.100378861538305D+02 -.609149289976188D+02
 0.000000000000000D+00 0.000000000000000D+00 -.000000000000000D+00 -.000000000000000D+00
 0.470357350017339D+03 0.000000000000000D+00 0.000000000000000D+00 0.470357350017339D+03
 0.871956770855574D+03 0.000000000000000D+00 0.000000000000000D+00 -.871956770855574D+03
 0.283990060360214D+03 0.231646107314881D+03 0.139802941133969D+03 -.312786995442979D+02
 0.765637724886947D+02 -.755137236972162D+02 0.102449711682593D+02 0.739792922665650D+01
 0.288138349324305D+03 -.203027044501476D+03 0.186046813812994D+03 0.847956993152603D+02
 0.125550989478094D+03 -.524961034943775D+02 0.531917808282492D+02 -.609149289976188D+02
 0.568070949221606D+03 0.993907643781886D+02 -.389286506943472D+03 -.401599420838235D+03
0.778165460450D-05 0.000000000000D+00 0.000000000000D+00 0.115959614853D-05 0.000000000000D+00  7 2 -2 24 -11 11 -24 21 0 0.10234488D+00 0.25325091D-01 0.96623822D+05 0.96623822D+05 0.96623822D+05 0.11229481D+01  1  2  2  2  7  2       -2 0.561970609023D-03 0.100000000000D+01
-.430255386567D-06 0.000000000000D+00 -.298836026380D-07 0.115959614853D-05 0.000000000000D+00  7 2 -2 24 -11 11 -24 21 2 0.10234488D+00 0.25325091D-01 0.96623822D+05 0.96623822D+05 0.96623822D+05 0.11229481D+01  1  2  3  2  7  2       -2 -.391820675932D-04 0.100000000000D+01
0.502368765658D-06 0.000000000000D+00 0.000000000000D+00 0.115959614853D-05 0.000000000000D+00  7 2 -2 24 -11 11 -24 21 2 0.10234488D+00 0.25325091D-01 0.96623822D+05 0.96623822D+05 0.96623822D+05 0.11229481D+01  1  2 15  2  7  2       -2 0.457492167380D-04 0.100000000000D+01
-.467753499053D-06 0.000000000000D+00 -.258364140685D-05 0.115959614853D-05 0.000000000000D+00  7 2 -2 24 -11 11 -24 21 2 0.10234488D+00 0.89438420D-01 0.96623822D+05 0.96623822D+05 0.96623822D+05 0.11229481D+01  1  2  5  2  7  2       -2 -.360032655986D-05 0.100000000000D+01
0.101662173770D-07 0.000000000000D+00 -.381952748218D-06 0.115959614853D-05 0.000000000000D+00  7 2 21 24 -11 11 -24 2 2 0.10234488D+00 0.89438420D-01 0.96623822D+05 0.96623822D+05 0.96623822D+05 0.11229481D+01  1  2  5  4  7  2       -2 0.762534431480D-06 0.100000000000D+01
  </mgrwgt>
  </event>
  <event>
  8     66 0.26993063E-05 0.15863678E+03 0.75467711E-02 0.95511747E-01
        2 -1    0    0  501    0 0.00000000E+00 0.00000000E+00 0.26144011E+03 0.26144030E+03 0.32000000E+00 0.0000E+00 0.9000E+01
       -2 -1    0    0    0  501 0.00000000E+00 0.00000000E+00 -.55029180E+03 0.55029190E+03 0.32000000E+00 0.0000E+00 0.9000E+01
       25  2    1    2    0    0 -.56956823E+02 0.41388508E+02 0.16111584E+03 0.34762714E+03 0.29988202E+03 0.0000E+00 0.0000E+00
       23  2    1    2    0    0 0.56956823E+02 -.41388508E+02 -.44996753E+03 0.46410506E+03 0.89250424E+02 0.0000E+00 0.0000E+00
       24  1    3    3    0    0 0.32745809E+01 0.97432195E+02 0.19075811E+03 0.22882227E+03 0.80419002E+02 0.0000E+00 0.9000E+01
      -11  1    4    4    0    0 0.44460648E+02 -.15468391E+02 -.41973907E+03 0.42237058E+03 0.51099893E-03 0.0000E+00 0.9000E+01
       11  1    4    4    0    0 0.12496176E+02 -.25920117E+02 -.30228463E+02 0.41734480E+02 0.51099893E-03 0.0000E+00 0.9000E+01
      -24  1    3    3    0    0 -.60231404E+02 -.56043687E+02 -.29642277E+02 0.11880487E+03 0.80419002E+02 0.0000E+00 0.9000E+01
#aMCatNLO 1  0  0  1  2 0.40450605D+03 0.00000000D+00  -5  7  0 0.00000000D+00 0.00000000D+00 0.00000000D+00 0.00000000D+00 0.00000000D+00
  <mgrwgt>
 0.8961819045D-03    3    2    0
 0.379299967049605D+03 0.000000000000000D+00 0.000000000000000D+00 0.379299967049605D+03
 0.379299967049605D+03 0.000000000000000D+00 0.000000000000000D+00 -.379299967049605D+03
 0.317483821682021D+03 0.327458094880078D+01 0.974321946619545D+02 0.291247327263987D+03
 0.292129550843403D+03 0.444606477286002D+02 -.154683909545092D+02 -.288311730876148D+03
 0.331474828360363D+02 0.124961755970284D+02 -.259201165496906D+02 -.164544453526701D+02
 0.115839078737749D+03 -.602314042744294D+02 -.560436871577548D+02 0.135188489648311D+02
 0.000000000000000D+00 0.000000000000000D+00 -.000000000000000D+00 -.000000000000000D+00
 0.588472381792231D+03 0.000000000000000D+00 0.000000000000000D+00 0.588472381792231D+03
 0.687746092608687D+03 0.000000000000000D+00 0.000000000000000D+00 -.687746092608687D+03
 0.390328230568745D+03 -.136350646580564D+03 0.206088347955926D+03 0.291247327263987D+03
 0.307290117096078D+03 -.737827577848946D+02 0.765484588857069D+02 -.288311730876148D+03
 0.238185502157189D+02 0.125887707829859D+01 -.171752668397452D+02 -.164544453526701D+02
 0.138271776133261D+03 -.110358109260905D+03 -.170351566972637D+02 0.135188489648311D+02
 0.416509800387115D+03 0.319232636548065D+03 -.248426383304624D+03 -.992737108164558D+02
0.417585498544D-04 0.000000000000D+00 0.000000000000D+00 0.165372639608D-05 0.000000000000D+00  7 2 -2 24 -11 11 -24 21 0 0.40221577D-01 0.84660300D-01 0.25165629D+05 0.25165629D+05 0.25165629D+05 0.11744833D+01  1  2  2  1  7  1        2 0.831644504668D-03 0.100000000000D+01
-.176542192110D-06 0.000000000000D+00 -.160363826720D-06 0.165372639608D-05 0.000000000000D+00  7 2 -2 24 -11 11 -24 21 2 0.40221577D-01 0.84660300D-01 0.25165629D+05 0.25165629D+05 0.25165629D+05 0.11744833D+01  1  2  3  1  7  1        2 -.484991950454D-05 0.100000000000D+01
0.252577170502D-05 0.000000000000D+00 0.000000000000D+00 0.165372639608D-05 0.000000000000D+00  7 2 -2 24 -11 11 -24 21 2 0.40221577D-01 0.84660300D-01 0.25165629D+05 0.25165629D+05 0.25165629D+05 0.11744833D+01  1  2 15  1  7  1        2 0.693873193133D-04 0.100000000000D+01
  </mgrwgt>
  </event>
  <event>
  8     66 0.26993063E-05 0.19286566E+03 0.75467711E-02 0.97168947E-01
        2 -1    0    0  501    0 0.00000000E+00 0.00000000E+00 0.15721787E+04 0.15721787E+04 0.32000000E+00 0.0000E+00 0.9000E+01
       -2 -1    0    0    0  501 0.00000000E+00 0.00000000E+00 -.32197912E+02 0.32199503E+02 0.32000000E+00 0.0000E+00 0.9000E+01
       25  2    1    2    0    0 0.87833188E+02 -.25144039E+02 0.99762049E+03 0.10465280E+04 0.30270016E+03 0.0000E+00 0.0000E+00
       23  2    1    2    0    0 -.87833188E+02 0.25144039E+02 0.54236029E+03 0.55785020E+03 0.93248409E+02 0.0000E+00 0.0000E+00
       24  1    3    3    0    0 -.70617250E+02 -.22420224E+02 0.61508354E+03 0.62472749E+03 0.80419002E+02 0.0000E+00 0.9000E+01
      -13  1    4    4    0    0 -.40424236E+02 0.30947983E+02 0.45869200E+03 0.46150868E+03 0.10565837E+00 0.0000E+00 0.9000E+01
       13  1    4    4    0    0 -.47408952E+02 -.58039443E+01 0.83668291E+02 0.96341521E+02 0.10565837E+00 0.0000E+00 0.9000E+01
      -24  1    3    3    0    0 0.15845044E+03 -.27238150E+01 0.38253695E+03 0.42180054E+03 0.80419002E+02 0.0000E+00 0.9000E+01
#aMCatNLO 1  0  0  1  2 0.31684818D+03 0.00000000D+00  -5  7  0 0.00000000D+00 0.00000000D+00 0.00000000D+00 0.00000000D+00 0.00000000D+00
  <mgrwgt>
 0.1466687863D-02    3    2    0
 0.224993718998572D+03 0.000000000000000D+00 0.000000000000000D+00 0.224993718998572D+03
 0.224993718998572D+03 0.000000000000000D+00 0.000000000000000D+00 -.224993718998572D+03
 0.122408351228504D+03 -.706168602130244D+02 -.224202447123339D+02 0.550198162192805D+02
 0.756859089913263D+02 -.404244665800784D+02 0.309480951766482D+02 0.560038813520687D+02
 0.571587442041650D+02 -.474091389683592D+02 -.580393677995605D+01 -.313976097677873D+02
 0.194734433573149D+03 0.158450465761462D+03 -.272391368435833D+01 -.796260878035618D+02
 0.000000000000000D+00 -.000000000000000D+00 0.000000000000000D+00 -.000000000000000D+00
 0.372614855787372D+03 0.000000000000000D+00 0.000000000000000D+00 0.372614855787372D+03
 0.532745199765408D+03 0.000000000000000D+00 0.000000000000000D+00 -.532745199765408D+03
 0.152046317551429D+03 -.480499632378959D+02 -.106371460376422D+03 0.550198162192805D+02
 0.641324905829329D+02 -.289279690621233D+02 -.118200773184542D+02 0.560038813520687D+02
 0.651874928475134D+02 -.373492812180298D+02 -.432276591676080D+02 -.313976097677873D+02
 0.268980376768780D+03 0.196579182599646D+03 -.144566725915263D+03 -.796260878035618D+02
 0.355013377802125D+03 -.822519690815968D+02 0.305985922777748D+03 -.160130343978036D+03
0.545498082322D-05 0.000000000000D+00 0.000000000000D+00 0.623860402238D-08 0.000000000000D+00  7 2 -2 24 -13 13 -24 21 0 0.24187377D+00 0.49536498D-02 0.37197162D+05 0.37197162D+05 0.37197162D+05 0.11587691D+01  1  2  2  1  7  1        2 0.144521015022D-02 0.100000000000D+01
-.294306930539D-06 0.000000000000D+00 -.209485626906D-07 0.623860402238D-08 0.000000000000D+00  7 2 -2 24 -13 13 -24 21 2 0.24187377D+00 0.49536498D-02 0.37197162D+05 0.37197162D+05 0.37197162D+05 0.11587691D+01  1  2  3  1  7  1        2 -.104696475048D-03 0.100000000000D+01
0.354681835635D-06 0.000000000000D+00 0.000000000000D+00 0.623860402238D-08 0.000000000000D+00  7 2 -2 24 -13 13 -24 21 2 0.24187377D+00 0.49536498D-02 0.37197162D+05 0.37197162D+05 0.37197162D+05 0.11587691D+01  1  2 15  1  7  1        2 0.126174187902D-03 0.100000000000D+01
  </mgrwgt>
  </event>
  <event>
  8     66 0.26993063E-05 0.22290260E+03 0.75467711E-02 0.93327058E-01
        2 -1    0    0  501    0 0.00000000E+00 0.00000000E+00 0.45873860E+03 0.45873871E+03 0.32000000E+00 0.0000E+00 0.9000E+01
       -2 -1    0    0    0  501 0.00000000E+00 0.00000000E+00 -.39625482E+03 0.39625495E+03 0.32000000E+00 0.0000E+00 0.9000E+01
       25  2    1    2    0    0 -.12032755E+03 0.80651558E+01 0.38239985E+03 0.50143713E+03 0.30110760E+03 0.0000E+00 0.0000E+00
       23  2    1    2    0    0 0.12032755E+03 -.80651558E+01 -.31991608E+03 0.35355653E+03 0.90067520E+02 0.0000E+00 0.0000E+00
       24  1    3    3    0    0 -.10337309E+01 0.10434104E+03 0.25322213E+03 0.28544139E+03 0.80419002E+02 0.0000E+00 0.9000E+01
      -13  1    4    4    0    0 0.12837027E+03 -.16350829E+02 -.23868186E+03 0.27150565E+03 0.10565837E+00 0.0000E+00 0.9000E+01
       13  1    4    4    0    0 -.80427239E+01 0.82856730E+01 -.81234220E+02 0.82050883E+02 0.10565837E+00 0.0000E+00 0.9000E+01
      -24  1    3    3    0    0 -.11929382E+03 -.96275888E+02 0.12917772E+03 0.21599574E+03 0.80419002E+02 0.0000E+00 0.9000E+01
#aMCatNLO 1  0  0  2  2 0.45551195D+03 0.00000000D+00  -5  7  0 0.00000000D+00 0.00000000D+00 0.00000000D+00 0.00000000D+00 0.00000000D+00
  <mgrwgt>
 0.8607261988D-03    3    2    0
 0.426353708947387D+03 0.000000000000000D+00 0.000000000000000D+00 0.426353708947387D+03
 0.426353708947387D+03 0.000000000000000D+00 0.000000000000000D+00 -.426353708947387D+03
 0.267651366907932D+03 -.103373091964250D+01 0.104341043592946D+03 0.232984798378853D+03
 0.289723746610924D+03 0.128370459479931D+03 -.163508626852886D+02 -.259217136340615D+03
 0.882231907898376D+02 -.804291150634471D+01 0.828570690044491D+01 -.874642214211109D+02
 0.207109113586080D+03 -.119293817053944D+03 -.962758878081022D+02 0.113696559382873D+03
 0.000000000000000D+00 -.000000000000000D+00 -.000000000000000D+00 0.000000000000000D+00
 0.807241230449376D+03 0.000000000000000D+00 0.000000000000000D+00 0.807241230449376D+03
 0.643540577411986D+03 0.000000000000000D+00 0.000000000000000D+00 -.643540577411986D+03
 0.354934201375977D+03 0.572576671721106D+02 0.248899004872268D+03 0.232984798378853D+03
 0.346015912523888D+03 0.187893447870892D+03 0.131261343107171D+03 -.259217136340615D+03
 0.102520287590039D+03 0.981600556154462D+01 0.525743794405502D+02 -.874642214211109D+02
 0.163277277433790D+03 -.846153059117431D+02 -.102759798452147D+02 0.113696559382873D+03
 0.484034128937667D+03 -.170351814692804D+03 -.422458747574774D+03 0.163700653037390D+03
0.379729170438D-04 0.000000000000D+00 0.000000000000D+00 0.592466582144D-06 0.000000000000D+00  7 2 -2 24 -13 13 -24 21 0 0.70575187D-01 0.60962299D-01 0.49685569D+05 0.49685569D+05 0.49685569D+05 0.11475365D+01  1  2  2  2  7  2       -2 0.823892301287D-03 0.100000000000D+01
-.103078650236D-05 0.000000000000D+00 -.145825999947D-06 0.592466582144D-06 0.000000000000D+00  7 2 -2 24 -13 13 -24 21 2 0.70575187D-01 0.60962299D-01 0.49685569D+05 0.49685569D+05 0.49685569D+05 0.11475365D+01  1  2  3  2  7  2       -2 -.294508739549D-04 0.100000000000D+01
0.231998031051D-05 0.000000000000D+00 0.000000000000D+00 0.592466582144D-06 0.000000000000D+00  7 2 -2 24 -13 13 -24 21 2 0.70575187D-01 0.60962299D-01 0.49685569D+05 0.49685569D+05 0.49685569D+05 0.11475365D+01  1  2 15  2  7  2       -2 0.662847714304D-04 0.100000000000D+01
  </mgrwgt>
  </event>
  <event>
  8     66 0.26993063E-05 0.38943211E+03 0.75467711E-02 0.89248764E-01
        2 -1    0    0  501    0 0.00000000E+00 0.00000000E+00 0.77358298E+03 0.77358304E+03 0.32000000E+00 0.0000E+00 0.9000E+01
       -2 -1    0    0    0  501 0.00000000E+00 0.00000000E+00 -.27454339E+03 0.27454358E+03 0.32000000E+00 0.0000E+00 0.9000E+01
       25  2    1    2    0    0 -.40445666E+02 -.32489908E+03 0.54855932E+03 0.70475809E+03 0.29760944E+03 0.0000E+00 0.0000E+00
       23  2    1    2    0    0 0.40445666E+02 0.32489908E+03 -.49519734E+02 0.34336853E+03 0.90854178E+02 0.0000E+00 0.0000E+00
       24  1    3    3    0    0 -.62750793E+02 -.34218700E+03 0.43522223E+03 0.56295223E+03 0.80419002E+02 0.0000E+00 0.9000E+01
      -13  1    4    4    0    0 -.14610214E+02 0.19419833E+03 -.51830810E+02 0.20152641E+03 0.10565837E+00 0.0000E+00 0.9000E+01
       13  1    4    4    0    0 0.55055879E+02 0.13070075E+03 0.23110759E+01 0.14184212E+03 0.10565837E+00 0.0000E+00 0.9000E+01
      -24  1    3    3    0    0 0.22305128E+02 0.17287923E+02 0.11333709E+03 0.14180586E+03 0.80419002E+02 0.0000E+00 0.9000E+01
#aMCatNLO 1  0  0  2  2 0.65799640D+03 0.00000000D+00  -5  7  0 0.00000000D+00 0.00000000D+00 0.00000000D+00 0.00000000D+00 0.00000000D+00
  <mgrwgt>
 0.7465810863D-03    3    2    0
 0.460849462925107D+03 0.000000000000000D+00 0.000000000000000D+00 0.460849462925107D+03
 0.460849462925107D+03 0.000000000000000D+00 0.000000000000000D+00 -.460849462925107D+03
 0.404526995745176D+03 -.627507932283028D+02 -.342187000825453D+03 0.190119090960238D+03
 0.257232524053606D+03 -.146103077867423D+02 0.194198414798669D+03 -.168053818841019D+03
 0.160046911292868D+03 0.550559733903685D+02 0.130700663444982D+03 -.741700086522024D+02
 0.998924947585637D+02 0.223051276246766D+02 0.172879225818022D+02 0.521047365329836D+02
 0.000000000000000D+00 -.000000000000000D+00 -.000000000000000D+00 0.000000000000000D+00
 0.117112986701648D+04 0.000000000000000D+00 0.000000000000000D+00 0.117112986701648D+04
 0.745174842631927D+03 0.000000000000000D+00 0.000000000000000D+00 -.745174842631927D+03
 0.258642461811880D+03 0.326311550703249D+02 -.152376658543784D+03 0.190119090960238D+03
 0.435248599713068D+03 0.849874616705549D+02 0.392398252906320D+03 -.168053818841019D+03
 0.297665805643855D+03 0.120887609942670D+03 0.261705803199865D+03 -.741700086522024D+02
 0.140913074976251D+03 0.569395700597636D+02 0.862105593134029D+02 0.521047365329836D+02
 0.783834767503348D+03 -.295445796743313D+03 -.587937956875804D+03 0.425955024384548D+03
0.308405783192D-04 0.000000000000D+00 0.000000000000D+00 0.149004609086D-06 0.000000000000D+00  7 2 -2 24 -13 13 -24 21 0 0.11901279D+00 0.42237464D-01 0.15165737D+06 0.15165737D+06 0.15165737D+06 0.11071755D+01  1  2  2  2  7  2       -2 0.736897235290D-03 0.100000000000D+01
-.165430153373D-05 0.000000000000D+00 -.118435941257D-06 0.149004609086D-06 0.000000000000D+00  7 2 -2 24 -13 13 -24 21 2 0.11901279D+00 0.42237464D-01 0.15165737D+06 0.15165737D+06 0.15165737D+06 0.11071755D+01  1  2  3  2  7  2       -2 -.484542658105D-04 0.100000000000D+01
0.198492277710D-05 0.000000000000D+00 0.000000000000D+00 0.149004609086D-06 0.000000000000D+00  7 2 -2 24 -13 13 -24 21 2 0.11901279D+00 0.42237464D-01 0.15165737D+06 0.15165737D+06 0.15165737D+06 0.11071755D+01  1  2 15  2  7  2       -2 0.581381168390D-04 0.100000000000D+01
  </mgrwgt>
  </event>
  <event>
  9     66 -.26993063E-05 0.34878121E+03 0.75467711E-02 0.98532037E-01
        2 -1    0    0  501    0 0.00000000E+00 0.00000000E+00 0.19924956E+04 0.19924956E+04 0.32000000E+00 0.0000E+00 0.9000E+01
       21 -1    0    0  502  501 0.00000000E+00 0.00000000E+00 -.15678725E+03 0.15678904E+03 0.75000000E+00 0.0000E+00 0.9000E+01
       25  2    1    2    0    0 0.25686454E+03 -.11914862E+03 0.56811077E+03 0.70156539E+03 0.29877812E+03 0.0000E+00 0.0000E+00
       23  2    1    2    0    0 -.24335014E+03 0.13506192E+03 0.13404274E+04 0.13719555E+04 0.89751107E+02 0.0000E+00 0.0000E+00
       24  1    3    3    0    0 -.15419779E+02 -.95340264E+02 0.19754953E+03 0.23413792E+03 0.80419002E+02 0.0000E+00 0.9000E+01
      -11  1    4    4    0    0 -.11781475E+03 0.25740025E+02 0.69629397E+03 0.70665985E+03 0.51099893E-03 0.0000E+00 0.9000E+01
       11  1    4    4    0    0 -.12553539E+03 0.10932190E+03 0.64413343E+03 0.66529563E+03 0.51099893E-03 0.0000E+00 0.9000E+01
      -24  1    3    3    0    0 0.27228431E+03 -.23808355E+02 0.37056124E+03 0.46742747E+03 0.80419002E+02 0.0000E+00 0.9000E+01
        2  1    1    2  502    0 -.13514400E+02 -.15913305E+02 -.72829797E+02 0.75763805E+02 0.32000000E+00 0.0000E+00 0.9000E+01
#aMCatNLO 2  0  0  2  1 0.20877554D+02 0.00000000D+00  -5  7  0 0.00000000D+00 0.00000000D+00 0.00000000D+00 0.00000000D+00 0.00000000D+00
  <mgrwgt>
 -.2939591624D-03    2    2    0
 0.405134251858665D+03 0.000000000000000D+00 0.000000000000000D+00 0.405134251858665D+03
 0.405134251858665D+03 0.000000000000000D+00 0.000000000000000D+00 -.405134251858665D+03
 0.135985328817153D+03 -.176693636213362D+02 -.979891657031324D+02 -.459424715612884D+02
 0.169762175791857D+03 -.120633090988582D+03 0.224214039143844D+02 0.117320647520519D+03
 0.185257142077153D+03 -.128624695126613D+03 0.105684217106831D+03 0.812818722022091D+02
 0.319263857031168D+03 0.266927149736531D+03 -.301164553180831D+02 -.152660048161440D+03
 0.000000000000000D+00 -.000000000000000D+00 -.000000000000000D+00 -.000000000000000D+00
 0.405567248053115D+03 0.000000000000000D+00 0.000000000000000D+00 0.405567248053115D+03
 0.770278558566623D+03 0.000000000000000D+00 0.000000000000000D+00 -.770278558566623D+03
 0.133811293047026D+03 -.154197793801012D+02 -.953402638094510D+02 -.459424715612884D+02
 0.168246835845821D+03 -.117814746782781D+03 0.257400248252835D+02 0.117320647520519D+03
 0.185248897305099D+03 -.125535388293497D+03 0.109321898492753D+03 0.812818722022091D+02
 0.323230400696793D+03 0.272284314504875D+03 -.238083546301814D+02 -.152660048161440D+03
 0.365308379724999D+03 -.135144000484957D+02 -.159133048784044D+02 -.364711310513508D+03
-.458575120312D-04 0.000000000000D+00 0.000000000000D+00 0.145885000963D-06 0.000000000000D+00  7 2 21 24 -11 11 -24 2 2 0.30621060D+00 0.24122132D-01 0.12906824D+06 0.12906824D+06 0.12906824D+06 0.11127399D+01  1  2 13  4  7  2       -2 -.918436465528D-02 0.100000000000D+01
0.445043384463D-04 0.000000000000D+00 0.000000000000D+00 0.145885000963D-06 0.181538780981D-09  7 2 21 24 -11 11 -24 2 2 0.30653787D+00 0.24121251D-01 0.12906824D+06 0.12906824D+06 0.12906824D+06 0.11127399D+01  1  2  1  4  7  2       -2 0.889040549289D-02 0.100000000000D+01
  </mgrwgt>
  </event>
  <event>
  8     66 0.26993063E-05 0.25884655E+03 0.75467711E-02 0.99036900E-01
        2 -1    0    0  501    0 0.00000000E+00 0.00000000E+00 0.89537877E+02 0.89538449E+02 0.32000000E+00 0.0000E+00 0.9000E+01
       -2 -1    0    0    0  501 0.00000000E+00 0.00000000E+00 -.19181513E+04 0.19181514E+04 0.32000000E+00 0.0000E+00 0.9000E+01
       25  2    1    2    0    0 -.14786841E+02 0.16069203E+03 -.17866629E+04 0.18187342E+04 0.29931453E+03 0.0000E+00 0.0000E+00
       23  2    1    2    0    0 0.14786841E+02 -.16069203E+03 -.41950577E+02 0.18895563E+03 0.88903314E+02 0.0000E+00 0.0000E+00
       24  1    3    3    0    0 0.10824595E+03 0.13054317E+03 -.88629094E+03 0.90594567E+03 0.80419002E+02 0.0000E+00 0.9000E+01
      -11  1    4    4    0    0 0.27834624E+02 -.16412732E+03 -.26708769E+02 0.16859983E+03 0.51099893E-03 0.0000E+00 0.9000E+01
       11  1    4    4    0    0 -.13047783E+02 0.34352901E+01 -.15241809E+02 0.20355800E+02 0.51099893E-03 0.0000E+00 0.9000E+01
      -24  1    3    3    0    0 -.12303279E+03 0.30148863E+02 -.90037193E+03 0.91278850E+03 0.80419002E+02 0.0000E+00 0.9000E+01
#aMCatNLO 1  0  0  1  1 0.15932295D+03 0.00000000D+00  -5  7  0 0.00000000D+00 0.00000000D+00 0.00000000D+00 0.00000000D+00 0.00000000D+00
  <mgrwgt>
 0.7665985108D-03    4    2    0
 0.414424659823695D+03 0.000000000000000D+00 0.000000000000000D+00 0.414424659823695D+03
 0.414424659823695D+03 0.000000000000000D+00 0.000000000000000D+00 -.414424659823695D+03
 0.239095743791703D+03 0.108245953765946D+03 0.130543169421807D+03 -.148124451578892D+03
 0.349467797182723D+03 0.278346241385997D+02 -.164127323013553D+03 0.307270559616786D+03
 0.156804811844503D+02 -.130477834201626D+02 0.343529009912849D+01 0.798946931474539D+01
 0.224605297488513D+03 -.123032794484383D+03 0.301488634926180D+02 -.167135577352639D+03
 0.000000000000000D+00 -.000000000000000D+00 -.000000000000000D+00 -.000000000000000D+00
 0.446204201645203D+03 0.000000000000000D+00 0.000000000000000D+00 0.446204201645203D+03
 0.684320586054625D+03 0.000000000000000D+00 0.000000000000000D+00 -.684320586054625D+03
 0.272254831640274D+03 0.153293222897294D+03 0.149049696595855D+03 -.148124451578892D+03
 0.348825814771032D+03 0.893505816474153D+02 -.138855053212801D+03 0.307270559616786D+03
 0.138985532713817D+02 -.104420276240502D+02 0.450579873105197D+01 0.798946931474539D+01
 0.209043902916533D+03 -.848306037021832D+02 0.458432639624341D+02 -.167135577352639D+03
 0.286501685100608D+03 -.147371173218476D+03 -.605437060765398D+02 -.238116384409422D+03
0.453441405449D-03 0.000000000000D+00 0.000000000000D+00 0.457646943427D-06 0.000000000000D+00  7 2 -2 24 -11 11 -24 21 0 0.13775104D-01 0.29510025D+00 0.67001539D+05 0.67001539D+05 0.67001539D+05 0.11362795D+01  1  2  2  1  7  1        2 0.804611250541D-03 0.100000000000D+01
-.184063910491D-04 0.000000000000D+00 -.174133439079D-05 0.457646943427D-06 0.000000000000D+00  7 2 -2 24 -11 11 -24 21 2 0.13775104D-01 0.29510025D+00 0.67001539D+05 0.67001539D+05 0.67001539D+05 0.11362795D+01  1  2  3  1  7  1        2 -.421700296109D-04 0.100000000000D+01
0.281010019240D-04 0.000000000000D+00 0.000000000000D+00 0.457646943427D-06 0.000000000000D+00  7 2 -2 24 -11 11 -24 21 2 0.13775104D-01 0.29510025D+00 0.67001539D+05 0.67001539D+05 0.67001539D+05 0.11362795D+01  1  2 15  1  7  1        2 0.643809033542D-04 0.100000000000D+01
-.262864264107D-04 0.000000000000D+00 0.000000000000D+00 0.457646943427D-06 0.000000000000D+00  7 2 -2 24 -11 11 -24 21 2 0.13775104D-01 0.29510025D+00 0.67001539D+05 0.67001539D+05 0.67001539D+05 0.11362795D+01  1  2  4  1  7  1        2 -.602236134800D-04 0.100000000000D+01
  </mgrwgt>
  </event>
  <event>
  8     66 0.26993063E-05 0.21132971E+03 0.75467711E-02 0.97093012E-01
        2 -1    0    0  501    0 0.00000000E+00 0.00000000E+00 0.34204955E+04 0.34204955E+04 0.32000000E+00 0.0000E+00 0.9000E+01
       -2 -1    0    0    0  501 0.00000000E+00 0.00000000E+00 -.74054848E+02 0.74055540E+02 0.32000000E+00 0.0000E+00 0.9000E+01
       25  2    1    2    0    0 -.40871660E+01 0.28032082E+03 0.30479771E+04 0.30753688E+04 0.29855060E+03 0.0000E+00 0.0000E+00
       23  2    1    2    0    0 0.40871660E+01 -.28032082E+03 0.29846357E+03 0.41918226E+03 0.89648191E+02 0.0000E+00 0.0000E+00
       24  1    3    3    0    0 -.74191651E+02 0.88682093E+02 0.19854849E+04 0.19904739E+04 0.80419002E+02 0.0000E+00 0.9000E+01
      -11  1    4    4    0    0 0.11155416E+02 -.21786461E+03 0.17142759E+03 0.27744702E+03 0.51099893E-03 0.0000E+00 0.9000E+01
       11  1    4    4    0    0 -.70682499E+01 -.62456217E+02 0.12703598E+03 0.14173524E+03 0.51099893E-03 0.0000E+00 0.9000E+01
      -24  1    3    3    0    0 0.70104485E+02 0.19163873E+03 0.10624923E+04 0.10848949E+04 0.80419002E+02 0.0000E+00 0.9000E+01
#aMCatNLO 1  0  0  1  2 0.15746159D+03 0.00000000D+00  -5  7  0 0.00000000D+00 0.00000000D+00 0.00000000D+00 0.00000000D+00 0.00000000D+00
  <mgrwgt>
 0.1455001025D-02    9    2    0
 0.503294657259189D+03 0.000000000000000D+00 0.000000000000000D+00 0.503294657259189D+03
 0.503294657259189D+03 0.000000000000000D+00 0.000000000000000D+00 -.503294657259189D+03
 0.309466171695399D+03 -.741916511782233D+02 0.886820934523356D+02 0.275559758792527D+03
 0.393289010046137D+03 0.111554158887869D+02 -.217864605532954D+03 -.327241219554305D+03
 0.697232505316027D+02 -.706824990168461D+01 -.624562165341284D+02 -.301760256538539D+02
 0.234110882245240D+03 0.701044851911210D+02 0.191638728614747D+03 0.818574864156323D+02
 0.000000000000000D+00 -.000000000000000D+00 0.000000000000000D+00 0.000000000000000D+00
 0.601412984054929D+03 0.000000000000000D+00 0.000000000000000D+00 0.601412984054929D+03
 0.576792581926206D+03 0.000000000000000D+00 0.000000000000000D+00 -.576792581926206D+03
 0.295924114221768D+03 -.348002192581239D+02 0.629255869846171D+02 0.275559758792527D+03
 0.418183431964889D+03 0.639561664097291D+02 -.252388937500666D+03 -.327241219554305D+03
 0.749925061871073D+02 0.234809028605789D+01 -.686131906558047D+02 -.301760256538539D+02
 0.229730748010082D+03 0.100285653315134D+03 0.171904451029555D+03 0.818574864156323D+02
 0.159374765597288D+03 -.131789690752797D+03 0.861720901422988D+02 0.246204021287224D+02
0.147589554540D-03 0.000000000000D+00 0.000000000000D+00 0.451406374215D-06 0.000000000000D+00  7 2 -2 24 -11 11 -24 21 0 0.52623014D+00 0.11393108D-01 0.10277775D+06 0.10277775D+06 0.10277775D+06 0.11207469D+01  1  2  2  1  7  1        2 0.927277828689D-03 0.100000000000D+01
-.617153108230D-05 0.000000000000D+00 -.566782750657D-06 0.451406374215D-06 0.000000000000D+00  7 2 -2 24 -11 11 -24 21 2 0.52623014D+00 0.11393108D-01 0.10277775D+06 0.10277775D+06 0.10277775D+06 0.11207469D+01  1  2  3  1  7  1        2 -.487037341232D-04 0.100000000000D+01
0.893116762479D-05 0.000000000000D+00 0.000000000000D+00 0.451406374215D-06 0.000000000000D+00  7 2 -2 24 -11 11 -24 21 2 0.52623014D+00 0.11393108D-01 0.10277775D+06 0.10277775D+06 0.10277775D+06 0.11207469D+01  1  2 15  1  7  1        2 0.704818962437D-04 0.100000000000D+01
0.466672142209D-04 0.000000000000D+00 0.000000000000D+00 0.451406374215D-06 0.000000000000D+00  7 2 -2 24 -11 11 -24 21 2 0.66083475D+00 0.11393108D-01 0.16362529D+06 0.16362529D+06 0.16362529D+06 0.11045844D+01  1  2 12  1  7  1        2 0.714601947600D-04 0.100000000000D+01
-.651506361132D-04 0.000000000000D+00 0.000000000000D+00 0.451406374215D-06 0.000000000000D+00  7 2 -2 24 -11 11 -24 21 2 0.52623014D+00 0.11393108D-01 0.10277775D+06 0.10277775D+06 0.10277775D+06 0.11207469D+01  1  2  4  1  7  1        2 -.514147821165D-03 0.100000000000D+01
-.145994467797D-03 0.000000000000D+00 -.544913632949D-04 0.451406374215D-06 0.000000000000D+00  7 2 -2 24 -11 11 -24 21 2 0.64763490D+00 0.11393108D-01 0.10277775D+06 0.10277775D+06 0.10277775D+06 0.11207469D+01  1  2  5  1  7  1        2 -.284303129145D-03 0.100000000000D+01
0.156242601611D-03 0.000000000000D+00 0.544752288739D-04 0.451406374215D-06 0.000000000000D+00  7 2 -2 24 -11 11 -24 21 2 0.52623014D+00 0.11393108D-01 0.10277775D+06 0.10277775D+06 0.10277775D+06 0.11207469D+01  1  2  6  1  7  1        2 0.123301625255D-02 0.100000000000D+01
0.147373231809D-05 0.000000000000D+00 0.000000000000D+00 0.451406374215D-06 0.000000000000D+00  7 21 -2 24 -11 11 -24 -2 2 0.66083475D+00 0.11393108D-01 0.16362529D+06 0.16362529D+06 0.16362529D+06 0.11045844D+01  1  2 12  3  7  1        2 0.322232836905D-07 0.100000000000D+01
-.362960252205D-05 0.000000000000D+00 -.160439092280D-05 0.451406374215D-06 0.000000000000D+00  7 21 -2 24 -11 11 -24 -2 2 0.64763490D+00 0.11393108D-01 0.10277775D+06 0.10277775D+06 0.10277775D+06 0.11207469D+01  1  2  5  3  7  1        2 -.112686478176D-06 0.100000000000D+01
  </mgrwgt>
  </event>
  <event>
  8     66 0.26993063E-05 0.19601815E+03 0.75467711E-02 0.91130665E-01
        2 -1    0    0  501    0 0.00000000E+00 0.00000000E+00 0.21549758E+03 0.21549781E+03 0.32000000E+00 0.0000E+00 0.9000E+01
       -2 -1    0    0    0  501 0.00000000E+00 0.00000000E+00 -.24018571E+03 0.24018592E+03 0.32000000E+00 0.0000E+00 0.9000E+01
       25  2    1    2    0    0 0.72801752E+02 0.73215521E+02 -.90172433E+01 0.31757149E+03 0.30018283E+03 0.0000E+00 0.0000E+00
       23  2    1    2    0    0 -.72801752E+02 -.73215521E+02 -.15670892E+02 0.13811225E+03 0.90381466E+02 0.0000E+00 0.0000E+00
       24  1    3    3    0    0 -.30253101E+02 -.55239417E+02 0.63723039E+02 0.12039304E+03 0.80419002E+02 0.0000E+00 0.9000E+01
      -11  1    4    4    0    0 -.71517139E+02 -.60031603E+02 0.23899995E+02 0.96383112E+02 0.51099893E-03 0.0000E+00 0.9000E+01
       11  1    4    4    0    0 -.12846135E+01 -.13183918E+02 -.39570887E+02 0.41729139E+02 0.51099893E-03 0.0000E+00 0.9000E+01
      -24  1    3    3    0    0 0.10305485E+03 0.12845494E+03 -.72740282E+02 0.19717844E+03 0.80419002E+02 0.0000E+00 0.9000E+01
#aMCatNLO 1  0  0  1  2 0.63015682D+03 0.00000000D+00  -5  7  0 0.00000000D+00 0.00000000D+00 0.00000000D+00 0.00000000D+00 0.00000000D+00
  <mgrwgt>
 0.8520965157D-03    5    2    0
 0.227507233490942D+03 0.000000000000000D+00 0.000000000000000D+00 0.227507233490942D+03
 0.227507233490942D+03 0.000000000000000D+00 0.000000000000000D+00 -.227507233490942D+03
 0.124027606234001D+03 -.302531007285844D+02 -.552394170565974D+02 0.703490430163722D+02
 0.978216439661832D+02 -.715171390191313D+02 -.600316032164310D+02 0.291646956101025D+02
 0.396434835551943D+02 -.128461350651576D+01 -.131839180841216D+02 -.373649549776393D+02
 0.193521733226505D+03 0.103054853254231D+03 0.128454938357150D+03 -.621487836488354D+02
 0.000000000000000D+00 -.000000000000000D+00 0.000000000000000D+00 0.000000000000000D+00
 0.985297761612770D+03 0.000000000000000D+00 0.000000000000000D+00 0.985297761612770D+03
 0.555012475220241D+03 0.000000000000000D+00 0.000000000000000D+00 -.555012475220241D+03
 0.275901463938754D+03 0.194164622095750D+02 -.253630469366600D+03 0.703490430163722D+02
 0.223695042060528D+03 -.315860750797837D+02 -.219524969498884D+03 0.291646956101025D+02
 0.849993964552741D+02 0.141955249360314D+02 -.750149625679462D+02 -.373649549776393D+02
 0.192665815968036D+03 0.151017775210282D+03 -.631194181671968D+02 -.621487836488354D+02
 0.763048518410418D+03 -.153043687276105D+03 0.611289819600627D+03 0.430285286392529D+03
0.578433724583D-05 0.000000000000D+00 0.000000000000D+00 0.373713620445D-06 0.000000000000D+00  7 2 -2 24 -11 11 -24 21 0 0.33153508D-01 0.36951683D-01 0.38423117D+05 0.38423117D+05 0.38423117D+05 0.11574940D+01  1  2  2  1  7  1        2 0.745506433729D-03 0.100000000000D+01
-.312680694456D-06 0.000000000000D+00 -.222133780750D-07 0.373713620445D-06 0.000000000000D+00  7 2 -2 24 -11 11 -24 21 2 0.33153508D-01 0.36951683D-01 0.38423117D+05 0.38423117D+05 0.38423117D+05 0.11574940D+01  1  2  3  1  7  1        2 -.539928589391D-04 0.100000000000D+01
0.369932811326D-06 0.000000000000D+00 0.000000000000D+00 0.373713620445D-06 0.000000000000D+00  7 2 -2 24 -11 11 -24 21 2 0.33153508D-01 0.36951683D-01 0.38423117D+05 0.38423117D+05 0.38423117D+05 0.11574940D+01  1  2 15  1  7  1        2 0.638790000566D-04 0.100000000000D+01
0.782328781755D-05 0.000000000000D+00 -.376986901720D-05 0.373713620445D-06 0.000000000000D+00  7 2 -2 24 -11 11 -24 21 2 0.27014663D+00 0.36951683D-01 0.38423117D+05 0.38423117D+05 0.38423117D+05 0.11574940D+01  1  2  5  1  7  1        2 0.915259550905D-04 0.100000000000D+01
0.152573765132D-05 0.000000000000D+00 -.958717917002D-06 0.373713620445D-06 0.000000000000D+00  7 21 -2 24 -11 11 -24 -2 2 0.27014663D+00 0.36951683D-01 0.38423117D+05 0.38423117D+05 0.38423117D+05 0.11574940D+01  1  2  5  3  7  1        2 0.517798575322D-05 0.100000000000D+01
  </mgrwgt>
  </event>
  <event>
  8     66 0.26993063E-05 0.54258562E+03 0.75467711E-02 0.86976744E-01
        2 -1    0    0  501    0 0.00000000E+00 0.00000000E+00 0.11319906E+04 0.11319906E+04 0.32000000E+00 0.0000E+00 0.9000E+01
       -2 -1    0    0    0  501 0.00000000E+00 0.00000000E+00 -.33278119E+03 0.33278135E+03 0.32000000E+00 0.0000E+00 0.9000E+01
       25  2    1    2    0    0 -.12676490E+03 -.50870493E+03 0.14578328E+03 0.62209864E+03 0.30150274E+03 0.0000E+00 0.0000E+00
       23  2    1    2    0    0 0.12676490E+03 0.50870493E+03 0.65342608E+03 0.84267332E+03 0.91008944E+02 0.0000E+00 0.0000E+00
       24  1    3    3    0    0 -.35791943E+02 -.33060964E+03 -.30721365E+02 0.34350374E+03 0.80419002E+02 0.0000E+00 0.9000E+01
      -13  1    4    4    0    0 0.12787088E+03 0.42586711E+03 0.58750484E+03 0.73680100E+03 0.10565837E+00 0.0000E+00 0.9000E+01
       13  1    4    4    0    0 -.11059763E+01 0.82837815E+02 0.65921243E+02 0.10587232E+03 0.10565837E+00 0.0000E+00 0.9000E+01
      -24  1    3    3    0    0 -.90972959E+02 -.17809529E+03 0.17650465E+03 0.27859490E+03 0.80419002E+02 0.0000E+00 0.9000E+01
#aMCatNLO 1  0  0  1  2 0.76284596D+03 0.00000000D+00  -5  7  0 0.00000000D+00 0.00000000D+00 0.00000000D+00 0.00000000D+00 0.00000000D+00
  <mgrwgt>
 0.1598184213D-02    3    2    0
 0.613763241597511D+03 0.000000000000000D+00 0.000000000000000D+00 0.613763241597511D+03
 0.613763241597511D+03 0.000000000000000D+00 0.000000000000000D+00 -.613763241597511D+03
 0.429894957607532D+03 -.357919430234468D+02 -.330609644245670D+03 -.260304933814880D+03
 0.496695393246228D+03 0.127871052208695D+03 0.425867577272297D+03 0.221341623530890D+03
 0.834142879148683D+02 -.110615017483352D+01 0.828373530594969D+02 0.973102246588324D+01
 0.217521844426393D+03 -.909729590104148D+02 -.178095286086124D+03 0.292322878181073D+02
 0.000000000000000D+00 0.000000000000000D+00 -.000000000000000D+00 -.000000000000000D+00
 0.784970467569309D+03 0.000000000000000D+00 0.000000000000000D+00 0.784970467569309D+03
 0.305618143696626D+04 0.000000000000000D+00 0.000000000000000D+00 -.305618143696626D+04
 0.489224523402658D+03 -.293409176966553D+03 -.281115304897525D+03 -.260304933814880D+03
 0.556689255955595D+03 -.167378961758198D+03 0.482592060181114D+03 0.221341623530890D+03
 0.108597281739240D+03 -.549244953207755D+02 0.931771249646527D+02 0.973102246588324D+01
 0.290741590853507D+03 -.233432588053765D+03 -.150725435415187D+03 0.292322878181073D+02
 0.239589925258457D+04 0.749145222099292D+03 -.143928444833055D+03 -.227121096939695D+04
0.165557024848D-03 0.000000000000D+00 0.000000000000D+00 0.944401358427D-06 0.000000000000D+00  7 2 -2 24 -13 13 -24 21 0 0.17415241D+00 0.51197122D-01 0.29439916D+06 0.29439916D+06 0.29439916D+06 0.10851579D+01  1  2  2  1  7  1        2 0.158045554406D-02 0.100000000000D+01
-.902770028994D-05 0.000000000000D+00 -.635782567581D-06 0.944401358427D-06 0.000000000000D+00  7 2 -2 24 -13 13 -24 21 2 0.17415241D+00 0.51197122D-01 0.29439916D+06 0.29439916D+06 0.29439916D+06 0.10851579D+01  1  2  3  1  7  1        2 -.101484028011D-03 0.100000000000D+01
0.106047869569D-04 0.000000000000D+00 0.000000000000D+00 0.944401358427D-06 0.000000000000D+00  7 2 -2 24 -13 13 -24 21 2 0.17415241D+00 0.51197122D-01 0.29439916D+06 0.29439916D+06 0.29439916D+06 0.10851579D+01  1  2 15  1  7  1        2 0.119212696702D-03 0.100000000000D+01
  </mgrwgt>
  </event>
  <event>
  8     66 0.26993063E-05 0.16515155E+03 0.75467711E-02 0.95416398E-01
        2 -1    0    0  501    0 0.00000000E+00 0.00000000E+00 0.36215667E+03 0.36215681E+03 0.32000000E+00 0.0000E+00 0.9000E+01
       -2 -1    0    0    0  501 0.00000000E+00 0.00000000E+00 -.89490565E+03 0.89490571E+03 0.32000000E+00 0.0000E+00 0.9000E+01
       25  2    1    2    0    0 -.10743044E+03 -.31804008E+03 0.16521724E+03 0.47865008E+03 0.29852700E+03 0.0000E+00 0.0000E+00
       23  2    1    2    0    0 0.10743044E+03 0.31804008E+03 -.69796622E+03 0.77841244E+03 0.77963394E+02 0.0000E+00 0.0000E+00
       24  1    3    3    0    0 -.52493598E+02 -.31112888E+03 0.52992596E+02 0.32989724E+03 0.80419002E+02 0.0000E+00 0.9000E+01
      -11  1    4    4    0    0 0.96339741E+02 0.31219917E+03 -.69030563E+03 0.76372216E+03 0.51099893E-03 0.0000E+00 0.9000E+01
       11  1    4    4    0    0 0.11090697E+02 0.58409093E+01 -.76605867E+01 0.14690281E+02 0.51099893E-03 0.0000E+00 0.9000E+01
      -24  1    3    3    0    0 -.54936841E+02 -.69112028E+01 0.11222464E+03 0.14875284E+03 0.80419002E+02 0.0000E+00 0.9000E+01
#aMCatNLO 1  0  0  2  1 0.15230574D+03 0.00000000D+00  -5  7  0 0.00000000D+00 0.00000000D+00 0.00000000D+00 0.00000000D+00 0.00000000D+00
  <mgrwgt>
 0.1035663371D-01    9    2    0
 0.569294452147672D+03 0.000000000000000D+00 0.000000000000000D+00 0.569294452147672D+03
 0.569294452147672D+03 0.000000000000000D+00 0.000000000000000D+00 -.569294452147672D+03
 0.389019425313297D+03 -.524935976651171D+02 -.311128876068348D+03 0.212866488666808D+03
 0.520193787691662D+03 0.963397413354690D+02 0.312199169501078D+03 -.404786251687542D+03
 0.126344393044968D+02 0.110906969509894D+02 0.584090932036921D+01 -.158406944025599D+01
 0.216741251985889D+03 -.549368406213413D+02 -.691120275309912D+01 0.193503832460990D+03
 0.000000000000000D+00 0.000000000000000D+00 -.000000000000000D+00 -.000000000000000D+00
 0.618888056055683D+03 0.000000000000000D+00 0.000000000000000D+00 0.618888056055683D+03
 0.704618914353837D+03 0.000000000000000D+00 0.000000000000000D+00 -.704618914353837D+03
 0.396040636629719D+03 -.104589343417000D+03 -.306805960101767D+03 0.212866488666808D+03
 0.515437832504983D+03 0.276163350716926D+02 0.317901852242783D+03 -.404786251687542D+03
 0.113330993808181D+02 0.950023672740053D+01 0.597288604506205D+01 -.158406944025599D+01
 0.225918918601471D+03 -.843112959264925D+02 -.447370425844183D+01 0.193503832460990D+03
 0.174776483292529D+03 0.151784067544400D+03 -.125950739276366D+02 -.857308582981544D+02
0.197457710317D-02 0.000000000000D+00 0.000000000000D+00 0.124187416179D-07 0.000000000000D+00  7 2 -2 24 -11 11 -24 21 0 0.55716426D-01 0.13767781D+00 0.14535572D+06 0.14535572D+06 0.14535572D+06 0.11086314D+01  1  2  2  2  7  2       -2 0.808797635893D-02 0.100000000000D+01
-.882591521913D-04 0.000000000000D+00 -.758289599428D-05 0.124187416179D-07 0.000000000000D+00  7 2 -2 24 -11 11 -24 21 2 0.55716426D-01 0.13767781D+00 0.14535572D+06 0.14535572D+06 0.14535572D+06 0.11086314D+01  1  2  3  2  7  2       -2 -.444324116682D-03 0.100000000000D+01
0.120194302951D-03 0.000000000000D+00 0.000000000000D+00 0.124187416179D-07 0.000000000000D+00  7 2 -2 24 -11 11 -24 21 2 0.55716426D-01 0.13767781D+00 0.14535572D+06 0.14535572D+06 0.14535572D+06 0.11086314D+01  1  2 15  2  7  2       -2 0.605095632158D-03 0.100000000000D+01
0.153828499775D-02 0.000000000000D+00 0.000000000000D+00 0.124187416179D-07 0.000000000000D+00  7 2 -2 24 -11 11 -24 21 2 0.55716426D-01 0.17531960D+00 0.21771421D+06 0.21771421D+06 0.21771421D+06 0.10950059D+01  1  2 12  2  7  2       -2 0.379653252914D-02 0.100000000000D+01
-.187657888460D-02 0.000000000000D+00 0.000000000000D+00 0.124187416179D-07 0.000000000000D+00  7 2 -2 24 -11 11 -24 21 2 0.55716426D-01 0.13767781D+00 0.14535572D+06 0.14535572D+06 0.14535572D+06 0.11086314D+01  1  2  4  2  7  2       -2 -.944728376134D-02 0.100000000000D+01
-.283931594924D-02 0.000000000000D+00 -.973501295336D-03 0.124187416179D-07 0.000000000000D+00  7 2 -2 24 -11 11 -24 21 2 0.55716426D-01 0.17920899D+00 0.14535572D+06 0.14535572D+06 0.14535572D+06 0.11086314D+01  1  2  5  2  7  2       -2 -.684355522399D-02 0.100000000000D+01
0.302317323357D-02 0.000000000000D+00 0.940622917885D-03 0.124187416179D-07 0.000000000000D+00  7 2 -2 24 -11 11 -24 21 2 0.55716426D-01 0.13767781D+00 0.14535572D+06 0.14535572D+06 0.14535572D+06 0.11086314D+01  1  2  6  2  7  2       -2 0.152195975515D-01 0.100000000000D+01
0.507756673324D-04 0.000000000000D+00 0.000000000000D+00 0.124187416179D-07 0.000000000000D+00  7 2 21 24 -11 11 -24 2 2 0.55716426D-01 0.17531960D+00 0.21771421D+06 0.21771421D+06 0.21771421D+06 0.10950059D+01  1  2 12  4  7  2       -2 0.103901157721D-02 0.100000000000D+01
-.821289649843D-04 0.000000000000D+00 -.342577227290D-04 0.124187416179D-07 0.000000000000D+00  7 2 21 24 -11 11 -24 2 2 0.55716426D-01 0.17920899D+00 0.14535572D+06 0.14535572D+06 0.14535572D+06 0.11086314D+01  1  2  5  4  7  2       -2 -.165641683296D-02 0.100000000000D+01
  </mgrwgt>
  </event>
  <event>
  8     66 0.26993063E-05 0.29286210E+03 0.75467711E-02 0.81835734E-01
        2 -1    0    0  501    0 0.00000000E+00 0.00000000E+00 0.44083631E+03 0.44083642E+03 0.32000000E+00 0.0000E+00 0.9000E+01
       -2 -1    0    0    0  501 0.00000000E+00 0.00000000E+00 -.32019087E+03 0.32019103E+03 0.32000000E+00 0.0000E+00 0.9000E+01
       25  2    1    2    0    0 0.21766294E+03 -.13111269E+03 0.24554912E+03 0.46338210E+03 0.29976809E+03 0.0000E+00 0.0000E+00
       23  2    1    2    0    0 -.21766294E+03 0.13111269E+03 -.12490369E+03 0.29764535E+03 0.91783072E+02 0.0000E+00 0.0000E+00
       24  1    3    3    0    0 0.28927452E+02 -.85231871E+02 -.22449521E+02 0.12276997E+03 0.80419002E+02 0.0000E+00 0.9000E+01
      -11  1    4    4    0    0 -.21205302E+03 0.13087282E+03 -.94145105E+02 0.26637845E+03 0.51099893E-03 0.0000E+00 0.9000E+01
       11  1    4    4    0    0 -.56099134E+01 0.23987672E+00 -.30758583E+02 0.31266901E+02 0.51099893E-03 0.0000E+00 0.9000E+01
      -24  1    3    3    0    0 0.18873548E+03 -.45880824E+02 0.26799864E+03 0.34061213E+03 0.80419002E+02 0.0000E+00 0.9000E+01
#aMCatNLO 1  0  0  2  1 0.18072606D+04 0.00000000D+00  -5  7  0 0.00000000D+00 0.00000000D+00 0.00000000D+00 0.00000000D+00 0.00000000D+00
  <mgrwgt>
 0.2251173337D-02    3    2    0
 0.375701831090673D+03 0.000000000000000D+00 0.000000000000000D+00 0.375701831090673D+03
 0.375701831090673D+03 0.000000000000000D+00 0.000000000000000D+00 -.375701831090673D+03
 0.127946877239588D+03 0.289274519793369D+02 -.852318712854661D+02 -.424490056438613D+02
 0.284906106512890D+03 -.212053021792757D+03 0.130872818104192D+03 -.138120639146950D+03
 0.366059599735915D+02 -.560991337489394D+01 0.239876717195337D+00 -.361727471541064D+02
 0.301944718455276D+03 0.188735483188314D+03 -.458808235359213D+02 0.216742391944918D+03
 0.000000000000000D+00 0.000000000000000D+00 0.000000000000000D+00 0.000000000000000D+00
 0.453680917081034D+04 0.000000000000000D+00 0.000000000000000D+00 0.453680917081034D+04
 0.120810539126293D+04 0.000000000000000D+00 0.000000000000000D+00 -.120810539126293D+04
 0.409176647201514D+03 -.248510767815843D+03 -.312087796717733D+03 -.424490056438613D+02
 0.937700351861702D+03 -.843560941082804D+03 -.385499127888369D+03 -.138120639146950D+03
 0.105430776224777D+03 -.789755684677272D+02 -.597498160991596D+02 -.361727471541064D+02
 0.504934729722568D+03 -.228038661873964D+03 -.386669069813400D+03 0.216742391944918D+03
 0.378767205706271D+04 0.139908593924034D+04 0.114400581051866D+04 0.332870377954740D+04
0.643309957409D-04 0.000000000000D+00 0.000000000000D+00 0.261340964022D-05 0.000000000000D+00  7 2 -2 24 -11 11 -24 21 0 0.67820991D-01 0.49260155D-01 0.85768209D+05 0.85768209D+05 0.85768209D+05 0.11272348D+01  1  2  2  2  7  2       -2 0.221365092436D-02 0.100000000000D+01
-.330432194909D-05 0.000000000000D+00 -.247047962385D-06 0.261340964022D-05 0.000000000000D+00  7 2 -2 24 -11 11 -24 21 2 0.67820991D-01 0.49260155D-01 0.85768209D+05 0.85768209D+05 0.85768209D+05 0.11272348D+01  1  2  3  2  7  2       -2 -.144477425141D-03 0.100000000000D+01
0.416249152884D-05 0.000000000000D+00 0.000000000000D+00 0.261340964022D-05 0.000000000000D+00  7 2 -2 24 -11 11 -24 21 2 0.67820991D-01 0.49260155D-01 0.85768209D+05 0.85768209D+05 0.85768209D+05 0.11272348D+01  1  2 15  2  7  2       -2 0.181999837643D-03 0.100000000000D+01
  </mgrwgt>
  </event>
  <event>
  8     66 0.26993063E-05 0.32791486E+03 0.75467711E-02 0.93102056E-01
        2 -1    0    0  501    0 0.00000000E+00 0.00000000E+00 0.15931610E+04 0.15931611E+04 0.32000000E+00 0.0000E+00 0.9000E+01
       -2 -1    0    0    0  501 0.00000000E+00 0.00000000E+00 -.19980742E+03 0.19980768E+03 0.32000000E+00 0.0000E+00 0.9000E+01
       25  2    1    2    0    0 0.50457046E+03 0.25848876E+02 0.93817996E+03 0.11070645E+04 0.30025085E+03 0.0000E+00 0.0000E+00
       23  2    1    2    0    0 -.50457046E+03 -.25848876E+02 0.45517366E+03 0.68590429E+03 0.89566264E+02 0.0000E+00 0.0000E+00
       24  1    3    3    0    0 0.40861584E+03 0.67574394E+02 0.84821485E+03 0.94734832E+03 0.80419002E+02 0.0000E+00 0.9000E+01
      -13  1    4    4    0    0 -.20879036E+03 -.43639534E+02 0.23043947E+03 0.31400666E+03 0.10565837E+00 0.0000E+00 0.9000E+01
       13  1    4    4    0    0 -.29578011E+03 0.17790658E+02 0.22473419E+03 0.37189763E+03 0.10565837E+00 0.0000E+00 0.9000E+01
      -24  1    3    3    0    0 0.95954621E+02 -.41725518E+02 0.89965116E+02 0.15971614E+03 0.80419002E+02 0.0000E+00 0.9000E+01
#aMCatNLO 1  0  0  2  1 0.80246222D+02 0.00000000D+00  -5  7  0 0.00000000D+00 0.00000000D+00 0.00000000D+00 0.00000000D+00 0.00000000D+00
  <mgrwgt>
 0.6748509359D-03    6    2    0
 0.564203563254101D+03 0.000000000000000D+00 0.000000000000000D+00 0.564203563254101D+03
 0.564203563254101D+03 0.000000000000000D+00 0.000000000000000D+00 -.564203563254101D+03
 0.457904514459544D+03 0.408615842623631D+03 0.675743939072208D+02 0.177977871807458D+03
 0.214390975805602D+03 -.208790235775211D+03 -.436396197732676D+02 -.215803507352133D+02
 0.313421263362108D+03 -.295780228283086D+03 0.177907436663129D+02 -.102129497815788D+03
 0.142690372880948D+03 0.959546214346655D+02 -.417255178002660D+02 -.542680232564562D+02
 0.000000000000000D+00 0.000000000000000D+00 0.000000000000000D+00 0.000000000000000D+00
 0.612471275505375D+03 0.000000000000000D+00 0.000000000000000D+00 0.612471275505375D+03
 0.599995777370388D+03 0.000000000000000D+00 0.000000000000000D+00 -.599995777370388D+03
 0.451584641705056D+03 0.405624364706465D+03 0.354150331480544D+02 0.177977871807458D+03
 0.219397718148898D+03 -.210217046958044D+03 -.589783041408310D+02 -.215803507352133D+02
 0.314901259831567D+03 -.297846897182051D+03 -.442661930006664D+01 -.102129497815788D+03
 0.145373247420090D+03 0.950071269505055D+02 -.519113917318691D+02 -.542680232564562D+02
 0.812101857701519D+02 0.743245248312438D+01 0.799012820247124D+02 0.124754981349867D+02
0.364384085237D-04 0.000000000000D+00 0.000000000000D+00 0.117344330986D-05 0.000000000000D+00  7 2 -2 24 -13 13 -24 21 0 0.24510172D+00 0.30739626D-01 0.28275047D+06 0.28275047D+06 0.28275047D+06 0.10864597D+01  1  2  2  2  7  2       -2 0.500440517551D-03 0.100000000000D+01
-.201571392256D-05 0.000000000000D+00 -.139933083184D-06 0.117344330986D-05 0.000000000000D+00  7 2 -2 24 -13 13 -24 21 2 0.24510172D+00 0.30739626D-01 0.28275047D+06 0.28275047D+06 0.28275047D+06 0.10864597D+01  1  2  3  2  7  2       -2 -.326775305413D-04 0.100000000000D+01
0.227864938747D-05 0.000000000000D+00 0.000000000000D+00 0.117344330986D-05 0.000000000000D+00  7 2 -2 24 -13 13 -24 21 2 0.24510172D+00 0.30739626D-01 0.28275047D+06 0.28275047D+06 0.28275047D+06 0.10864597D+01  1  2 15  2  7  2       -2 0.369400806925D-04 0.100000000000D+01
0.373134776831D-04 0.000000000000D+00 0.000000000000D+00 0.117344330986D-05 0.000000000000D+00  7 2 -2 24 -13 13 -24 21 2 0.24510172D+00 0.33912166D-01 0.32853374D+06 0.32853374D+06 0.32853374D+06 0.10816446D+01  1  2 12  2  7  2       -2 0.499541268259D-03 0.100000000000D+01
-.258519165301D-04 0.000000000000D+00 0.000000000000D+00 0.117344330986D-05 0.000000000000D+00  7 2 -2 24 -13 13 -24 21 2 0.24510172D+00 0.30739626D-01 0.28275047D+06 0.28275047D+06 0.28275047D+06 0.10864597D+01  1  2  4  2  7  2       -2 -.419095578251D-03 0.100000000000D+01
0.596721329848D-06 0.000000000000D+00 0.000000000000D+00 0.117344330986D-05 0.000000000000D+00  7 2 21 24 -13 13 -24 2 2 0.24510172D+00 0.33912166D-01 0.32853374D+06 0.32853374D+06 0.32853374D+06 0.10816446D+01  1  2 12  4  7  2       -2 0.897021781965D-04 0.100000000000D+01
  </mgrwgt>
  </event>
  <event>
  8     66 0.26993063E-05 0.28999468E+03 0.75467711E-02 0.94467038E-01
        2 -1    0    0  501    0 0.00000000E+00 0.00000000E+00 0.17570756E+04 0.17570756E+04 0.32000000E+00 0.0000E+00 0.9000E+01
       -2 -1    0    0    0  501 0.00000000E+00 0.00000000E+00 -.51910229E+02 0.51911216E+02 0.32000000E+00 0.0000E+00 0.9000E+01
       25  2    1    2    0    0 -.20923232E+03 0.51249844E+02 0.10247099E+04 0.10894016E+04 0.30060067E+03 0.0000E+00 0.0000E+00
       23  2    1    2    0    0 0.20923232E+03 -.51249844E+02 0.68045545E+03 0.71958522E+03 0.91534482E+02 0.0000E+00 0.0000E+00
       24  1    3    3    0    0 0.81398477E+00 -.71810790E+02 0.39629783E+03 0.41070261E+03 0.80419002E+02 0.0000E+00 0.9000E+01
      -11  1    4    4    0    0 0.17128318E+03 -.46940481E+02 0.63898611E+03 0.66320780E+03 0.51099893E-03 0.0000E+00 0.9000E+01
       11  1    4    4    0    0 0.37949134E+02 -.43093629E+01 0.41469340E+02 0.56377420E+02 0.51099893E-03 0.0000E+00 0.9000E+01
      -24  1    3    3    0    0 -.21004630E+03 0.12306063E+03 0.62841206E+03 0.67869897E+03 0.80419002E+02 0.0000E+00 0.9000E+01
#aMCatNLO 1  0  0  2  1 0.33897142D+03 0.00000000D+00  -5  7  0 0.00000000D+00 0.00000000D+00 0.00000000D+00 0.00000000D+00 0.00000000D+00
  <mgrwgt>
 0.1365816997D-02    3    2    0
 0.302011776916548D+03 0.000000000000000D+00 0.000000000000000D+00 0.302011776916548D+03
 0.302011776916548D+03 0.000000000000000D+00 0.000000000000000D+00 -.302011776916548D+03
 0.111257732880304D+03 0.813984765564584D+00 -.718107904959639D+02 0.274520485290380D+02
 0.182372354144709D+03 0.171283182823143D+03 -.469404811593244D+02 0.414528414802675D+02
 0.517760089000199D+02 0.379491340006897D+02 -.430936294094814D+01 -.349577990905580D+02
 0.258617457908063D+03 -.210046301589397D+03 0.123060634596236D+03 -.339470909187474D+02
 0.000000000000000D+00 -.000000000000000D+00 -.000000000000000D+00 0.000000000000000D+00
 0.625992521614211D+03 0.000000000000000D+00 0.000000000000000D+00 0.625992521614211D+03
 0.449028843489080D+03 0.000000000000000D+00 0.000000000000000D+00 -.449028843489080D+03
 0.109851631508206D+03 0.524319402447352D+02 -.457978347127471D+02 0.274520485290380D+02
 0.283110573479835D+03 0.279950118304987D+03 0.782240438207522D+01 0.414528414802675D+02
 0.773016151789583D+02 0.680822903755540D+02 0.108762920721492D+02 -.349577990905580D+02
 0.222373225932566D+03 -.977590822170115D+02 0.179647968314499D+03 -.339470909187474D+02
 0.382384319003726D+03 -.302705266708264D+03 -.152548830055976D+03 0.176963678125131D+03
0.130492575284D-04 0.000000000000D+00 0.000000000000D+00 0.684880246287D-06 0.000000000000D+00  7 2 -2 24 -11 11 -24 21 0 0.27031939D+00 0.79862672D-02 0.84096914D+05 0.84096914D+05 0.84096914D+05 0.11279475D+01  1  2  2  2  7  2       -2 0.134868667062D-02 0.100000000000D+01
-.723505568318D-06 0.000000000000D+00 -.501125848574D-07 0.684880246287D-06 0.000000000000D+00  7 2 -2 24 -11 11 -24 21 2 0.27031939D+00 0.79862672D-02 0.84096914D+05 0.84096914D+05 0.84096914D+05 0.11279475D+01  1  2  3  2  7  2       -2 -.951360011871D-04 0.100000000000D+01
0.853781029467D-06 0.000000000000D+00 0.000000000000D+00 0.684880246287D-06 0.000000000000D+00  7 2 -2 24 -11 11 -24 21 2 0.27031939D+00 0.79862672D-02 0.84096914D+05 0.84096914D+05 0.84096914D+05 0.11279475D+01  1  2 15  2  7  2       -2 0.112266327434D-03 0.100000000000D+01
  </mgrwgt>
  </event>
  <event>
  8     66 0.26993063E-05 0.41912357E+03 0.75467711E-02 0.80081074E-01
        2 -1    0    0  501    0 0.00000000E+00 0.00000000E+00 0.45639175E+03 0.45639186E+03 0.32000000E+00 0.0000E+00 0.9000E+01
       -2 -1    0    0    0  501 0.00000000E+00 0.00000000E+00 -.43668392E+03 0.43668404E+03 0.32000000E+00 0.0000E+00 0.9000E+01
       25  2    1    2    0    0 0.36080991E+03 -.46529213E+02 0.15151873E+03 0.49482445E+03 0.29923996E+03 0.0000E+00 0.0000E+00
       23  2    1    2    0    0 -.36080991E+03 0.46529213E+02 -.13181090E+03 0.39825145E+03 0.94240861E+02 0.0000E+00 0.0000E+00
       24  1    3    3    0    0 0.56594500E+02 -.11231538E+03 0.56379623E+02 0.15957305E+03 0.80419002E+02 0.0000E+00 0.9000E+01
      -13  1    4    4    0    0 -.25504875E+03 0.56613304E+02 -.54557184E+02 0.26689216E+03 0.10565837E+00 0.0000E+00 0.9000E+01
       13  1    4    4    0    0 -.10576117E+03 -.10084091E+02 -.77253718E+02 0.13135928E+03 0.10565837E+00 0.0000E+00 0.9000E+01
      -24  1    3    3    0    0 0.30421541E+03 0.65786163E+02 0.95139104E+02 0.33525140E+03 0.80419002E+02 0.0000E+00 0.9000E+01
#aMCatNLO 1  0  0  2  1 0.22141028D+04 0.00000000D+00  -5  7  0 0.00000000D+00 0.00000000D+00 0.00000000D+00 0.00000000D+00 0.00000000D+00
  <mgrwgt>
 0.7515671010D-03    5    2    0
 0.446429211261738D+03 0.000000000000000D+00 0.000000000000000D+00 0.446429211261738D+03
 0.446429211261738D+03 0.000000000000000D+00 0.000000000000000D+00 -.446429211261738D+03
 0.158367467437260D+03 0.565944997163723D+02 -.112315376175071D+03 0.528711420779508D+02
 0.268161567139769D+03 -.255048934216690D+03 0.566133878296231D+02 -.604614882734467D+02
 0.133096308888254D+03 -.105760978320937D+03 -.100841744064270D+02 -.801720171307707D+02
 0.333233079058194D+03 0.304215412821254D+03 0.657861627518752D+02 0.877623633262666D+02
 0.000000000000000D+00 0.000000000000000D+00 -.000000000000000D+00 -.000000000000000D+00
 0.145228363096857D+04 0.000000000000000D+00 0.000000000000000D+00 0.145228363096857D+04
 0.593275414922634D+04 0.000000000000000D+00 0.000000000000000D+00 -.593275414922634D+04
 0.179517930397310D+03 -.150586352590065D+03 -.169665591313242D+02 0.528711420779508D+02
 0.135025440686593D+04 -.124741144242138D+04 0.513318677833602D+03 -.604614882734467D+02
 0.583667841617206D+03 -.545258537422696D+03 0.192181488117180D+03 -.801720171307707D+02
 0.273911393454344D+03 -.680667576851974D+02 0.237117944473510D+03 0.877623633262666D+02
 0.499768620786012D+04 0.201132309011934D+04 -.925651551292968D+03 -.448047051825777D+04
0.427521200858D-04 0.000000000000D+00 0.000000000000D+00 0.178581387795D-06 0.000000000000D+00  7 2 -2 24 -13 13 -24 21 0 0.70214133D-01 0.67182160D-01 0.17566457D+06 0.17566457D+06 0.17566457D+06 0.11021793D+01  1  2  2  2  7  2       -2 0.744045393534D-03 0.100000000000D+01
-.236361421797D-05 0.000000000000D+00 -.164179398021D-06 0.178581387795D-06 0.000000000000D+00  7 2 -2 24 -13 13 -24 21 2 0.70214133D-01 0.67182160D-01 0.17566457D+06 0.17566457D+06 0.17566457D+06 0.11021793D+01  1  2  3  2  7  2       -2 -.499715545659D-04 0.100000000000D+01
0.271905890203D-05 0.000000000000D+00 0.000000000000D+00 0.178581387795D-06 0.000000000000D+00  7 2 -2 24 -13 13 -24 21 2 0.70214133D-01 0.67182160D-01 0.17566457D+06 0.17566457D+06 0.17566457D+06 0.11021793D+01  1  2 15  2  7  2       -2 0.574863695003D-04 0.100000000000D+01
0.552503960615D-04 0.000000000000D+00 -.387262875231D-04 0.178581387795D-06 0.000000000000D+00  7 2 -2 24 -13 13 -24 21 2 0.70214133D-01 0.94167078D+00 0.17566457D+06 0.17566457D+06 0.17566457D+06 0.11021793D+01  1  2  5  2  7  2       -2 0.688979327035D-08 0.100000000000D+01
0.839711901898D-05 0.000000000000D+00 -.116400032157D-04 0.178581387795D-06 0.000000000000D+00  7 2 21 24 -13 13 -24 2 2 0.70214133D-01 0.94167078D+00 0.17566457D+06 0.17566457D+06 0.17566457D+06 0.11021793D+01  1  2  5  4  7  2       -2 0.270623933860D-11 0.100000000000D+01
  </mgrwgt>
  </event>
  <event>
  8     66 0.26993063E-05 0.61464679E+03 0.75467711E-02 0.84190257E-01
        2 -1    0    0  501    0 0.00000000E+00 0.00000000E+00 0.74839414E+03 0.74839421E+03 0.32000000E+00 0.0000E+00 0.9000E+01
       -2 -1    0    0    0  501 0.00000000E+00 0.00000000E+00 -.54351276E+03 0.54351285E+03 0.32000000E+00 0.0000E+00 0.9000E+01
       25  2    1    2    0    0 -.55606142E+03 -.16893484E+03 -.37995791E+02 0.65551828E+03 0.30086087E+03 0.0000E+00 0.0000E+00
       23  2    1    2    0    0 0.55606142E+03 0.16893484E+03 0.24287718E+03 0.63638878E+03 0.90873961E+02 0.0000E+00 0.0000E+00
       24  1    3    3    0    0 -.97919101E+02 0.47187991E+02 -.45192037E+02 0.14256365E+03 0.80419002E+02 0.0000E+00 0.9000E+01
      -13  1    4    4    0    0 0.78093923E+02 0.21920900E+02 0.70433771E+02 0.10742492E+03 0.10565837E+00 0.0000E+00 0.9000E+01
       13  1    4    4    0    0 0.47796749E+03 0.14701394E+03 0.17244341E+03 0.52896386E+03 0.10565837E+00 0.0000E+00 0.9000E+01
      -24  1    3    3    0    0 -.45814232E+03 -.21612283E+03 0.71962457E+01 0.51295464E+03 0.80419002E+02 0.0000E+00 0.9000E+01
#aMCatNLO 1  0  0  1  1 0.11595205D+04 0.00000000D+00  -5  7  0 0.00000000D+00 0.00000000D+00 0.00000000D+00 0.00000000D+00 0.00000000D+00
  <mgrwgt>
 0.1405490641D-02    5    2    0
 0.637778855614148D+03 0.000000000000000D+00 0.000000000000000D+00 0.637778855614148D+03
 0.637778855614148D+03 0.000000000000000D+00 0.000000000000000D+00 -.637778855614148D+03
 0.151649733829478D+03 -.979191007514043D+02 0.471879910567578D+02 -.686700009046510D+02
 0.974881320800287D+02 0.780933823336113D+02 0.219207306327644D+02 0.540818000872318D+02
 0.508046324443366D+03 0.477968034445544D+03 0.147014105259994D+03 0.896910178517380D+02
 0.518373520875423D+03 -.458142316027751D+03 -.216122826949516D+03 -.751028170343188D+02
 0.000000000000000D+00 0.000000000000000D+00 0.000000000000000D+00 0.000000000000000D+00
 0.149074527945329D+04 0.000000000000000D+00 0.000000000000000D+00 0.149074527945329D+04
 0.139641971172999D+04 0.000000000000000D+00 0.000000000000000D+00 -.139641971172999D+04
 0.287268596860258D+03 -.266012656779922D+03 0.240359771245786D+02 -.686700009046510D+02
 0.587031969242382D+02 0.182764321691250D+02 0.136819682654926D+02 0.540818000872318D+02
 0.237925510584722D+03 0.192281496246189D+03 0.107665668181862D+03 0.896910178517380D+02
 0.113991686604688D+04 -.109322157468537D+04 -.303594138711073D+03 -.751028170343188D+02
 0.116335082076719D+04 0.114867630304998D+04 0.158210525139139D+03 0.943255677233043D+02
0.230519361489D-03 0.000000000000D+00 0.000000000000D+00 0.295587046913D-05 0.000000000000D+00  7 2 -2 24 -13 13 -24 21 0 0.11513757D+00 0.83617360D-01 0.37779067D+06 0.37779067D+06 0.37779067D+06 0.10772206D+01  1  2  2  1  7  1        2 0.135812285480D-02 0.100000000000D+01
-.127853791756D-04 0.000000000000D+00 -.885255045259D-06 0.295587046913D-05 0.000000000000D+00  7 2 -2 24 -13 13 -24 21 2 0.11513757D+00 0.83617360D-01 0.37779067D+06 0.37779067D+06 0.37779067D+06 0.10772206D+01  1  2  3  1  7  1        2 -.874086866994D-04 0.100000000000D+01
0.148026458707D-04 0.000000000000D+00 0.000000000000D+00 0.295587046913D-05 0.000000000000D+00  7 2 -2 24 -13 13 -24 21 2 0.11513757D+00 0.83617360D-01 0.37779067D+06 0.37779067D+06 0.37779067D+06 0.10772206D+01  1  2 15  1  7  1        2 0.101199957973D-03 0.100000000000D+01
0.652144256345D-04 0.000000000000D+00 -.783393918557D-04 0.295587046913D-05 0.000000000000D+00  7 2 -2 24 -13 13 -24 21 2 0.41489124D+00 0.83617360D-01 0.37779067D+06 0.37779067D+06 0.37779067D+06 0.10772206D+01  1  2  5  1  7  1        2 0.330096024868D-04 0.100000000000D+01
0.120080702119D-04 0.000000000000D+00 -.118045206684D-04 0.295587046913D-05 0.000000000000D+00  7 21 -2 24 -13 13 -24 -2 2 0.41489124D+00 0.83617360D-01 0.37779067D+06 0.37779067D+06 0.37779067D+06 0.10772206D+01  1  2  5  3  7  1        2 0.566912817970D-06 0.100000000000D+01
  </mgrwgt>
  </event>
  <event>
  8     66 0.26993063E-05 0.23349683E+03 0.75467711E-02 0.85770740E-01
        2 -1    0    0  501    0 0.00000000E+00 0.00000000E+00 0.19514935E+04 0.19514936E+04 0.32000000E+00 0.0000E+00 0.9000E+01
       -2 -1    0    0    0  501 0.00000000E+00 0.00000000E+00 -.69424685E+02 0.69425423E+02 0.32000000E+00 0.0000E+00 0.9000E+01
       25  2    1    2    0    0 -.17171859E+02 -.14146817E+03 0.35355833E+03 0.48279335E+03 0.29627319E+03 0.0000E+00 0.0000E+00
       23  2    1    2    0    0 0.17171859E+02 0.14146817E+03 0.15285105E+04 0.15381256E+04 0.95801645E+02 0.0000E+00 0.0000E+00
       24  1    3    3    0    0 -.20448151E+02 -.19029011E+03 0.32274156E+03 0.38374182E+03 0.80419002E+02 0.0000E+00 0.9000E+01
      -11  1    4    4    0    0 0.49894387E+02 0.63875573E+02 0.54192939E+03 0.54795712E+03 0.51099893E-03 0.0000E+00 0.9000E+01
       11  1    4    4    0    0 -.32722528E+02 0.77592599E+02 0.98658112E+03 0.99016851E+03 0.51099893E-03 0.0000E+00 0.9000E+01
      -24  1    3    3    0    0 0.32762912E+01 0.48821938E+02 0.30816770E+02 0.99051527E+02 0.80419002E+02 0.0000E+00 0.9000E+01
#aMCatNLO 1  0  0  1  1 0.11323207D+04 0.00000000D+00  -5  7  0 0.00000000D+00 0.00000000D+00 0.00000000D+00 0.00000000D+00 0.00000000D+00
  <mgrwgt>
 0.3018383668D-02    3    2    0
 0.368079605633894D+03 0.000000000000000D+00 0.000000000000000D+00 0.368079605633894D+03
 0.368079605633894D+03 0.000000000000000D+00 0.000000000000000D+00 -.368079605633894D+03
 0.228332793981063D+03 -.204481505263280D+02 -.190290110292573D+03 -.950799448765150D+02
 0.118763056084855D+03 0.498943871679016D+02 0.638755733591446D+02 0.868050963238598D+02
 0.195931460320297D+03 -.327225278693843D+02 0.775925986398429D+02 0.176911734911502D+03
 0.193131900881572D+03 0.327629122781082D+01 0.488219382935858D+02 -.168636886358847D+03
 0.000000000000000D+00 -.000000000000000D+00 -.000000000000000D+00 -.000000000000000D+00
 0.752081421639420D+03 0.000000000000000D+00 0.000000000000000D+00 0.752081421639420D+03
 0.484956631398353D+04 0.000000000000000D+00 0.000000000000000D+00 -.484956631398353D+04
 0.249992647190856D+03 0.206818512902582D+03 -.649231430089819D+02 -.950799448765150D+02
 0.332542026832701D+03 0.264322873622412D+03 0.182160625114751D+03 0.868050963238598D+02
 0.373038906531459D+03 0.237612239496347D+03 0.226717197138462D+03 0.176911734911502D+03
 0.395011640926535D+03 0.282720805064465D+03 0.202971740535468D+03 -.168636886358847D+03
 0.425106251414140D+04 -.991474431085806D+03 -.546926419779699D+03 -.409748489234411D+04
0.558041109403D-04 0.000000000000D+00 0.000000000000D+00 0.399336516229D-08 0.000000000000D+00  7 2 -2 24 -11 11 -24 21 0 0.30022983D+00 0.10680780D-01 0.54520771D+05 0.54520771D+05 0.54520771D+05 0.11440034D+01  1  2  2  1  7  1        2 0.293883191535D-02 0.100000000000D+01
-.231941457510D-05 0.000000000000D+00 -.214302479571D-06 0.399336516229D-08 0.000000000000D+00  7 2 -2 24 -11 11 -24 21 2 0.30022983D+00 0.10680780D-01 0.54520771D+05 0.54520771D+05 0.54520771D+05 0.11440034D+01  1  2  3  1  7  1        2 -.159860653408D-03 0.100000000000D+01
0.347362914498D-05 0.000000000000D+00 0.000000000000D+00 0.399336516229D-08 0.000000000000D+00  7 2 -2 24 -11 11 -24 21 2 0.30022983D+00 0.10680780D-01 0.54520771D+05 0.54520771D+05 0.54520771D+05 0.11440034D+01  1  2 15  1  7  1        2 0.239412406379D-03 0.100000000000D+01
  </mgrwgt>
  </event>
  <event>
  8     66 0.26993063E-05 0.34060532E+03 0.75467711E-02 0.92592422E-01
        2 -1    0    0  501    0 0.00000000E+00 0.00000000E+00 0.25128244E+04 0.25128244E+04 0.32000000E+00 0.0000E+00 0.9000E+01
       -2 -1    0    0    0  501 0.00000000E+00 0.00000000E+00 -.16102399E+03 0.16102431E+03 0.32000000E+00 0.0000E+00 0.9000E+01
       25  2    1    2    0    0 0.25292088E+03 0.17477820E+03 0.23043120E+04 0.23439849E+04 0.29982534E+03 0.0000E+00 0.0000E+00
       23  2    1    2    0    0 -.25292088E+03 -.17477820E+03 0.47488359E+02 0.32986374E+03 0.10972032E+03 0.0000E+00 0.0000E+00
       24  1    3    3    0    0 0.10157254E+03 0.15260640E+03 0.63634040E+03 0.66708471E+03 0.80419002E+02 0.0000E+00 0.9000E+01
      -11  1    4    4    0    0 -.33474361E+02 -.14566420E+02 0.45259827E+02 0.58147789E+02 0.51099893E-03 0.0000E+00 0.9000E+01
       11  1    4    4    0    0 -.21944652E+03 -.16021178E+03 0.22285316E+01 0.27171595E+03 0.51099893E-03 0.0000E+00 0.9000E+01
      -24  1    3    3    0    0 0.15134834E+03 0.22171800E+02 0.16679716E+04 0.16769002E+04 0.80419002E+02 0.0000E+00 0.9000E+01
#aMCatNLO 1  0  0  2  1 0.44429432D+03 0.00000000D+00  -5  7  0 0.00000000D+00 0.00000000D+00 0.00000000D+00 0.00000000D+00 0.00000000D+00
  <mgrwgt>
 0.7614852295D-03    6    2    0
 0.636101772487829D+03 0.000000000000000D+00 0.000000000000000D+00 0.636101772487829D+03
 0.636101772487829D+03 0.000000000000000D+00 0.000000000000000D+00 -.636101772487829D+03
 0.225701308568949D+03 0.101572543329116D+03 0.152606402584819D+03 0.104250511112130D+03
 0.385443918434974D+02 -.334743611840958D+02 -.145664196080152D+02 -.123675666848816D+02
 0.566958233604554D+03 -.219446520881348D+03 -.160211783282777D+03 -.497611341935069D+03
 0.440999610958659D+03 0.151348338736327D+03 0.221718003059731D+02 0.405728397507821D+03
 0.000000000000000D+00 -.000000000000000D+00 -.000000000000000D+00 -.000000000000000D+00
 0.878409946632199D+03 0.000000000000000D+00 0.000000000000000D+00 0.878409946632199D+03
 0.914936388301718D+03 0.000000000000000D+00 0.000000000000000D+00 -.914936388301718D+03
 0.299412346767279D+03 0.123317577605564D+03 0.238966824954164D+03 0.104250511112130D+03
 0.330397412415131D+02 -.305100516260313D+02 -.279366164344349D+01 -.123675666848816D+02
 0.527567393178505D+03 -.174122052494387D+03 0.197943819778364D+02 -.497611341935069D+03
 0.487533599268467D+03 0.189799036557699D+03 0.174878779841355D+03 0.405728397507821D+03
 0.445793254478153D+03 -.108484510042845D+03 -.430846325129912D+03 -.365264416695195D+02
0.127673291252D-03 0.000000000000D+00 0.000000000000D+00 0.716983561408D-07 0.000000000000D+00  7 2 -2 24 -11 11 -24 21 0 0.38658839D+00 0.24772948D-01 0.11601199D+06 0.11601199D+06 0.11601199D+06 0.11164670D+01  1  2  2  2  7  2       -2 0.828337388334D-03 0.100000000000D+01
-.372815071369D-05 0.000000000000D+00 -.490299055557D-06 0.716983561408D-07 0.000000000000D+00  7 2 -2 24 -11 11 -24 21 2 0.38658839D+00 0.24772948D-01 0.11601199D+06 0.11601199D+06 0.11601199D+06 0.11164670D+01  1  2  3  2  7  2       -2 -.301503544890D-04 0.100000000000D+01
0.783053768325D-05 0.000000000000D+00 0.000000000000D+00 0.716983561408D-07 0.000000000000D+00  7 2 -2 24 -11 11 -24 21 2 0.38658839D+00 0.24772948D-01 0.11601199D+06 0.11601199D+06 0.11601199D+06 0.11164670D+01  1  2 15  2  7  2       -2 0.633272378506D-04 0.100000000000D+01
-.311843274746D-04 0.000000000000D+00 0.000000000000D+00 0.716983561408D-07 0.000000000000D+00  7 2 -2 24 -11 11 -24 21 2 0.38658839D+00 0.24772948D-01 0.11601199D+06 0.11601199D+06 0.11601199D+06 0.11164670D+01  1  2  4  2  7  2       -2 -.252194345150D-03 0.100000000000D+01
0.310474497472D-04 0.000000000000D+00 -.386034692967D-04 0.716983561408D-07 0.000000000000D+00  7 2 -2 24 -11 11 -24 21 2 0.38658839D+00 0.56366356D-01 0.11601199D+06 0.11601199D+06 0.11601199D+06 0.11164670D+01  1  2  5  2  7  2       -2 0.550691919953D-04 0.100000000000D+01
0.521674640032D-05 0.000000000000D+00 -.344999419056D-05 0.716983561408D-07 0.000000000000D+00  7 2 21 24 -11 11 -24 2 2 0.38658839D+00 0.56366356D-01 0.11601199D+06 0.11601199D+06 0.11601199D+06 0.11164670D+01  1  2  5  4  7  2       -2 0.970961109832D-04 0.100000000000D+01
  </mgrwgt>
  </event>
  <event>
  8     66 0.26993063E-05 0.18319222E+03 0.75467711E-02 0.91313969E-01
        2 -1    0    0  501    0 0.00000000E+00 0.00000000E+00 0.18649385E+04 0.18649386E+04 0.32000000E+00 0.0000E+00 0.9000E+01
       -2 -1    0    0    0  501 0.00000000E+00 0.00000000E+00 -.32153948E+02 0.32155540E+02 0.32000000E+00 0.0000E+00 0.9000E+01
       25  2    1    2    0    0 0.77833173E+02 0.31515991E+02 0.16310548E+04 0.16605761E+04 0.30020321E+03 0.0000E+00 0.0000E+00
       23  2    1    2    0    0 -.77833173E+02 -.31515991E+02 0.20172975E+03 0.23651797E+03 0.90524005E+02 0.0000E+00 0.0000E+00
       24  1    3    3    0    0 0.12788375E+03 0.77856495E+02 0.58404297E+03 0.60826745E+03 0.80419002E+02 0.0000E+00 0.9000E+01
      -11  1    4    4    0    0 -.30746404E+02 -.31330499E+02 0.19023805E+02 0.47841892E+02 0.51099893E-03 0.0000E+00 0.9000E+01
       11  1    4    4    0    0 -.47086769E+02 -.18549218E+00 0.18270595E+03 0.18867607E+03 0.51099893E-03 0.0000E+00 0.9000E+01
      -24  1    3    3    0    0 -.50050576E+02 -.46340504E+02 0.10470119E+04 0.10523087E+04 0.80419002E+02 0.0000E+00 0.9000E+01
#aMCatNLO 1  0  0  1  1 0.61845749D+03 0.00000000D+00  -5  7  0 0.00000000D+00 0.00000000D+00 0.00000000D+00 0.00000000D+00 0.00000000D+00
  <mgrwgt>
 0.1053085531D-02    3    2    0
 0.244880936770435D+03 0.000000000000000D+00 0.000000000000000D+00 0.244880936770435D+03
 0.244880936770435D+03 0.000000000000000D+00 0.000000000000000D+00 -.244880936770435D+03
 0.170522958506630D+03 0.127883749231464D+03 0.778564947033509D+02 -.139633928002648D+02
 0.114124921501273D+03 -.307464039904571D+02 -.313304988766969D+02 -.105344939078556D+03
 0.471160110616471D+02 -.470867693594114D+02 -.185492177836988D+00 0.164931570865403D+01
 0.157997982471320D+03 -.500505758815954D+02 -.463405036488170D+02 0.117659016170167D+03
 0.000000000000000D+00 0.000000000000000D+00 -.000000000000000D+00 -.000000000000000D+00
 0.575843581531141D+03 0.000000000000000D+00 0.000000000000000D+00 0.575843581531141D+03
 0.921595882176964D+03 0.000000000000000D+00 0.000000000000000D+00 -.921595882176964D+03
 0.152831723186300D+03 -.203973438404403D+02 0.127590327546737D+03 -.139633928002648D+02
 0.208058990348482D+03 -.178490615916331D+03 0.182232627477609D+02 -.105344939078556D+03
 0.132192230246778D+03 -.129312336278103D+03 0.273931593944427D+02 0.164931570865403D+01
 0.295812715810643D+03 -.258155020316008D+03 0.234582241528991D+02 0.117659016170167D+03
 0.708543804115902D+03 0.586355316350882D+03 -.196664973841839D+03 -.345752300645823D+03
0.555414894860D-05 0.000000000000D+00 0.000000000000D+00 0.838516660493D-06 0.000000000000D+00  7 2 -2 24 -11 11 -24 21 0 0.28691375D+00 0.49468858D-02 0.33559391D+05 0.33559391D+05 0.33559391D+05 0.11628449D+01  1  2  2  1  7  1        2 0.103623990193D-02 0.100000000000D+01
-.276960749719D-06 0.000000000000D+00 -.213293944036D-07 0.838516660493D-06 0.000000000000D+00  7 2 -2 24 -11 11 -24 21 2 0.28691375D+00 0.49468858D-02 0.33559391D+05 0.33559391D+05 0.33559391D+05 0.11628449D+01  1  2  3  1  7  1        2 -.698722295023D-04 0.100000000000D+01
0.343733743677D-06 0.000000000000D+00 0.000000000000D+00 0.838516660493D-06 0.000000000000D+00  7 2 -2 24 -11 11 -24 21 2 0.28691375D+00 0.49468858D-02 0.33559391D+05 0.33559391D+05 0.33559391D+05 0.11628449D+01  1  2 15  1  7  1        2 0.867178582175D-04 0.100000000000D+01
  </mgrwgt>
  </event>
  <event>
  8     66 0.26993063E-05 0.53167952E+03 0.75467711E-02 0.93792908E-01
        2 -1    0    0  501    0 0.00000000E+00 0.00000000E+00 0.88629861E+03 0.88629867E+03 0.32000000E+00 0.0000E+00 0.9000E+01
       -2 -1    0    0    0  501 0.00000000E+00 0.00000000E+00 -.32820337E+03 0.32820352E+03 0.32000000E+00 0.0000E+00 0.9000E+01
       25  2    1    2    0    0 0.20736187E+03 0.44703936E+03 0.27207101E+03 0.63762592E+03 0.29950133E+03 0.0000E+00 0.0000E+00
       23  2    1    2    0    0 -.20736187E+03 -.44703936E+03 0.28602423E+03 0.57687627E+03 0.90184462E+02 0.0000E+00 0.0000E+00
       24  1    3    3    0    0 0.74885825E+02 0.14203989E+02 0.91482660E+02 0.14368693E+03 0.80419002E+02 0.0000E+00 0.9000E+01
      -11  1    4    4    0    0 -.16258261E+03 -.35518410E+03 0.18161769E+03 0.43078282E+03 0.51099893E-03 0.0000E+00 0.9000E+01
       11  1    4    4    0    0 -.44779261E+02 -.91855253E+02 0.10440655E+03 0.14609345E+03 0.51099893E-03 0.0000E+00 0.9000E+01
      -24  1    3    3    0    0 0.13247605E+03 0.43283537E+03 0.18058835E+03 0.49393899E+03 0.80419002E+02 0.0000E+00 0.9000E+01
#aMCatNLO 1  0  0  1  1 0.13473659D+02 0.00000000D+00  -5  7  0 0.00000000D+00 0.00000000D+00 0.00000000D+00 0.00000000D+00 0.00000000D+00
  <mgrwgt>
 0.5115870091D-03    4    2    0
 0.539338777289239D+03 0.000000000000000D+00 0.000000000000000D+00 0.539338777289239D+03
 0.539338777289239D+03 0.000000000000000D+00 0.000000000000000D+00 -.539338777289239D+03
 0.114447593743265D+03 0.748858250866984D+02 0.142039890716516D+02 0.286600009558567D+02
 0.391059133212534D+03 -.162582612124042D+03 -.355184103244655D+03 -.183954534097949D+02
 0.110470473467492D+03 -.447792611971676D+02 -.918552530642856D+02 0.419661263314074D+02
 0.462700354155188D+03 0.132476048234511D+03 0.432835367237289D+03 -.522306738774692D+02
 0.000000000000000D+00 -.000000000000000D+00 -.000000000000000D+00 -.000000000000000D+00
 0.542952591162391D+03 0.000000000000000D+00 0.000000000000000D+00 0.542952591162391D+03
 0.552087501866988D+03 0.000000000000000D+00 0.000000000000000D+00 -.552087501866988D+03
 0.115397626791346D+03 0.763203500367332D+02 0.142549931667830D+02 0.286600009558567D+02
 0.388902476249502D+03 -.157714664962730D+03 -.355011024874632D+03 -.183954534097949D+02
 0.109879342698568D+03 -.434039995828928D+02 -.918063560589018D+02 0.419661263314074D+02
 0.464582254648952D+03 0.138263464805405D+03 0.433041137060491D+03 -.522306738774692D+02
 0.162783926410126D+02 -.134651502965156D+02 -.478749293740362D+00 -.913491070459709D+01
0.536296767973D-04 0.000000000000D+00 0.000000000000D+00 0.245975382899D-05 0.000000000000D+00  7 2 -2 24 -11 11 -24 21 0 0.13635365D+00 0.50492842D-01 0.28268311D+06 0.28268311D+06 0.28268311D+06 0.10864674D+01  1  2  2  1  7  1        2 0.748579443619D-03 0.100000000000D+01
-.297868540321D-05 0.000000000000D+00 -.205952079920D-06 0.245975382899D-05 0.000000000000D+00  7 2 -2 24 -11 11 -24 21 2 0.13635365D+00 0.50492842D-01 0.28268311D+06 0.28268311D+06 0.28268311D+06 0.10864674D+01  1  2  3  1  7  1        2 -.490784431358D-04 0.100000000000D+01
0.338230086734D-05 0.000000000000D+00 0.000000000000D+00 0.245975382899D-05 0.000000000000D+00  7 2 -2 24 -11 11 -24 21 2 0.13635365D+00 0.50492842D-01 0.28268311D+06 0.28268311D+06 0.28268311D+06 0.10864674D+01  1  2 15  1  7  1        2 0.557286313643D-04 0.100000000000D+01
-.147872401310D-04 0.000000000000D+00 0.000000000000D+00 0.245975382899D-05 0.000000000000D+00  7 2 -2 24 -11 11 -24 21 2 0.13635365D+00 0.50492842D-01 0.28268311D+06 0.28268311D+06 0.28268311D+06 0.10864674D+01  1  2  4  1  7  1        2 -.243642622723D-03 0.100000000000D+01
  </mgrwgt>
  </event>
  <event>
  8     66 0.26993063E-05 0.38057487E+03 0.75467711E-02 0.85528649E-01
        2 -1    0    0  501    0 0.00000000E+00 0.00000000E+00 0.24377140E+04 0.24377140E+04 0.32000000E+00 0.0000E+00 0.9000E+01
       -2 -1    0    0    0  501 0.00000000E+00 0.00000000E+00 -.25500451E+03 0.25500471E+03 0.32000000E+00 0.0000E+00 0.9000E+01
       25  2    1    2    0    0 0.16008367E+02 -.73383659E+03 0.81133797E+03 0.11345105E+04 0.30012062E+03 0.0000E+00 0.0000E+00
       23  2    1    2    0    0 -.16008367E+02 0.73383659E+03 0.13713715E+04 0.15582082E+04 0.92631442E+02 0.0000E+00 0.0000E+00
       24  1    3    3    0    0 -.62987089E+02 -.93965327E+02 0.19180493E+03 0.23675558E+03 0.80419002E+02 0.0000E+00 0.9000E+01
      -13  1    4    4    0    0 0.22141513E+01 -.16835747E+01 0.12788874E+01 0.30632673E+01 0.10565837E+00 0.0000E+00 0.9000E+01
       13  1    4    4    0    0 -.18222518E+02 0.73552016E+03 0.13700926E+04 0.15551449E+04 0.10565837E+00 0.0000E+00 0.9000E+01
      -24  1    3    3    0    0 0.78995456E+02 -.63987126E+03 0.61953304E+03 0.89775493E+03 0.80419002E+02 0.0000E+00 0.9000E+01
#aMCatNLO 1  0  0  1  2 0.74479257D+03 0.00000000D+00  -5  7  0 0.00000000D+00 0.00000000D+00 0.00000000D+00 0.00000000D+00 0.00000000D+00
  <mgrwgt>
 0.1297538705D-02    7    2    0
 0.788434111041301D+03 0.000000000000000D+00 0.000000000000000D+00 0.788434111041301D+03
 0.788434111041301D+03 0.000000000000000D+00 0.000000000000000D+00 -.788434111041301D+03
 0.138795195661160D+03 -.629870894109565D+02 -.939653270152582D+02 -.185123474623936D+00
 0.345972285009669D+01 0.221417788279061D+01 -.168453378330712D+01 -.205656131339151D+01
 0.759134625178240D+03 -.182225446165497D+02 0.735521122518184D+03 0.186981272703430D+03
 0.675478678393105D+03 0.789954561447156D+02 -.639871261719619D+03 -.184739587915414D+03
 0.000000000000000D+00 0.000000000000000D+00 -.000000000000000D+00 0.000000000000000D+00
 0.164861895259292D+04 0.000000000000000D+00 0.000000000000000D+00 0.164861895259292D+04
 0.105051354873904D+04 0.000000000000000D+00 0.000000000000000D+00 -.105051354873904D+04
 0.120870638730384D+03 -.814938135840499D+02 -.387455730316078D+02 -.185123474623936D+00
 0.273948880112000D+01 0.177235194758999D+01 -.366228111423499D+00 -.205656131339151D+01
 0.117168474870306D+04 -.155834570720088D+03 0.114612335312132D+04 0.186981272703430D+03
 0.448617208628924D+03 -.112033026196507D+01 -.400824417221037D+03 -.184739587915414D+03
 0.955220416468471D+03 0.236676362618513D+03 -.706187134757247D+03 0.598105403853885D+03
0.446796981588D-03 0.000000000000D+00 0.000000000000D+00 0.812268548386D-05 0.000000000000D+00  7 2 -2 24 -13 13 -24 21 0 0.37503293D+00 0.39231480D-01 0.58296977D+06 0.58296977D+06 0.58296977D+06 0.10638298D+01  1  2  2  1  7  1        2 0.128759164585D-02 0.100000000000D+01
-.247909499071D-04 0.000000000000D+00 -.171581805364D-05 0.812268548386D-05 0.000000000000D+00  7 2 -2 24 -13 13 -24 21 2 0.37503293D+00 0.39231480D-01 0.58296977D+06 0.58296977D+06 0.58296977D+06 0.10638298D+01  1  2  3  1  7  1        2 -.808547162828D-04 0.100000000000D+01
0.283408264646D-04 0.000000000000D+00 0.000000000000D+00 0.812268548386D-05 0.000000000000D+00  7 2 -2 24 -13 13 -24 21 2 0.37503293D+00 0.39231480D-01 0.58296977D+06 0.58296977D+06 0.58296977D+06 0.10638298D+01  1  2 15  1  7  1        2 0.924325002310D-04 0.100000000000D+01
0.142111937044D-06 0.000000000000D+00 0.000000000000D+00 0.812268548386D-05 0.000000000000D+00  7 2 -2 24 -13 13 -24 21 2 0.78889454D+00 0.39231480D-01 0.14798182D+07 0.14798182D+07 0.14798182D+07 0.10367182D+01  1  2 12  1  7  1        2 0.214993015533D-08 0.100000000000D+01
-.134714816453D-03 0.000000000000D+00 -.976145637057D-04 0.812268548386D-05 0.000000000000D+00  7 2 -2 24 -13 13 -24 21 2 0.80610183D+00 0.39231480D-01 0.58296977D+06 0.58296977D+06 0.58296977D+06 0.10638298D+01  1  2  5  1  7  1        2 -.163256690908D-05 0.100000000000D+01
0.114295661848D-07 0.000000000000D+00 0.000000000000D+00 0.812268548386D-05 0.000000000000D+00  7 21 -2 24 -13 13 -24 -2 2 0.78889454D+00 0.39231480D-01 0.14798182D+07 0.14798182D+07 0.14798182D+07 0.10367182D+01  1  2 12  3  7  1        2 0.966635615499D-12 0.100000000000D+01
-.505115910320D-05 0.000000000000D+00 -.808484576041D-05 0.812268548386D-05 0.000000000000D+00  7 21 -2 24 -13 13 -24 -2 2 0.80610183D+00 0.39231480D-01 0.58296977D+06 0.58296977D+06 0.58296977D+06 0.10638298D+01  1  2  5  3  7  1        2 -.308990537418D-09 0.100000000000D+01
  </mgrwgt>
  </event>
  <event>
  7     66 0.26993063E-05 0.14037894E+03 0.75467711E-02 0.88194898E-01
        2 -1    0    0  501    0 0.00000000E+00 0.00000000E+00 0.49118560E+03 0.49118571E+03 0.32000000E+00 0.0000E+00 0.9000E+01
       -2 -1    0    0    0  501 0.00000000E+00 0.00000000E+00 -.99764926E+02 0.99765439E+02 0.32000000E+00 0.0000E+00 0.9000E+01
       23  2    1    2    0    0 -.47680765E+01 -.56124704E+02 0.39876348E+02 0.11150659E+03 0.87583561E+02 0.0000E+00 0.0000E+00
       24  1    1    2    0    0 0.41140598E+01 0.52851958E+02 -.20766538E+02 0.98532837E+02 0.80419002E+02 0.0000E+00 0.9000E+01
      -11  1    3    3    0    0 -.45236162E+02 -.19110396E+02 0.22137733E+02 0.53866472E+02 0.51099893E-03 0.0000E+00 0.9000E+01
       11  1    3    3    0    0 0.40468086E+02 -.37014308E+02 0.17738614E+02 0.57640120E+02 0.51099893E-03 0.0000E+00 0.9000E+01
      -24  1    1    2    0    0 0.65401669E+00 0.32727463E+01 0.37231087E+03 0.38091172E+03 0.80419002E+02 0.0000E+00 0.9000E+01
#aMCatNLO 1  0  0  2  1 0.89853262D+03 0.00000000D+00  -5  7  0 0.00000000D+00 0.00000000D+00 0.00000000D+00 0.00000000D+00 0.00000000D+00
  <mgrwgt>
 0.5279774998D-03    5    2    0
 0.221366840075666D+03 0.000000000000000D+00 0.000000000000000D+00 0.221366840075666D+03
 0.221366840075666D+03 0.000000000000000D+00 0.000000000000000D+00 -.221366840075666D+03
 0.149879059098550D+03 0.411406368616137D+01 0.528520012391842D+02 -.114831427958097D+03
 0.523278605322654D+02 -.452361674429188D+02 -.191104562071791D+02 -.180744185664138D+02
 0.612541223088918D+02 0.404680798416846D+02 -.370143791015306D+02 -.272825540132863D+02
 0.179272638211625D+03 0.654023915072856D+00 0.327283406952549D+01 0.160188400537797D+03
 0.000000000000000D+00 0.000000000000000D+00 0.000000000000000D+00 -.000000000000000D+00
 0.823646910424464D+03 0.000000000000000D+00 0.000000000000000D+00 0.823646910424464D+03
 0.112611427316317D+04 0.000000000000000D+00 0.000000000000000D+00 -.112611427316317D+04
 0.319817646131119D+03 -.286536684763560D+03 0.229473802489965D+02 -.114831427958097D+03
 0.213686578807222D+03 -.209847277190109D+03 -.360470471983269D+02 -.180744185664138D+02
 0.645769500563879D+02 -.373968379957024D+02 -.450257840911241D+02 -.272825540132863D+02
 0.403604393454204D+03 -.360033295415784D+03 -.338377449951692D+02 0.160188400537797D+03
 0.948075615138702D+03 0.893814095365157D+03 0.919631960356238D+02 -.302467362738708D+03
0.213763475990D-05 0.000000000000D+00 0.000000000000D+00 0.219097492302D-10 0.000000000000D+00  7 2 -2 24 -11 11 -24 21 0 0.75567063D-01 0.15348498D-01 0.19706248D+05 0.19706248D+05 0.19706248D+05 0.11846587D+01  1  2  2  2  7  2       -2 0.488870065031D-03 0.100000000000D+01
-.888022354936D-07 0.000000000000D+00 -.820908033018D-08 0.219097492302D-10 0.000000000000D+00  7 2 -2 24 -11 11 -24 21 2 0.75567063D-01 0.15348498D-01 0.19706248D+05 0.19706248D+05 0.19706248D+05 0.11846587D+01  1  2  3  2  7  2       -2 -.285016722275D-04 0.100000000000D+01
0.138129978593D-06 0.000000000000D+00 0.000000000000D+00 0.219097492302D-10 0.000000000000D+00  7 2 -2 24 -11 11 -24 21 2 0.75567063D-01 0.15348498D-01 0.19706248D+05 0.19706248D+05 0.19706248D+05 0.11846587D+01  1  2 15  2  7  2       -2 0.443337417438D-04 0.100000000000D+01
0.884490221975D-05 0.000000000000D+00 -.227196690755D-05 0.219097492302D-10 0.000000000000D+00  7 2 -2 24 -11 11 -24 21 2 0.75567063D-01 0.24138567D+00 0.19706248D+05 0.19706248D+05 0.19706248D+05 0.11846587D+01  1  2  5  2  7  2       -2 0.751157643653D-05 0.100000000000D+01
0.220835745700D-05 0.000000000000D+00 -.699977215114D-06 0.219097492302D-10 0.000000000000D+00  7 2 21 24 -11 11 -24 2 2 0.75567063D-01 0.24138567D+00 0.19706248D+05 0.19706248D+05 0.19706248D+05 0.11846587D+01  1  2  5  4  7  2       -2 0.157637888523D-04 0.100000000000D+01
  </mgrwgt>
  </event>
  <event>
  8     66 0.26993063E-05 0.30858835E+03 0.75467711E-02 0.95242878E-01
        2 -1    0    0  501    0 0.00000000E+00 0.00000000E+00 0.29520237E+04 0.29520237E+04 0.32000000E+00 0.0000E+00 0.9000E+01
       -2 -1    0    0    0  501 0.00000000E+00 0.00000000E+00 -.70620426E+02 0.70621151E+02 0.32000000E+00 0.0000E+00 0.9000E+01
       25  2    1    2    0    0 0.32635938E+03 -.15421087E+03 0.21656378E+04 0.22158615E+04 0.29960576E+03 0.0000E+00 0.0000E+00
       23  2    1    2    0    0 -.32635938E+03 0.15421087E+03 0.71576547E+03 0.80678338E+03 0.91037181E+02 0.0000E+00 0.0000E+00
       24  1    3    3    0    0 -.13542527E+02 0.80004293E+01 0.46488218E+03 0.47204880E+03 0.80419002E+02 0.0000E+00 0.9000E+01
      -13  1    4    4    0    0 -.85680677E+02 0.54549859E+02 0.29406054E+03 0.31110847E+03 0.10565837E+00 0.0000E+00 0.9000E+01
       13  1    4    4    0    0 -.24067871E+03 0.99661012E+02 0.42170493E+03 0.49567491E+03 0.10565837E+00 0.0000E+00 0.9000E+01
      -24  1    3    3    0    0 0.33990191E+03 -.16221130E+03 0.17007556E+04 0.17438127E+04 0.80419002E+02 0.0000E+00 0.9000E+01
#aMCatNLO 1  0  0  1  2 0.11078057D+03 0.00000000D+00  -5  7  0 0.00000000D+00 0.00000000D+00 0.00000000D+00 0.00000000D+00 0.00000000D+00
  <mgrwgt>
 0.1102621137D-02    9    2    0
 0.456589851847503D+03 0.000000000000000D+00 0.000000000000000D+00 0.456589851847503D+03
 0.456589851847503D+03 0.000000000000000D+00 0.000000000000000D+00 -.456589851847503D+03
 0.956250234425725D+02 -.135425270069119D+02 0.800042925171644D+01 0.492901840945777D+02
 0.101911102439310D+03 -.856804678119829D+02 0.545497982382840D+02 -.830961780576223D+01
 0.310067681314434D+03 -.240678916969372D+03 0.996610726583067D+02 -.168176385139994D+03
 0.405575896498689D+03 0.339901911788267D+03 -.162211300148307D+03 0.127195818851179D+03
 0.000000000000000D+00 0.000000000000000D+00 0.000000000000000D+00 0.000000000000000D+00
 0.591808034915913D+03 0.000000000000000D+00 0.000000000000000D+00 0.591808034915913D+03
 0.483203211994408D+03 0.000000000000000D+00 0.000000000000000D+00 -.483203211994408D+03
 0.960529145298260D+02 -.179459799095845D+02 -.271403616611168D+01 0.492901840945777D+02
 0.100488571541789D+03 -.903302331491934D+02 0.432360063100630D+02 -.830961780576223D+01
 0.312257210418827D+03 -.254975702399643D+03 0.648741868974122D+02 -.168176385139994D+03
 0.411076025912047D+03 0.321140815356133D+03 -.207860731030294D+03 0.127195818851179D+03
 0.155136524507832D+03 0.421111001022882D+02 0.102464573988930D+03 0.108604822921505D+03
0.546927852686D-04 0.000000000000D+00 0.000000000000D+00 0.313387216070D-05 0.000000000000D+00  7 2 -2 24 -13 13 -24 21 0 0.45415755D+00 0.10864738D-01 0.17186242D+06 0.17186242D+06 0.17186242D+06 0.11029189D+01  1  2  2  1  7  1        2 0.728445041844D-03 0.100000000000D+01
-.300404195586D-05 0.000000000000D+00 -.210034696373D-06 0.313387216070D-05 0.000000000000D+00  7 2 -2 24 -13 13 -24 21 2 0.45415755D+00 0.10864738D-01 0.17186242D+06 0.17186242D+06 0.17186242D+06 0.11029189D+01  1  2  3  1  7  1        2 -.486698347614D-04 0.100000000000D+01
0.355727342029D-05 0.000000000000D+00 0.000000000000D+00 0.313387216070D-05 0.000000000000D+00  7 2 -2 24 -13 13 -24 21 2 0.45415755D+00 0.10864738D-01 0.17186242D+06 0.17186242D+06 0.17186242D+06 0.11029189D+01  1  2 15  1  7  1        2 0.576329865263D-04 0.100000000000D+01
0.533504241790D-04 0.000000000000D+00 0.000000000000D+00 0.313387216070D-05 0.000000000000D+00  7 2 -2 24 -13 13 -24 21 2 0.59900240D+00 0.10864738D-01 0.22437678D+06 0.22437678D+06 0.22437678D+06 0.10940097D+01  1  2 12  1  7  1        2 0.184849678870D-03 0.100000000000D+01
-.559644923456D-04 0.000000000000D+00 0.000000000000D+00 0.313387216070D-05 0.000000000000D+00  7 2 -2 24 -13 13 -24 21 2 0.45415755D+00 0.10864738D-01 0.17186242D+06 0.17186242D+06 0.17186242D+06 0.11029189D+01  1  2  4  1  7  1        2 -.906705909901D-03 0.100000000000D+01
-.839566735021D-04 0.000000000000D+00 -.186609718690D-04 0.313387216070D-05 0.000000000000D+00  7 2 -2 24 -13 13 -24 21 2 0.59538028D+00 0.10864738D-01 0.17186242D+06 0.17186242D+06 0.17186242D+06 0.11029189D+01  1  2  5  1  7  1        2 -.314011975229D-03 0.100000000000D+01
0.864835459321D-04 0.000000000000D+00 0.179972525821D-04 0.313387216070D-05 0.000000000000D+00  7 2 -2 24 -13 13 -24 21 2 0.45415755D+00 0.10864738D-01 0.17186242D+06 0.17186242D+06 0.17186242D+06 0.11029189D+01  1  2  6  1  7  1        2 0.140115882266D-02 0.100000000000D+01
0.194549398607D-05 0.000000000000D+00 0.000000000000D+00 0.313387216070D-05 0.000000000000D+00  7 21 -2 24 -13 13 -24 -2 2 0.59900240D+00 0.10864738D-01 0.22437678D+06 0.22437678D+06 0.22437678D+06 0.10940097D+01  1  2 12  3  7  1        2 0.146366086039D-06 0.100000000000D+01
-.265666187259D-05 0.000000000000D+00 -.669599161487D-06 0.313387216070D-05 0.000000000000D+00  7 21 -2 24 -13 13 -24 -2 2 0.59538028D+00 0.10864738D-01 0.17186242D+06 0.17186242D+06 0.17186242D+06 0.11029189D+01  1  2  5  3  7  1        2 -.224039563723D-06 0.100000000000D+01
  </mgrwgt>
  </event>
  <event>
  8     66 0.26993063E-05 0.21878054E+03 0.75467711E-02 0.94970473E-01
        2 -1    0    0  501    0 0.00000000E+00 0.00000000E+00 0.11424200E+04 0.11424201E+04 0.32000000E+00 0.0000E+00 0.9000E+01
       -2 -1    0    0    0  501 0.00000000E+00 0.00000000E+00 -.27399472E+03 0.27399491E+03 0.32000000E+00 0.0000E+00 0.9000E+01
       25  2    1    2    0    0 0.16089965E+03 0.37175069E+03 0.86416425E+03 0.10005067E+04 0.30024424E+03 0.0000E+00 0.0000E+00
       23  2    1    2    0    0 -.16089965E+03 -.37175069E+03 0.42610560E+01 0.41590825E+03 0.94203208E+02 0.0000E+00 0.0000E+00
       24  1    3    3    0    0 0.17809778E+02 0.18716988E+02 0.50286457E+02 0.98302887E+02 0.80419002E+02 0.0000E+00 0.9000E+01
      -11  1    4    4    0    0 -.15274710E+03 -.36887938E+03 -.98329571E+01 0.39937496E+03 0.51099893E-03 0.0000E+00 0.9000E+01
       11  1    4    4    0    0 -.81525429E+01 -.28713105E+01 0.14094013E+02 0.16533287E+02 0.51099893E-03 0.0000E+00 0.9000E+01
      -24  1    3    3    0    0 0.14308987E+03 0.35303370E+03 0.81387779E+03 0.90220385E+03 0.80419002E+02 0.0000E+00 0.9000E+01
#aMCatNLO 1  0  0  2  1 0.85002194D+02 0.00000000D+00  -5  7  0 0.00000000D+00 0.00000000D+00 0.00000000D+00 0.00000000D+00 0.00000000D+00
  <mgrwgt>
 0.1361889233D-02    9    2    0
 0.559479423136918D+03 0.000000000000000D+00 0.000000000000000D+00 0.559479423136918D+03
 0.559479423136918D+03 0.000000000000000D+00 0.000000000000000D+00 -.559479423136918D+03
 0.854076540544931D+02 0.178097778667297D+02 0.187169876381098D+02 -.126387342251516D+02
 0.513173361173311D+03 -.152747104229675D+03 -.368879379441855D+03 -.322402270758062D+03
 0.998999926153235D+01 -.815254285865283D+01 -.287131050806946D+01 0.500916222032137D+01
 0.510387831784499D+03 0.143089869221598D+03 0.353033702311815D+03 0.330031842762892D+03
 0.000000000000000D+00 -.000000000000000D+00 -.000000000000000D+00 -.000000000000000D+00
 0.591433272413326D+03 0.000000000000000D+00 0.000000000000000D+00 0.591433272413326D+03
 0.620624441714534D+03 0.000000000000000D+00 0.000000000000000D+00 -.620624441714534D+03
 0.874416253528170D+02 0.238856746161527D+02 0.211792076171212D+02 -.126387342251516D+02
 0.493373467712809D+03 -.117365558950797D+03 -.354541224718896D+03 -.322402270758062D+03
 0.936288927459444D+01 -.747226144265969D+01 -.259563062691158D+01 0.500916222032137D+01
 0.532004833691587D+03 0.179731446377752D+03 0.367882477242847D+03 0.330031842762892D+03
 0.898748980960525D+02 -.787793006004483D+02 -.319248295141603D+02 -.291911693012088D+02
0.660941883684D-04 0.000000000000D+00 0.000000000000D+00 0.157851086365D-05 0.000000000000D+00  7 2 -2 24 -11 11 -24 21 0 0.17575695D+00 0.42153052D-01 0.19434458D+06 0.19434458D+06 0.19434458D+06 0.10987834D+01  1  2  2  2  7  2       -2 0.920195552216D-03 0.100000000000D+01
-.341834755014D-05 0.000000000000D+00 -.253819086334D-06 0.157851086365D-05 0.000000000000D+00  7 2 -2 24 -11 11 -24 21 2 0.17575695D+00 0.42153052D-01 0.19434458D+06 0.19434458D+06 0.19434458D+06 0.10987834D+01  1  2  3  2  7  2       -2 -.574588966424D-04 0.100000000000D+01
0.408183170630D-05 0.000000000000D+00 0.000000000000D+00 0.157851086365D-05 0.000000000000D+00  7 2 -2 24 -11 11 -24 21 2 0.17575695D+00 0.42153052D-01 0.19434458D+06 0.19434458D+06 0.19434458D+06 0.10987834D+01  1  2 15  2  7  2       -2 0.686113809915D-04 0.100000000000D+01
0.945696789600D-04 0.000000000000D+00 0.000000000000D+00 0.157851086365D-05 0.000000000000D+00  7 2 -2 24 -11 11 -24 21 2 0.17575695D+00 0.47860809D-01 0.23530304D+06 0.23530304D+06 0.23530304D+06 0.10924441D+01  1  2 12  2  7  2       -2 0.122280790181D-02 0.100000000000D+01
-.894494605593D-04 0.000000000000D+00 0.000000000000D+00 0.157851086365D-05 0.000000000000D+00  7 2 -2 24 -11 11 -24 21 2 0.17575695D+00 0.42153052D-01 0.19434458D+06 0.19434458D+06 0.19434458D+06 0.10987834D+01  1  2  4  2  7  2       -2 -.150355317404D-02 0.100000000000D+01
-.227696836201D-03 0.000000000000D+00 -.571808290737D-04 0.157851086365D-05 0.000000000000D+00  7 2 -2 24 -11 11 -24 21 2 0.17575695D+00 0.49212219D-01 0.19434458D+06 0.19434458D+06 0.19434458D+06 0.10987834D+01  1  2  5  2  7  2       -2 -.283837949551D-02 0.100000000000D+01
0.234413549101D-03 0.000000000000D+00 0.565021878863D-04 0.157851086365D-05 0.000000000000D+00  7 2 -2 24 -11 11 -24 21 2 0.17575695D+00 0.42153052D-01 0.19434458D+06 0.19434458D+06 0.19434458D+06 0.10987834D+01  1  2  6  2  7  2       -2 0.394024998681D-02 0.100000000000D+01
0.188141974841D-05 0.000000000000D+00 0.000000000000D+00 0.157851086365D-05 0.000000000000D+00  7 2 21 24 -11 11 -24 2 2 0.17575695D+00 0.47860809D-01 0.23530304D+06 0.23530304D+06 0.23530304D+06 0.10924441D+01  1  2 12  4  7  2       -2 0.257695593776D-03 0.100000000000D+01
-.490861528855D-05 0.000000000000D+00 -.133818164604D-05 0.157851086365D-05 0.000000000000D+00  7 2 21 24 -11 11 -24 2 2 0.17575695D+00 0.49212219D-01 0.19434458D+06 0.19434458D+06 0.19434458D+06 0.10987834D+01  1  2  5  4  7  2       -2 -.648279616906D-03 0.100000000000D+01
  </mgrwgt>
  </event>
  <event>
  8     66 0.26993063E-05 0.43659944E+03 0.75467711E-02 0.87181800E-01
        2 -1    0    0  501    0 0.00000000E+00 0.00000000E+00 0.14725297E+04 0.14725297E+04 0.32000000E+00 0.0000E+00 0.9000E+01
       -2 -1    0    0    0  501 0.00000000E+00 0.00000000E+00 -.18693659E+03 0.18693686E+03 0.32000000E+00 0.0000E+00 0.9000E+01
       25  2    1    2    0    0 0.38739369E+03 0.39680189E+02 0.11251858E+04 0.12291984E+04 0.30534792E+03 0.0000E+00 0.0000E+00
       23  2    1    2    0    0 -.38739369E+03 -.39680189E+02 0.16040729E+03 0.43026812E+03 0.88044137E+02 0.0000E+00 0.0000E+00
       24  1    3    3    0    0 0.13293376E+03 0.12024007E+03 0.64178400E+03 0.67118029E+03 0.80419002E+02 0.0000E+00 0.9000E+01
      -13  1    4    4    0    0 -.30637515E+02 -.27256949E+02 0.64527975E+01 0.41512026E+02 0.10565837E+00 0.0000E+00 0.9000E+01
       13  1    4    4    0    0 -.35675618E+03 -.12423240E+02 0.15395450E+03 0.38875610E+03 0.10565837E+00 0.0000E+00 0.9000E+01
      -24  1    3    3    0    0 0.25445993E+03 -.80559883E+02 0.48340178E+03 0.55801814E+03 0.80419002E+02 0.0000E+00 0.9000E+01
#aMCatNLO 1  0  0  2  1 0.85064708D+03 0.00000000D+00  -5  7  0 0.00000000D+00 0.00000000D+00 0.00000000D+00 0.00000000D+00 0.00000000D+00
  <mgrwgt>
 0.1383831655D-02    3    2    0
 0.524661723076492D+03 0.000000000000000D+00 0.000000000000000D+00 0.524661723076492D+03
 0.524661723076492D+03 0.000000000000000D+00 0.000000000000000D+00 -.524661723076492D+03
 0.275156506860816D+03 0.132933758905129D+03 0.120240071963017D+03 0.192652090959733D+03
 0.577434832803465D+02 -.306370454388857D+02 -.272569698537304D+02 -.406538916035861D+02
 0.426184572868622D+03 -.356756644664783D+03 -.124232191776752D+02 -.232816774017678D+03
 0.290238883143201D+03 0.254459931198540D+03 -.805598829316113D+02 0.808185746615311D+02
 0.000000000000000D+00 -.000000000000000D+00 0.000000000000000D+00 0.000000000000000D+00
 0.121907753770055D+04 0.000000000000000D+00 0.000000000000000D+00 0.121907753770055D+04
 0.100814003137093D+04 0.000000000000000D+00 0.000000000000000D+00 -.100814003137093D+04
 0.356067886996649D+03 0.285111728075916D+03 -.437446974877541D+02 0.192652090959733D+03
 0.736361634800069D+02 0.103645772246487D+01 -.613878768563282D+02 -.406538916035861D+02
 0.359287098829947D+03 -.167392157164855D+03 -.216479640708632D+03 -.232816774017678D+03
 0.561816074605294D+03 0.459876569645733D+03 -.301913869192992D+03 0.808185746615311D+02
 0.876410345159587D+03 -.578632598279259D+03 0.623526084245706D+03 0.210937506329617D+03
0.750066771008D-04 0.000000000000D+00 0.000000000000D+00 0.783287599122D-08 0.000000000000D+00  7 2 -2 24 -13 13 -24 21 0 0.22654305D+00 0.28759498D-01 0.19061907D+06 0.19061907D+06 0.19061907D+06 0.10994314D+01  1  2  2  2  7  2       -2 0.136689709339D-02 0.100000000000D+01
-.399599483506D-05 0.000000000000D+00 -.288045389779D-06 0.783287599122D-08 0.000000000000D+00  7 2 -2 24 -13 13 -24 21 2 0.22654305D+00 0.28759498D-01 0.19061907D+06 0.19061907D+06 0.19061907D+06 0.10994314D+01  1  2  3  2  7  2       -2 -.880231811377D-04 0.100000000000D+01
0.476477439026D-05 0.000000000000D+00 0.000000000000D+00 0.783287599122D-08 0.000000000000D+00  7 2 -2 24 -13 13 -24 21 2 0.22654305D+00 0.28759498D-01 0.19061907D+06 0.19061907D+06 0.19061907D+06 0.10994314D+01  1  2 15  2  7  2       -2 0.104957743077D-03 0.100000000000D+01
  </mgrwgt>
  </event>
  <event>
  8     66 0.26993063E-05 0.30883448E+03 0.75467711E-02 0.98573181E-01
        2 -1    0    0  501    0 0.00000000E+00 0.00000000E+00 0.14756279E+04 0.14756280E+04 0.32000000E+00 0.0000E+00 0.9000E+01
       -2 -1    0    0    0  501 0.00000000E+00 0.00000000E+00 -.11816643E+03 0.11816686E+03 0.32000000E+00 0.0000E+00 0.9000E+01
       25  2    1    2    0    0 0.11129774E+03 -.24992847E+03 0.11962561E+04 0.12632848E+04 0.30001419E+03 0.0000E+00 0.0000E+00
       23  2    1    2    0    0 -.11129774E+03 0.24992847E+03 0.16120541E+03 0.33050999E+03 0.91641932E+02 0.0000E+00 0.0000E+00
       24  1    3    3    0    0 0.12125823E+02 -.40856805E+02 0.82288357E+02 0.12269843E+03 0.80419002E+02 0.0000E+00 0.9000E+01
      -11  1    4    4    0    0 -.69410584E+02 0.21864806E+03 0.15716730E+03 0.27807618E+03 0.51099893E-03 0.0000E+00 0.9000E+01
       11  1    4    4    0    0 -.41887158E+02 0.31280409E+02 0.40381091E+01 0.52433809E+02 0.51099893E-03 0.0000E+00 0.9000E+01
      -24  1    3    3    0    0 0.99171919E+02 -.20907166E+03 0.11139677E+04 0.11405864E+04 0.80419002E+02 0.0000E+00 0.9000E+01
#aMCatNLO 1  0  0  1  1 0.92304418D+02 0.00000000D+00  -5  7  0 0.00000000D+00 0.00000000D+00 0.00000000D+00 0.00000000D+00 0.00000000D+00
  <mgrwgt>
 0.7778372312D-03    4    2    0
 0.417576405864006D+03 0.000000000000000D+00 0.000000000000000D+00 0.417576405864006D+03
 0.417576405864006D+03 0.000000000000000D+00 0.000000000000000D+00 -.417576405864006D+03
 0.100404188015592D+03 0.121258234459615D+02 -.408568049179944D+02 -.423965908340539D+02
 0.275216480273672D+03 -.694105841602840D+02 0.218648055680980D+03 -.152050352080104D+03
 0.935004414518931D+02 -.418871582735646D+02 0.312804094564521D+02 -.775198974954233D+02
 0.366031701986854D+03 0.991719189878871D+02 -.209071660219437D+03 0.271966840409581D+03
 0.000000000000000D+00 -.000000000000000D+00 -.000000000000000D+00 -.000000000000000D+00
 0.447116208244259D+03 0.000000000000000D+00 0.000000000000000D+00 0.447116208244259D+03
 0.499017524436537D+03 0.000000000000000D+00 0.000000000000000D+00 -.499017524436537D+03
 0.101507748407640D+03 0.230625804595122D+02 -.388233628195248D+02 -.423965908340539D+02
 0.273767450221475D+03 -.396743339983120D+02 0.224176837462915D+03 -.152050352080104D+03
 0.901502187704916D+02 -.319395411004014D+02 0.331299434192444D+02 -.775198974954233D+02
 0.374812837252933D+03 0.139300486194027D+03 -.201610662612274D+03 0.271966840409581D+03
 0.105895478028257D+03 -.907491915548258D+02 -.168727554503608D+02 -.519013161922782D+02
0.306344749187D-04 0.000000000000D+00 0.000000000000D+00 0.345330824458D-05 0.000000000000D+00  7 2 -2 24 -11 11 -24 21 0 0.22701972D+00 0.18179486D-01 0.95378734D+05 0.95378734D+05 0.95378734D+05 0.11234122D+01  1  2  2  1  7  1        2 0.123012051895D-02 0.100000000000D+01
-.151361070187D-05 0.000000000000D+00 -.117644449930D-06 0.345330824458D-05 0.000000000000D+00  7 2 -2 24 -11 11 -24 21 2 0.22701972D+00 0.18179486D-01 0.95378734D+05 0.95378734D+05 0.95378734D+05 0.11234122D+01  1  2  3  1  7  1        2 -.767060601472D-04 0.100000000000D+01
0.196327998866D-05 0.000000000000D+00 0.000000000000D+00 0.345330824458D-05 0.000000000000D+00  7 2 -2 24 -11 11 -24 21 2 0.22701972D+00 0.18179486D-01 0.95378734D+05 0.95378734D+05 0.95378734D+05 0.11234122D+01  1  2 15  1  7  1        2 0.994941914126D-04 0.100000000000D+01
-.937439861451D-05 0.000000000000D+00 0.000000000000D+00 0.345330824458D-05 0.000000000000D+00  7 2 -2 24 -11 11 -24 21 2 0.22701972D+00 0.18179486D-01 0.95378734D+05 0.95378734D+05 0.95378734D+05 0.11234122D+01  1  2  4  1  7  1        2 -.475071419012D-03 0.100000000000D+01
  </mgrwgt>
  </event>
  <event>
  9     66 0.26993063E-05 0.26820203E+03 0.75467711E-02 0.99772970E-01
        2 -1    0    0  502    0 0.00000000E+00 0.00000000E+00 0.31961621E+04 0.31961621E+04 0.32000000E+00 0.0000E+00 0.9000E+01
       -2 -1    0    0    0  501 0.00000000E+00 0.00000000E+00 -.87842542E+02 0.87843125E+02 0.32000000E+00 0.0000E+00 0.9000E+01
       25  2    1    2    0    0 -.63283033E+02 0.16938559E+03 0.28034809E+04 0.28250205E+04 0.29755556E+03 0.0000E+00 0.0000E+00
       23  2    1    2    0    0 0.15866264E+03 -.12377879E+03 0.13545911E+03 0.25931693E+03 0.91657379E+02 0.0000E+00 0.0000E+00
       24  1    3    3    0    0 -.61946028E+02 0.21091635E+03 0.14748239E+04 0.14932835E+04 0.80419002E+02 0.0000E+00 0.9000E+01
      -11  1    4    4    0    0 0.61241975E+02 0.17459654E+01 0.48808028E+02 0.78331676E+02 0.51099893E-03 0.0000E+00 0.9000E+01
       11  1    4    4    0    0 0.97420666E+02 -.12552476E+03 0.86651086E+02 0.18098525E+03 0.51099893E-03 0.0000E+00 0.9000E+01
      -24  1    3    3    0    0 -.13370057E+01 -.41530755E+02 0.13286571E+04 0.13317370E+04 0.80419002E+02 0.0000E+00 0.9000E+01
       21  1    1    2  502  501 -.95379607E+02 -.45606797E+02 0.16937950E+03 0.19966779E+03 0.75000000E+00 0.0000E+00 0.9000E+01
#aMCatNLO 2  0  0  1  2 0.10572251D+03 0.00000000D+00  -5  7  0 0.00000000D+00 0.00000000D+00 0.00000000D+00 0.00000000D+00 0.00000000D+00
  <mgrwgt>
 0.1955264164D-03    1    2    0
 0.464917086022490D+03 0.000000000000000D+00 0.000000000000000D+00 0.464917086022490D+03
 0.464917086022490D+03 0.000000000000000D+00 0.000000000000000D+00 -.464917086022490D+03
 0.287858328280446D+03 -.914873625409818D+02 0.196790836066043D+03 0.171168427409278D+03
 0.991968166579680D+02 0.508083485377050D+02 -.324298650104918D+01 -.851352053647586D+02
 0.322627513597747D+03 0.643434930317347D+02 -.141340969747228D+03 -.282791721423475D+03
 0.220151513508819D+03 -.236644790284578D+02 -.522068798177655D+02 0.196758499378955D+03
 0.000000000000000D+00 -.000000000000000D+00 -.000000000000000D+00 -.000000000000000D+00
 0.496580616778863D+03 0.000000000000000D+00 0.000000000000000D+00 0.496580616778863D+03
 0.565384059013881D+03 0.000000000000000D+00 0.000000000000000D+00 -.565384059013881D+03
 0.289980796263444D+03 -.619460277454497D+02 0.210916346810780D+03 0.171168427409278D+03
 0.104888660261090D+03 0.612419746881160D+02 0.174596539683503D+01 -.851352053647586D+02
 0.324373872409479D+03 0.974206658041730D+02 -.125524759591644D+03 -.282791721423475D+03
 0.216581888127484D+03 -.133700571257008D+01 -.415307554513707D+02 0.196758499378955D+03
 0.126139458731247D+03 -.953796070342693D+02 -.456067971646006D+02 -.688034422350178D+02
0.230311090304D-04 0.000000000000D+00 0.000000000000D+00 0.197017324627D-06 0.119894113150D-09  7 2 -2 24 -11 11 -24 21 2 0.49171622D+00 0.13514254D-01 0.10577975D+06 0.10577975D+06 0.10577975D+06 0.11197250D+01  1  2  1  1  7  1        2 0.195526416383D-03 0.100000000000D+01
  </mgrwgt>
  </event>
  <event>
  8     66 0.26993063E-05 0.12709473E+03 0.75467711E-02 0.10219245E+00
        2 -1    0    0  501    0 0.00000000E+00 0.00000000E+00 0.13923747E+03 0.13923784E+03 0.32000000E+00 0.0000E+00 0.9000E+01
       -2 -1    0    0    0  501 0.00000000E+00 0.00000000E+00 -.56277735E+03 0.56277744E+03 0.32000000E+00 0.0000E+00 0.9000E+01
       25  2    1    2    0    0 -.12757159E+03 0.10784194E+03 -.16869234E+03 0.38269124E+03 0.30015177E+03 0.0000E+00 0.0000E+00
       23  2    1    2    0    0 0.12757159E+03 -.10784194E+03 -.25484753E+03 0.31932404E+03 0.95478710E+02 0.0000E+00 0.0000E+00
       24  1    3    3    0    0 -.91872841E+02 -.53776504E+02 -.53878867E+00 0.13341678E+03 0.80419002E+02 0.0000E+00 0.9000E+01
      -13  1    4    4    0    0 0.96354487E+02 -.12417522E+03 -.20773423E+03 0.26049413E+03 0.10565837E+00 0.0000E+00 0.9000E+01
       13  1    4    4    0    0 0.31217105E+02 0.16333280E+02 -.47113304E+02 0.58829910E+02 0.10565837E+00 0.0000E+00 0.9000E+01
      -24  1    3    3    0    0 -.35698751E+02 0.16161844E+03 -.16815355E+03 0.24927446E+03 0.80419002E+02 0.0000E+00 0.9000E+01
#aMCatNLO 1  0  0  2  1 0.28084771D+02 0.00000000D+00  -5  7  0 0.00000000D+00 0.00000000D+00 0.00000000D+00 0.00000000D+00 0.00000000D+00
  <mgrwgt>
 0.1036584062D-02    9    2    0
 0.279928307033953D+03 0.000000000000000D+00 0.000000000000000D+00 0.279928307033953D+03
 0.279928307033953D+03 0.000000000000000D+00 0.000000000000000D+00 -.279928307033953D+03
 0.166886339762208D+03 -.918728438153412D+02 -.537765005871803D+02 0.100256186835205D+03
 0.169484865492717D+03 0.963545740793252D+02 -.124175385510141D+03 -.634144251608740D+02
 0.381259046044389D+02 0.312170244252623D+02 0.163334419640868D+02 -.145705408803231D+02
 0.185359504208542D+03 -.356987546892463D+02 0.161618444133234D+03 -.222712207940082D+02
 0.000000000000000D+00 -.000000000000000D+00 0.000000000000000D+00 -.000000000000000D+00
 0.293954588700710D+03 0.000000000000000D+00 0.000000000000000D+00 0.293954588700710D+03
 0.294700688245194D+03 0.000000000000000D+00 0.000000000000000D+00 -.294700688245194D+03
 0.169043404229399D+03 -.905618310359578D+02 -.620943501437325D+02 0.100256186835205D+03
 0.176603729405285D+03 0.977052331942902D+02 -.132744775143207D+03 -.634144251608740D+02
 0.376082933429394D+02 0.315125877182461D+02 0.144582115741628D+02 -.145705408803231D+02
 0.177305169838327D+03 -.342834051085368D+02 0.152638619475989D+03 -.222712207940082D+02
 0.280946801299546D+02 -.437258476804178D+01 0.277422942367872D+02 -.746099544483977D+00
0.128087823788D-04 0.000000000000D+00 0.000000000000D+00 0.789632862779D-07 0.000000000000D+00  7 2 -2 24 -13 13 -24 21 0 0.21421185D-01 0.86581165D-01 0.64983808D+05 0.64983808D+05 0.64983808D+05 0.11374151D+01  1  2  2  2  7  2       -2 0.487426696285D-03 0.100000000000D+01
-.704021167470D-06 0.000000000000D+00 -.491890969643D-07 0.789632862779D-07 0.000000000000D+00  7 2 -2 24 -13 13 -24 21 2 0.21421185D-01 0.86581165D-01 0.64983808D+05 0.64983808D+05 0.64983808D+05 0.11374151D+01  1  2  3  2  7  2       -2 -.346597291195D-04 0.100000000000D+01
0.800439883375D-06 0.000000000000D+00 0.000000000000D+00 0.789632862779D-07 0.000000000000D+00  7 2 -2 24 -13 13 -24 21 2 0.21421185D-01 0.86581165D-01 0.64983808D+05 0.64983808D+05 0.64983808D+05 0.11374151D+01  1  2 15  2  7  2       -2 0.394065275536D-04 0.100000000000D+01
0.224064710531D-04 0.000000000000D+00 0.000000000000D+00 0.789632862779D-07 0.000000000000D+00  7 2 -2 24 -13 13 -24 21 2 0.21421185D-01 0.93210132D-01 0.72788425D+05 0.72788425D+05 0.72788425D+05 0.11332203D+01  1  2 12  2  7  2       -2 0.923396402575D-03 0.100000000000D+01
-.176619268479D-04 0.000000000000D+00 0.000000000000D+00 0.789632862779D-07 0.000000000000D+00  7 2 -2 24 -13 13 -24 21 2 0.21421185D-01 0.86581165D-01 0.64983808D+05 0.64983808D+05 0.64983808D+05 0.11374151D+01  1  2  4  2  7  2       -2 -.869515901739D-03 0.100000000000D+01
-.840935759305D-04 0.000000000000D+00 -.171164765100D-04 0.789632862779D-07 0.000000000000D+00  7 2 -2 24 -13 13 -24 21 2 0.21421185D-01 0.94922881D-01 0.64983808D+05 0.64983808D+05 0.64983808D+05 0.11374151D+01  1  2  5  2  7  2       -2 -.334913511529D-02 0.100000000000D+01
0.853787070421D-04 0.000000000000D+00 0.170443215564D-04 0.789632862779D-07 0.000000000000D+00  7 2 -2 24 -13 13 -24 21 2 0.21421185D-01 0.86581165D-01 0.64983808D+05 0.64983808D+05 0.64983808D+05 0.11374151D+01  1  2  6  2  7  2       -2 0.420328676946D-02 0.100000000000D+01
0.279036369165D-06 0.000000000000D+00 0.000000000000D+00 0.789632862779D-07 0.000000000000D+00  7 2 21 24 -13 13 -24 2 2 0.21421185D-01 0.93210132D-01 0.72788425D+05 0.72788425D+05 0.72788425D+05 0.11332203D+01  1  2 12  4  7  2       -2 0.112361582065D-03 0.100000000000D+01
-.122194998402D-05 0.000000000000D+00 -.258541766931D-06 0.789632862779D-07 0.000000000000D+00  7 2 21 24 -13 13 -24 2 2 0.21421185D-01 0.94922881D-01 0.64983808D+05 0.64983808D+05 0.64983808D+05 0.11374151D+01  1  2  5  4  7  2       -2 -.475983169642D-03 0.100000000000D+01
  </mgrwgt>
  </event>
  <event>
  8     66 0.26993063E-05 0.13917844E+03 0.75467711E-02 0.10164587E+00
        2 -1    0    0  501    0 0.00000000E+00 0.00000000E+00 0.10141075E+04 0.10141076E+04 0.32000000E+00 0.0000E+00 0.9000E+01
       -2 -1    0    0    0  501 0.00000000E+00 0.00000000E+00 -.79536808E+02 0.79537452E+02 0.32000000E+00 0.0000E+00 0.9000E+01
       25  2    1    2    0    0 0.49295691E+02 0.66730566E+02 0.91594854E+03 0.96758413E+03 0.30062317E+03 0.0000E+00 0.0000E+00
       23  2    1    2    0    0 -.49295691E+02 -.66730566E+02 0.18622162E+02 0.12606088E+03 0.93067325E+02 0.0000E+00 0.0000E+00
       24  1    3    3    0    0 0.46759160E+02 0.12771730E+03 0.79255168E+03 0.80814820E+03 0.80419002E+02 0.0000E+00 0.9000E+01
      -11  1    4    4    0    0 0.26412365E+02 -.64757295E+01 -.14824936E+01 0.27235012E+02 0.51099893E-03 0.0000E+00 0.9000E+01
       11  1    4    4    0    0 -.75708056E+02 -.60254837E+02 0.20104655E+02 0.98825869E+02 0.51099893E-03 0.0000E+00 0.9000E+01
      -24  1    3    3    0    0 0.25365311E+01 -.60986736E+02 0.12339686E+03 0.15943593E+03 0.80419002E+02 0.0000E+00 0.9000E+01
#aMCatNLO 1  0  0  1  2 0.14902488D+03 0.00000000D+00  -5  7  0 0.00000000D+00 0.00000000D+00 0.00000000D+00 0.00000000D+00 0.00000000D+00
  <mgrwgt>
 0.7259464784D-03    9    2    0
 0.284005728814746D+03 0.000000000000000D+00 0.000000000000000D+00 0.284005728814746D+03
 0.284005728814746D+03 0.000000000000000D+00 0.000000000000000D+00 -.284005728814746D+03
 0.251987286810945D+03 0.467591603333716D+02 0.127717302611976D+03 0.196296327776171D+03
 0.548772905922951D+02 0.264123646555184D+02 -.647572950853494D+01 -.476651753735094D+02
 0.157199639401133D+03 -.757080561293289D+02 -.602548369361203D+02 -.123892580450833D+03
 0.103947240825118D+03 0.253653114043889D+01 -.609867361673209D+02 -.247385719518277D+02
 0.000000000000000D+00 0.000000000000000D+00 -.000000000000000D+00 0.000000000000000D+00
 0.406170045931406D+03 0.000000000000000D+00 0.000000000000000D+00 0.406170045931406D+03
 0.342946785924613D+03 0.000000000000000D+00 0.000000000000000D+00 -.342946785924613D+03
 0.280041952048613D+03 0.572857129760219D+01 0.182732630160313D+03 0.196296327776171D+03
 0.512298138544370D+02 0.182292862110674D+02 0.449644397361359D+01 -.476651753735094D+02
 0.161722540187137D+03 -.100303630825802D+03 -.272761829619735D+02 -.123892580450833D+03
 0.942411061636345D+02 -.127479382515160D+02 -.404927557063565D+02 -.247385719518277D+02
 0.161881419602198D+03 0.890937115686488D+02 -.119460135465596D+03 0.632232600067938D+02
0.591784630640D-05 0.000000000000D+00 0.000000000000D+00 0.174168903689D-06 0.000000000000D+00  7 2 -2 24 -11 11 -24 21 0 0.15601659D+00 0.12236485D-01 0.36656682D+05 0.36656682D+05 0.36656682D+05 0.11593461D+01  1  2  2  1  7  1        2 0.815861854581D-03 0.100000000000D+01
-.266615413474D-06 0.000000000000D+00 -.227260880213D-07 0.174168903689D-06 0.000000000000D+00  7 2 -2 24 -11 11 -24 21 2 0.15601659D+00 0.12236485D-01 0.36656682D+05 0.36656682D+05 0.36656682D+05 0.11593461D+01  1  2  3  1  7  1        2 -.494042579299D-04 0.100000000000D+01
0.371298923145D-06 0.000000000000D+00 0.000000000000D+00 0.174168903689D-06 0.000000000000D+00  7 2 -2 24 -11 11 -24 21 2 0.15601659D+00 0.12236485D-01 0.36656682D+05 0.36656682D+05 0.36656682D+05 0.11593461D+01  1  2 15  1  7  1        2 0.688022778921D-04 0.100000000000D+01
0.318902799852D-06 0.000000000000D+00 0.000000000000D+00 0.174168903689D-06 0.000000000000D+00  7 2 -2 24 -11 11 -24 21 2 0.23371626D+00 0.12236485D-01 0.79076481D+05 0.79076481D+05 0.79076481D+05 0.11301857D+01  1  2 12  1  7  1        2 0.292577092961D-04 0.100000000000D+01
-.310842891982D-05 0.000000000000D+00 0.000000000000D+00 0.174168903689D-06 0.000000000000D+00  7 2 -2 24 -11 11 -24 21 2 0.15601659D+00 0.12236485D-01 0.36656682D+05 0.36656682D+05 0.36656682D+05 0.11593461D+01  1  2  4  1  7  1        2 -.575996796698D-03 0.100000000000D+01
-.297933983063D-05 0.000000000000D+00 -.213267703082D-05 0.174168903689D-06 0.000000000000D+00  7 2 -2 24 -11 11 -24 21 2 0.24831620D+00 0.12236485D-01 0.36656682D+05 0.36656682D+05 0.36656682D+05 0.11593461D+01  1  2  5  1  7  1        2 -.259122934141D-03 0.100000000000D+01
0.376750474048D-05 0.000000000000D+00 0.192141781198D-05 0.174168903689D-06 0.000000000000D+00  7 2 -2 24 -11 11 -24 21 2 0.15601659D+00 0.12236485D-01 0.36656682D+05 0.36656682D+05 0.36656682D+05 0.11593461D+01  1  2  6  1  7  1        2 0.698124588994D-03 0.100000000000D+01
0.152951324736D-07 0.000000000000D+00 0.000000000000D+00 0.174168903689D-06 0.000000000000D+00  7 21 -2 24 -11 11 -24 -2 2 0.23371626D+00 0.12236485D-01 0.79076481D+05 0.79076481D+05 0.79076481D+05 0.11301857D+01  1  2 12  3  7  1        2 0.513126017622D-06 0.100000000000D+01
-.703765061055D-07 0.000000000000D+00 -.113583386216D-06 0.174168903689D-06 0.000000000000D+00  7 21 -2 24 -11 11 -24 -2 2 0.24831620D+00 0.12236485D-01 0.36656682D+05 0.36656682D+05 0.36656682D+05 0.11593461D+01  1  2  5  3  7  1        2 -.208908957746D-05 0.100000000000D+01
  </mgrwgt>
  </event>
  <event>
  8     66 0.26993063E-05 0.28940034E+03 0.75467711E-02 0.94569880E-01
        2 -1    0    0  501    0 0.00000000E+00 0.00000000E+00 0.84498982E+03 0.84498988E+03 0.32000000E+00 0.0000E+00 0.9000E+01
       -2 -1    0    0    0  501 0.00000000E+00 0.00000000E+00 -.21130853E+03 0.21130877E+03 0.32000000E+00 0.0000E+00 0.9000E+01
       25  2    1    2    0    0 0.31752647E+02 0.21945838E+03 0.71270356E+03 0.80472490E+03 0.30077496E+03 0.0000E+00 0.0000E+00
       23  2    1    2    0    0 -.31752647E+02 -.21945838E+03 -.79022272E+02 0.25157376E+03 0.88739097E+02 0.0000E+00 0.0000E+00
       24  1    3    3    0    0 -.99444830E+01 0.23920331E+03 0.63629168E+03 0.68458121E+03 0.80419002E+02 0.0000E+00 0.9000E+01
      -13  1    4    4    0    0 -.74527818E+01 0.42014410E+01 0.66510312E+01 0.10837133E+02 0.10565837E+00 0.0000E+00 0.9000E+01
       13  1    4    4    0    0 -.24299865E+02 -.22365982E+03 -.85673303E+02 0.24073663E+03 0.10565837E+00 0.0000E+00 0.9000E+01
      -24  1    3    3    0    0 0.41697130E+02 -.19744930E+02 0.76411881E+02 0.12014368E+03 0.80419002E+02 0.0000E+00 0.9000E+01
#aMCatNLO 1  0  0  1  2 0.34118327D+03 0.00000000D+00  -5  7  0 0.00000000D+00 0.00000000D+00 0.00000000D+00 0.00000000D+00 0.00000000D+00
  <mgrwgt>
 0.1454408937D-02    3    2    0
 0.422556172555098D+03 0.000000000000000D+00 0.000000000000000D+00 0.422556172555098D+03
 0.422556172555098D+03 0.000000000000000D+00 0.000000000000000D+00 -.422556172555098D+03
 0.378548584092449D+03 -.994448286213932D+01 0.239203309501572D+03 0.281983507581787D+03
 0.855766379939743D+01 -.745275790894575D+01 0.420176396746180D+01 0.187586822307964D+00
 0.365134621332782D+03 -.242998887704462D+02 -.223660144130672D+03 -.287591632404396D+03
 0.928714758855666D+02 0.416971295415312D+02 -.197449293383615D+02 0.542053800030142D+01
 0.000000000000000D+00 -.000000000000000D+00 0.000000000000000D+00 -.000000000000000D+00
 0.564048891824853D+03 0.000000000000000D+00 0.000000000000000D+00 0.564048891824853D+03
 0.724262982029062D+03 0.000000000000000D+00 0.000000000000000D+00 -.724262982029062D+03
 0.360500371481379D+03 0.117718253312737D+03 0.173554072763252D+03 0.281983507581787D+03
 0.577726639260707D+01 -.497655332549400D+01 0.292840146731255D+01 0.187586822307964D+00
 0.426336504801817D+03 0.112418211977428D+03 -.293966008091756D+03 -.287591632404396D+03
 0.118769914682097D+03 0.782558971359528D+02 -.385448960363939D+02 0.542053800030142D+01
 0.376927816496016D+03 -.303415809100624D+03 0.156028429897585D+03 -.160214090204209D+03
0.408880249826D-04 0.000000000000D+00 0.000000000000D+00 0.355816288764D-06 0.000000000000D+00  7 2 -2 24 -13 13 -24 21 0 0.12999846D+00 0.32509028D-01 0.83752558D+05 0.83752558D+05 0.83752558D+05 0.11280962D+01  1  2  2  1  7  1        2 0.142680426083D-02 0.100000000000D+01
-.187585967749D-05 0.000000000000D+00 -.157020781997D-06 0.355816288764D-06 0.000000000000D+00  7 2 -2 24 -13 13 -24 21 2 0.12999846D+00 0.32509028D-01 0.83752558D+05 0.83752558D+05 0.83752558D+05 0.11280962D+01  1  2  3  1  7  1        2 -.833030537440D-04 0.100000000000D+01
0.249747553912D-05 0.000000000000D+00 0.000000000000D+00 0.355816288764D-06 0.000000000000D+00  7 2 -2 24 -13 13 -24 21 2 0.12999846D+00 0.32509028D-01 0.83752558D+05 0.83752558D+05 0.83752558D+05 0.11280962D+01  1  2 15  1  7  1        2 0.110907730230D-03 0.100000000000D+01
  </mgrwgt>
  </event>
  <event>
  8     66 0.26993063E-05 0.13096053E+03 0.75467711E-02 0.10458084E+00
        2 -1    0    0  501    0 0.00000000E+00 0.00000000E+00 0.13836838E+04 0.13836839E+04 0.32000000E+00 0.0000E+00 0.9000E+01
       -2 -1    0    0    0  501 0.00000000E+00 0.00000000E+00 -.39392929E+02 0.39394229E+02 0.32000000E+00 0.0000E+00 0.9000E+01
       25  2    1    2    0    0 -.10669929E+03 -.40889326E+02 0.91986401E+03 0.97494257E+03 0.30216974E+03 0.0000E+00 0.0000E+00
       23  2    1    2    0    0 0.10669929E+03 0.40889326E+02 0.42442690E+03 0.44813553E+03 0.87353211E+02 0.0000E+00 0.0000E+00
       24  1    3    3    0    0 0.70498020E+02 0.91823572E+01 0.19325512E+03 0.22106344E+03 0.80419002E+02 0.0000E+00 0.9000E+01
      -11  1    4    4    0    0 0.73842949E+02 0.93745290E+01 0.12669697E+03 0.14694484E+03 0.51099893E-03 0.0000E+00 0.9000E+01
       11  1    4    4    0    0 0.32856341E+02 0.31514797E+02 0.29772993E+03 0.30119069E+03 0.51099893E-03 0.0000E+00 0.9000E+01
      -24  1    3    3    0    0 -.17719731E+03 -.50071683E+02 0.72660888E+03 0.75387913E+03 0.80419002E+02 0.0000E+00 0.9000E+01
#aMCatNLO 1  0  0  2  1 0.22622469D+02 0.00000000D+00  -5  7  0 0.00000000D+00 0.00000000D+00 0.00000000D+00 0.00000000D+00 0.00000000D+00
  <mgrwgt>
 0.7006390454D-03    9    2    0
 0.233470149109693D+03 0.000000000000000D+00 0.000000000000000D+00 0.233470149109693D+03
 0.233470149109693D+03 0.000000000000000D+00 0.000000000000000D+00 -.233470149109693D+03
 0.117358552548651D+03 0.704980199441918D+02 0.918235713394877D+01 -.474502624161008D+02
 0.830864142998588D+02 0.738429487890187D+02 0.937452905719601D+01 -.369146225811117D+02
 0.607834459434533D+02 0.328563408389941D+02 0.315147965666941D+02 0.402728911898866D+02
 0.205711885427423D+03 -.177197309572205D+03 -.500716827578389D+02 0.440919938073259D+02
 0.000000000000000D+00 -.000000000000000D+00 -.000000000000000D+00 -.000000000000000D+00
 0.244742783241715D+03 0.000000000000000D+00 0.000000000000000D+00 0.244742783241715D+03
 0.245376548161265D+03 0.000000000000000D+00 0.000000000000000D+00 -.245376548161265D+03
 0.120641551348295D+03 0.754124098915985D+02 0.121905286324005D+02 -.474502624161008D+02
 0.864722927402861D+02 0.773441136697458D+02 0.115176443814370D+02 -.369146225811117D+02
 0.630095387963066D+02 0.354125035876792D+02 0.330794619693767D+02 0.402728911898866D+02
 0.197364604322623D+03 -.168874308796872D+03 -.449770496534472D+02 0.440919938073259D+02
 0.226313441954699D+02 -.192947183521519D+02 -.118105853297669D+02 -.633764919550208D+00
0.240580122058D-05 0.000000000000D+00 0.000000000000D+00 0.419263520565D-08 0.000000000000D+00  7 2 -2 24 -11 11 -24 21 0 0.21287454D+00 0.60605535D-02 0.45845675D+05 0.45845675D+05 0.45845675D+05 0.11506238D+01  1  2  2  2  7  2       -2 0.596119636358D-03 0.100000000000D+01
-.132438698158D-06 0.000000000000D+00 -.923891014903D-08 0.419263520565D-08 0.000000000000D+00  7 2 -2 24 -11 11 -24 21 2 0.21287454D+00 0.60605535D-02 0.45845675D+05 0.45845675D+05 0.45845675D+05 0.11506238D+01  1  2  3  2  7  2       -2 -.434465485299D-04 0.100000000000D+01
0.156878309184D-06 0.000000000000D+00 0.000000000000D+00 0.419263520565D-08 0.000000000000D+00  7 2 -2 24 -11 11 -24 21 2 0.21287454D+00 0.60605535D-02 0.45845675D+05 0.45845675D+05 0.45845675D+05 0.11506238D+01  1  2 15  2  7  2       -2 0.514639691271D-04 0.100000000000D+01
0.418461749910D-05 0.000000000000D+00 0.000000000000D+00 0.419263520565D-08 0.000000000000D+00  7 2 -2 24 -11 11 -24 21 2 0.21287454D+00 0.65088204D-02 0.51205654D+05 0.51205654D+05 0.51205654D+05 0.11463863D+01  1  2 12  2  7  2       -2 0.122577175871D-02 0.100000000000D+01
-.329884282472D-05 0.000000000000D+00 0.000000000000D+00 0.419263520565D-08 0.000000000000D+00  7 2 -2 24 -11 11 -24 21 2 0.21287454D+00 0.60605535D-02 0.45845675D+05 0.45845675D+05 0.45845675D+05 0.11506238D+01  1  2  4  2  7  2       -2 -.108218622555D-02 0.100000000000D+01
-.152154837238D-04 0.000000000000D+00 -.320753895130D-05 0.419263520565D-08 0.000000000000D+00  7 2 -2 24 -11 11 -24 21 2 0.21287454D+00 0.67036072D-02 0.45845675D+05 0.45845675D+05 0.45845675D+05 0.11506238D+01  1  2  5  2  7  2       -2 -.429584846126D-02 0.100000000000D+01
0.154764261993D-04 0.000000000000D+00 0.319129801696D-05 0.419263520565D-08 0.000000000000D+00  7 2 -2 24 -11 11 -24 21 2 0.21287454D+00 0.60605535D-02 0.45845675D+05 0.45845675D+05 0.45845675D+05 0.11506238D+01  1  2  6  2  7  2       -2 0.507704554097D-02 0.100000000000D+01
0.508087460439D-07 0.000000000000D+00 0.000000000000D+00 0.419263520565D-08 0.000000000000D+00  7 2 21 24 -11 11 -24 2 2 0.21287454D+00 0.65088204D-02 0.51205654D+05 0.51205654D+05 0.51205654D+05 0.11463863D+01  1  2 12  4  7  2       -2 0.236198561206D-03 0.100000000000D+01
-.238189026384D-06 0.000000000000D+00 -.524774977185D-07 0.419263520565D-08 0.000000000000D+00  7 2 21 24 -11 11 -24 2 2 0.21287454D+00 0.67036072D-02 0.45845675D+05 0.45845675D+05 0.45845675D+05 0.11506238D+01  1  2  5  4  7  2       -2 -.106447918564D-02 0.100000000000D+01
  </mgrwgt>
  </event>
  <event>
  8     66 0.26993063E-05 0.22180943E+03 0.75467711E-02 0.94708654E-01
        2 -1    0    0  501    0 0.00000000E+00 0.00000000E+00 0.99885580E+03 0.99885585E+03 0.32000000E+00 0.0000E+00 0.9000E+01
       -2 -1    0    0    0  501 0.00000000E+00 0.00000000E+00 -.26629509E+03 0.26629528E+03 0.32000000E+00 0.0000E+00 0.9000E+01
       25  2    1    2    0    0 -.35807041E+03 0.82400099E+02 0.74853421E+03 0.88609423E+03 0.29975878E+03 0.0000E+00 0.0000E+00
       23  2    1    2    0    0 0.35807041E+03 -.82400099E+02 -.15973499E+02 0.37905690E+03 0.91786604E+02 0.0000E+00 0.0000E+00
       24  1    3    3    0    0 -.12862968E+03 -.55619111E+02 0.13023494E+03 0.20752695E+03 0.80419002E+02 0.0000E+00 0.9000E+01
      -11  1    4    4    0    0 0.71932340E+02 -.11574755E+02 -.40337143E+02 0.83278578E+02 0.51099893E-03 0.0000E+00 0.9000E+01
       11  1    4    4    0    0 0.28613807E+03 -.70825344E+02 0.24363644E+02 0.29577832E+03 0.51099893E-03 0.0000E+00 0.9000E+01
      -24  1    3    3    0    0 -.22944074E+03 0.13801921E+03 0.61829927E+03 0.67856728E+03 0.80419002E+02 0.0000E+00 0.9000E+01
#aMCatNLO 1  0  0  2  1 0.16707570D+03 0.00000000D+00  -5  7  0 0.00000000D+00 0.00000000D+00 0.00000000D+00 0.00000000D+00 0.00000000D+00
  <mgrwgt>
 0.7241593124D-03    7    2    0
 0.515742712252288D+03 0.000000000000000D+00 0.000000000000000D+00 0.515742712252288D+03
 0.515742712252288D+03 0.000000000000000D+00 0.000000000000000D+00 -.515742712252288D+03
 0.162045871225156D+03 -.128629677145189D+03 -.556191109157481D+02 0.123518858971246D+02
 0.130791371420779D+03 0.719323402212290D+02 -.115747553141212D+02 -.108619272267143D+03
 0.345478874162010D+03 0.286138072040715D+03 -.708253441307464D+02 -.180178874593648D+03
 0.393169307696630D+03 -.229440735116755D+03 0.138019210360616D+03 0.276446260963667D+03
 0.000000000000000D+00 -.000000000000000D+00 -.000000000000000D+00 -.000000000000000D+00
 0.535006345101138D+03 0.000000000000000D+00 0.000000000000000D+00 0.535006345101138D+03
 0.107888598554964D+04 0.000000000000000D+00 0.000000000000000D+00 -.107888598554964D+04
 0.141703750486282D+03 -.105016818510041D+03 -.493116182285815D+02 0.123518858971246D+02
 0.143268771189156D+03 0.932372010092521D+02 -.588377754230942D+01 -.108619272267143D+03
 0.391798400336907D+03 0.343452461305004D+03 -.555154616324105D+02 -.180178874593648D+03
 0.368158008049662D+03 -.170256746078336D+03 0.153828502400400D+03 0.276446260963667D+03
 0.568963400588775D+03 -.161416097725880D+03 -.431176449970982D+02 -.543879640448507D+03
0.496519250078D-04 0.000000000000D+00 0.000000000000D+00 0.450901751053D-05 0.000000000000D+00  7 2 -2 24 -11 11 -24 21 0 0.15367014D+00 0.40968494D-01 0.16352948D+06 0.16352948D+06 0.16352948D+06 0.11046043D+01  1  2  2  2  7  2       -2 0.893585530176D-03 0.100000000000D+01
-.256001697104D-05 0.000000000000D+00 -.190676465682D-06 0.450901751053D-05 0.000000000000D+00  7 2 -2 24 -11 11 -24 21 2 0.15367014D+00 0.40968494D-01 0.16352948D+06 0.16352948D+06 0.16352948D+06 0.11046043D+01  1  2  3  2  7  2       -2 -.562155385503D-04 0.100000000000D+01
0.314113838031D-05 0.000000000000D+00 0.000000000000D+00 0.450901751053D-05 0.000000000000D+00  7 2 -2 24 -11 11 -24 21 2 0.15367014D+00 0.40968494D-01 0.16352948D+06 0.16352948D+06 0.16352948D+06 0.11046043D+01  1  2 15  2  7  2       -2 0.689764121520D-04 0.100000000000D+01
0.133474742811D-03 0.000000000000D+00 0.000000000000D+00 0.450901751053D-05 0.000000000000D+00  7 2 -2 24 -11 11 -24 21 2 0.15367014D+00 0.85629223D-01 0.24637053D+06 0.24637053D+06 0.24637053D+06 0.10909372D+01  1  2 12  2  7  2       -2 0.612981395232D-03 0.100000000000D+01
-.158455163456D-03 0.000000000000D+00 -.149402762089D-04 0.450901751053D-05 0.000000000000D+00  7 2 -2 24 -11 11 -24 21 2 0.15367014D+00 0.87145315D-01 0.16352948D+06 0.16352948D+06 0.16352948D+06 0.11046043D+01  1  2  5  2  7  2       -2 -.729094067134D-03 0.100000000000D+01
0.106412448721D-04 0.000000000000D+00 0.000000000000D+00 0.450901751053D-05 0.000000000000D+00  7 2 21 24 -11 11 -24 2 2 0.15367014D+00 0.85629223D-01 0.24637053D+06 0.24637053D+06 0.24637053D+06 0.10909372D+01  1  2 12  4  7  2       -2 0.465473808352D-03 0.100000000000D+01
-.120086925552D-04 0.000000000000D+00 -.122002631514D-05 0.450901751053D-05 0.000000000000D+00  7 2 21 24 -11 11 -24 2 2 0.15367014D+00 0.87145315D-01 0.16352948D+06 0.16352948D+06 0.16352948D+06 0.11046043D+01  1  2  5  4  7  2       -2 -.531548227873D-03 0.100000000000D+01
  </mgrwgt>
  </event>
  <event>
  8     66 0.26993063E-05 0.21768173E+03 0.75467711E-02 0.91574436E-01
        2 -1    0    0  501    0 0.00000000E+00 0.00000000E+00 0.18553417E+04 0.18553418E+04 0.32000000E+00 0.0000E+00 0.9000E+01
       -2 -1    0    0    0  501 0.00000000E+00 0.00000000E+00 -.26492712E+02 0.26494645E+02 0.32000000E+00 0.0000E+00 0.9000E+01
       25  2    1    2    0    0 -.56629879E+02 0.67616462E+02 0.13463363E+04 0.13831264E+04 0.30436508E+03 0.0000E+00 0.0000E+00
       23  2    1    2    0    0 0.56629879E+02 -.67616462E+02 0.48251269E+03 0.49871004E+03 0.90079290E+02 0.0000E+00 0.0000E+00
       24  1    3    3    0    0 -.97792771E+02 -.75658773E+02 0.62076998E+03 0.63805192E+03 0.80419002E+02 0.0000E+00 0.9000E+01
      -11  1    4    4    0    0 0.43920714E+00 0.16950164E+02 0.15228327E+03 0.15322433E+03 0.51099893E-03 0.0000E+00 0.9000E+01
       11  1    4    4    0    0 0.56190672E+02 -.84566626E+02 0.33022942E+03 0.34548571E+03 0.51099893E-03 0.0000E+00 0.9000E+01
      -24  1    3    3    0    0 0.41162892E+02 0.14327523E+03 0.72556636E+03 0.74507445E+03 0.80419002E+02 0.0000E+00 0.9000E+01
#aMCatNLO 1  0  0  2  1 0.58987596D+03 0.00000000D+00  -5  7  0 0.00000000D+00 0.00000000D+00 0.00000000D+00 0.00000000D+00 0.00000000D+00
  <mgrwgt>
 0.1338588128D-02    5    2    0
 0.221708997254221D+03 0.000000000000000D+00 0.000000000000000D+00 0.221708997254221D+03
 0.221708997254221D+03 0.000000000000000D+00 0.000000000000000D+00 -.221708997254221D+03
 0.147523946874643D+03 -.977927708972925D+02 -.756587726331346D+02 0.290224585093824D+01
 0.221912801694191D+02 0.439207193927921D+00 0.169501640690403D+02 0.143161430081943D+02
 0.104208299240688D+03 0.561906717266836D+02 -.845666261818734D+02 -.234619644905561D+02
 0.169494468223691D+03 0.411628919766809D+02 0.143275234745968D+03 0.624357563142360D+01
 0.000000000000000D+00 -.000000000000000D+00 0.000000000000000D+00 -.000000000000000D+00
 0.469708681923521D+03 0.000000000000000D+00 0.000000000000000D+00 0.469708681923521D+03
 0.123253302288768D+04 0.000000000000000D+00 0.000000000000000D+00 -.123253302288768D+04
 0.240248419606805D+03 0.255281995536936D+02 -.224926599506960D+03 0.290224585093824D+01
 0.199202081259789D+02 0.138316767266229D+02 0.739905454396766D+00 0.143161430081943D+02
 0.307765352278346D+03 0.187208234856712D+03 -.243150416588359D+03 -.234619644905561D+02
 0.170018026799699D+03 0.149136058673497D+03 0.125844049983646D+02 0.624357563142360D+01
 0.964289698000373D+03 -.375704169810525D+03 0.454752705642558D+03 -.762824340964161D+03
0.481273215672D-05 0.000000000000D+00 0.000000000000D+00 0.386030812034D-08 0.000000000000D+00  7 2 -2 24 -11 11 -24 21 0 0.28543734D+00 0.40759527D-02 0.47385337D+05 0.47385337D+05 0.47385337D+05 0.11493528D+01  1  2  2  2  7  2       -2 0.120709798544D-02 0.100000000000D+01
-.267264763206D-06 0.000000000000D+00 -.184821587033D-07 0.386030812034D-08 0.000000000000D+00  7 2 -2 24 -11 11 -24 21 2 0.28543734D+00 0.40759527D-02 0.47385337D+05 0.47385337D+05 0.47385337D+05 0.11493528D+01  1  2  3  2  7  2       -2 -.885521796328D-04 0.100000000000D+01
0.309876023743D-06 0.000000000000D+00 0.000000000000D+00 0.386030812034D-08 0.000000000000D+00  7 2 -2 24 -11 11 -24 21 2 0.28543734D+00 0.40759527D-02 0.47385337D+05 0.47385337D+05 0.47385337D+05 0.11493528D+01  1  2 15  2  7  2       -2 0.102670464259D-03 0.100000000000D+01
0.108713215165D-04 0.000000000000D+00 -.518512815822D-05 0.386030812034D-08 0.000000000000D+00  7 2 -2 24 -11 11 -24 21 2 0.28543734D+00 0.64255279D-01 0.47385337D+05 0.47385337D+05 0.47385337D+05 0.11493528D+01  1  2  5  2  7  2       -2 0.377824341675D-04 0.100000000000D+01
0.217018729702D-05 0.000000000000D+00 -.159826936609D-05 0.386030812034D-08 0.000000000000D+00  7 2 21 24 -11 11 -24 2 2 0.28543734D+00 0.64255279D-01 0.47385337D+05 0.47385337D+05 0.47385337D+05 0.11493528D+01  1  2  5  4  7  2       -2 0.795894236527D-04 0.100000000000D+01
  </mgrwgt>
  </event>
  <event>
  9     66 -.26993063E-05 0.49262585E+03 0.75467711E-02 0.94621636E-01
        2 -1    0    0  501    0 0.00000000E+00 0.00000000E+00 0.14829074E+04 0.14829074E+04 0.32000000E+00 0.0000E+00 0.9000E+01
       -2 -1    0    0    0  502 0.00000000E+00 0.00000000E+00 -.19783688E+03 0.19783713E+03 0.32000000E+00 0.0000E+00 0.9000E+01
       25  2    1    2    0    0 0.47584063E+03 -.62616634E+02 0.50153660E+03 0.75643791E+03 0.30052321E+03 0.0000E+00 0.0000E+00
       23  2    1    2    0    0 -.46235040E+03 0.57538385E+02 0.77038727E+03 0.90478303E+03 0.89762012E+02 0.0000E+00 0.0000E+00
       24  1    3    3    0    0 0.13957846E+03 -.44298052E+02 0.33036528E+03 0.37020656E+03 0.80419002E+02 0.0000E+00 0.9000E+01
      -11  1    4    4    0    0 -.68489308E+02 -.19728192E+02 0.89649929E+02 0.11452989E+03 0.51099893E-03 0.0000E+00 0.9000E+01
       11  1    4    4    0    0 -.39386109E+03 0.77266577E+02 0.68073734E+03 0.79025313E+03 0.51099893E-03 0.0000E+00 0.9000E+01
      -24  1    3    3    0    0 0.33626217E+03 -.18318582E+02 0.17117132E+03 0.38623135E+03 0.80419002E+02 0.0000E+00 0.9000E+01
       21  1    1    2  501  502 -.13490234E+02 0.50782491E+01 0.13146624E+02 0.19523607E+02 0.75000000E+00 0.0000E+00 0.9000E+01
#aMCatNLO 2  0  0  2  1 0.14414403D+02 0.00000000D+00  -5  7  0 0.00000000D+00 0.00000000D+00 0.00000000D+00 0.00000000D+00 0.00000000D+00
  <mgrwgt>
 -.2126708994D-03    3    2    0
 0.534241724260886D+03 0.000000000000000D+00 0.000000000000000D+00 0.534241724260886D+03
 0.534241724260886D+03 0.000000000000000D+00 0.000000000000000D+00 -.534241724260886D+03
 0.180337374940940D+03 0.137289348952338D+03 -.434363418794033D+02 0.729333374705782D+02
 0.721165354112531D+02 -.693948722523837D+02 -.193873023853349D+02 0.304612721622799D+01
 0.423632790331945D+03 -.399175510844603D+03 0.792671324016543D+02 0.117645120201386D+03
 0.392396747837634D+03 0.331281034144649D+03 -.164434881369160D+02 -.193624584888192D+03
 0.000000000000000D+00 -.000000000000000D+00 0.000000000000000D+00 -.000000000000000D+00
 0.540231869218893D+03 0.000000000000000D+00 0.000000000000000D+00 0.540231869218893D+03
 0.543032820722490D+03 0.000000000000000D+00 0.000000000000000D+00 -.543032820722490D+03
 0.182293586057775D+03 0.139578459709847D+03 -.442980522581093D+02 0.729333374705782D+02
 0.713390895728011D+02 -.684893075055904D+02 -.197281921995749D+02 0.304612721622799D+01
 0.418254773714843D+03 -.393861089058428D+03 0.772665772101046D+02 0.117645120201386D+03
 0.396693223691530D+03 0.336262170718027D+03 -.183185818032892D+02 -.193624584888192D+03
 0.146840169044330D+02 -.134902338638557D+02 0.507824905086882D+01 -.280095150359760D+01
-.229258306900D-04 0.000000000000D+00 0.000000000000D+00 0.120288080176D-05 0.000000000000D+00  7 2 -2 24 -11 11 -24 21 2 0.22560600D+00 0.30601472D-01 0.25017732D+06 0.25017732D+06 0.25017732D+06 0.10904359D+01  1  2 13  2  7  2       -2 -.444693263237D-03 0.100000000000D+01
-.143241126383D-03 0.000000000000D+00 0.000000000000D+00 0.120288080176D-05 0.000000000000D+00  7 2 -2 24 -11 11 -24 21 2 0.22560600D+00 0.29943203D-01 0.24268022D+06 0.24268022D+06 0.24268022D+06 0.10914313D+01  1  2  8  2  7  2       -2 -.289606985707D-02 0.100000000000D+01
0.163078388989D-03 0.000000000000D+00 0.000000000000D+00 0.120288080176D-05 0.367244093642D-07  7 2 -2 24 -11 11 -24 21 2 0.22813559D+00 0.30435927D-01 0.25017732D+06 0.25017732D+06 0.25017732D+06 0.10904359D+01  1  2  1  2  7  2       -2 0.312809222087D-02 0.100000000000D+01
  </mgrwgt>
  </event>
  <event>
  8     66 0.26993063E-05 0.20391873E+03 0.75467711E-02 0.10603166E+00
        2 -1    0    0  501    0 0.00000000E+00 0.00000000E+00 0.14739640E+04 0.14739640E+04 0.32000000E+00 0.0000E+00 0.9000E+01
       -2 -1    0    0    0  501 0.00000000E+00 0.00000000E+00 -.42326315E+02 0.42327525E+02 0.32000000E+00 0.0000E+00 0.9000E+01
       25  2    1    2    0    0 0.81642140E+02 -.36839951E+02 0.61735397E+03 0.69253226E+03 0.30075302E+03 0.0000E+00 0.0000E+00
       23  2    1    2    0    0 -.81642140E+02 0.36839951E+02 0.81428372E+03 0.82375930E+03 0.86595617E+02 0.0000E+00 0.0000E+00
       24  1    3    3    0    0 0.17112474E+03 -.51866440E+01 0.38592607E+03 0.42978683E+03 0.80419002E+02 0.0000E+00 0.9000E+01
      -13  1    4    4    0    0 -.22742592E+02 -.33367666E+01 0.39495535E+02 0.45697571E+02 0.10565837E+00 0.0000E+00 0.9000E+01
       13  1    4    4    0    0 -.58899548E+02 0.40176718E+02 0.77478818E+03 0.77806173E+03 0.10565837E+00 0.0000E+00 0.9000E+01
      -24  1    3    3    0    0 -.89482596E+02 -.31653307E+02 0.23142790E+03 0.26274542E+03 0.80419002E+02 0.0000E+00 0.9000E+01
#aMCatNLO 1  0  0  2  1 0.45209307D+00 0.00000000D+00  -5  7  0 0.00000000D+00 0.00000000D+00 0.00000000D+00 0.00000000D+00 0.00000000D+00
  <mgrwgt>
 0.5859932595D-03    6    2    0
 0.249776716417365D+03 0.000000000000000D+00 0.000000000000000D+00 0.249776716417365D+03
 0.249776716417365D+03 0.000000000000000D+00 0.000000000000000D+00 -.249776716417365D+03
 0.198529010194900D+03 0.171124740086938D+03 -.518664565749645D+01 -.602990378994360D+02
 0.255177008763483D+02 -.227425363117599D+02 -.333682826840320D+01 -.110813210958918D+02
 0.141231277234723D+03 -.588996101266418D+02 0.401767824290203D+02 0.121913640540884D+03
 0.134275444528759D+03 -.894825936485365D+02 -.316533085031206D+02 -.505332815455564D+02
 0.000000000000000D+00 0.000000000000000D+00 -.000000000000000D+00 0.000000000000000D+00
 0.250178679509115D+03 0.000000000000000D+00 0.000000000000000D+00 0.250178679509115D+03
 0.249903969782693D+03 0.000000000000000D+00 0.000000000000000D+00 -.249903969782693D+03
 0.198506843489458D+03 0.171104340740112D+03 -.500814996496932D+01 -.602990378994360D+02
 0.255170480276831D+02 -.227451584314839D+02 -.331388453986070D+01 -.110813210958918D+02
 0.141273512106703D+03 -.589141249698841D+02 0.403037883090883D+02 0.121913640540884D+03
 0.134256233781695D+03 -.894963905658396D+02 -.315325845245663D+02 -.505332815455564D+02
 0.529011886268885D+00 0.513332270955614D-01 -.449169279691972D+00 0.274709726421752D+00
0.246402113908D-05 0.000000000000D+00 0.000000000000D+00 0.327347058113D-07 0.000000000000D+00  7 2 -2 24 -13 13 -24 21 0 0.22676379D+00 0.65118365D-02 0.41582847D+05 0.41582847D+05 0.41582847D+05 0.11544043D+01  1  2  2  2  7  2       -2 0.490901565168D-03 0.100000000000D+01
-.130041716221D-06 0.000000000000D+00 -.946248996572D-08 0.327347058113D-07 0.000000000000D+00  7 2 -2 24 -13 13 -24 21 2 0.22676379D+00 0.65118365D-02 0.41582847D+05 0.41582847D+05 0.41582847D+05 0.11544043D+01  1  2  3  2  7  2       -2 -.345261842256D-04 0.100000000000D+01
0.151925810565D-06 0.000000000000D+00 0.000000000000D+00 0.327347058113D-07 0.000000000000D+00  7 2 -2 24 -13 13 -24 21 2 0.22676379D+00 0.65118365D-02 0.41582847D+05 0.41582847D+05 0.41582847D+05 0.11544043D+01  1  2 15  2  7  2       -2 0.403364295442D-04 0.100000000000D+01
-.542372856949D-04 0.000000000000D+00 0.000000000000D+00 0.327347058113D-07 0.000000000000D+00  7 2 -2 24 -13 13 -24 21 2 0.22676379D+00 0.65118365D-02 0.41582847D+05 0.41582847D+05 0.41582847D+05 0.11544043D+01  1  2  4  2  7  2       -2 -.144000446334D-01 0.100000000000D+01
0.542373218024D-04 0.000000000000D+00 0.000000000000D+00 0.327347058113D-07 0.113814391354D-05  7 2 -2 24 -13 13 -24 21 2 0.22712872D+00 0.65151541D-02 0.41683030D+05 0.41683030D+05 0.41683030D+05 0.11543107D+01  1  2 11  2  7  2       -2 0.143451434856D-01 0.100000000000D+01
0.342248141191D-07 0.000000000000D+00 0.000000000000D+00 0.327347058113D-07 0.108661807050D-09  7 2 21 24 -13 13 -24 2 2 0.22712872D+00 0.65151541D-02 0.41683030D+05 0.41683030D+05 0.41683030D+05 0.11543107D+01  1  2 11  4  7  2       -2 0.144182596829D-03 0.100000000000D+01
  </mgrwgt>
  </event>
  <event>
  9     66 -.26993063E-05 0.19079192E+03 0.75467711E-02 0.10531129E+00
        2 -1    0    0  502    0 0.00000000E+00 0.00000000E+00 0.86197490E+03 0.86197496E+03 0.32000000E+00 0.0000E+00 0.9000E+01
       -2 -1    0    0    0  501 0.00000000E+00 0.00000000E+00 -.19153897E+03 0.19153923E+03 0.32000000E+00 0.0000E+00 0.9000E+01
       25  2    1    2    0    0 -.18494142E+02 -.61909137E+02 0.75662213E+03 0.81647364E+03 0.29996230E+03 0.0000E+00 0.0000E+00
       23  2    1    2    0    0 0.48124975E+02 0.81153226E+02 -.12836022E+03 0.18201754E+03 0.88046456E+02 0.0000E+00 0.0000E+00
       24  1    3    3    0    0 -.12848658E+03 -.15912291E+02 0.28211213E+03 0.32065008E+03 0.80419002E+02 0.0000E+00 0.9000E+01
      -11  1    4    4    0    0 0.23637678E+02 0.16340602E+02 -.10506196E+03 0.10892094E+03 0.51099893E-03 0.0000E+00 0.9000E+01
       11  1    4    4    0    0 0.24487297E+02 0.64812625E+02 -.23298262E+02 0.73096601E+02 0.51099893E-03 0.0000E+00 0.9000E+01
      -24  1    3    3    0    0 0.10999244E+03 -.45996846E+02 0.47451000E+03 0.49582356E+03 0.80419002E+02 0.0000E+00 0.9000E+01
       21  1    1    2  502  501 -.29630834E+02 -.19244090E+02 0.42174035E+02 0.55023022E+02 0.75000000E+00 0.0000E+00 0.9000E+01
#aMCatNLO 2  0  0  1  2 0.35331591D+02 0.00000000D+00  -5  7  0 0.00000000D+00 0.00000000D+00 0.00000000D+00 0.00000000D+00 0.00000000D+00
  <mgrwgt>
 -.2261046439D-03    3    2    0
 0.387628457827176D+03 0.000000000000000D+00 0.000000000000000D+00 0.387628457827176D+03
 0.387628457827176D+03 0.000000000000000D+00 0.000000000000000D+00 -.387628457827176D+03
 0.189665320265648D+03 -.135626960683733D+03 -.205496935286906D+02 0.103386437160153D+03
 0.224116878769796D+03 0.150556860071666D+02 0.107669273133506D+02 -.223351236720548D+03
 0.110480642373560D+03 0.202204767793540D+02 0.620414884259497D+02 -.891513228840881D+02
 0.250994074245348D+03 0.100350797897212D+03 -.522587222106097D+02 0.209116122444483D+03
 0.000000000000000D+00 -.000000000000000D+00 -.000000000000000D+00 0.000000000000000D+00
 0.411211401279334D+03 0.000000000000000D+00 0.000000000000000D+00 0.411211401279334D+03
 0.401493794932799D+03 0.000000000000000D+00 0.000000000000000D+00 -.401493794932799D+03
 0.184168330429258D+03 -.128486581338542D+03 -.159122910353580D+02 0.103386437160153D+03
 0.225192206841092D+03 0.236376777795472D+02 0.163406017806324D+02 -.223351236720548D+03
 0.112908203524370D+03 0.244872973243494D+02 0.648126247028046D+02 -.891513228840881D+02
 0.253792858925714D+03 0.109992439800334D+03 -.459968456295749D+02 0.209116122444483D+03
 0.366435964916983D+02 -.296308335656888D+02 -.192440898185040D+02 0.971760634653438D+01
-.332171854897D-04 0.000000000000D+00 0.000000000000D+00 0.546510436033D-06 0.000000000000D+00  7 2 -2 24 -11 11 -24 21 2 0.13473698D+00 0.28449645D-01 0.46133226D+05 0.46133226D+05 0.46133226D+05 0.11503829D+01  1  2 13  1  7  1        2 -.186690940726D-02 0.100000000000D+01
-.383606806167D-06 0.000000000000D+00 0.000000000000D+00 0.546510436033D-06 0.000000000000D+00  7 2 -2 24 -11 11 -24 21 2 0.12500510D+00 0.28449645D-01 0.36401558D+05 0.36401558D+05 0.36401558D+05 0.11596217D+01  1  2  8  1  7  1        2 -.241584059610D-04 0.100000000000D+01
0.308433486597D-04 0.000000000000D+00 0.000000000000D+00 0.546510436033D-06 0.309422539605D-08  7 2 -2 24 -11 11 -24 21 2 0.13261029D+00 0.29467279D-01 0.46133226D+05 0.46133226D+05 0.46133226D+05 0.11503829D+01  1  2  1  1  7  1        2 0.166496316928D-02 0.100000000000D+01
  </mgrwgt>
  </event>
  <event>
  9     66 0.26993063E-05 0.51464972E+03 0.75467711E-02 0.92213727E-01
        2 -1    0    0  502    0 0.00000000E+00 0.00000000E+00 0.11061955E+04 0.11061956E+04 0.32000000E+00 0.0000E+00 0.9000E+01
       -2 -1    0    0    0  501 0.00000000E+00 0.00000000E+00 -.10901320E+04 0.10901320E+04 0.32000000E+00 0.0000E+00 0.9000E+01
       25  2    1    2    0    0 0.52946974E+03 0.24486139E+03 0.87951262E+03 0.10975888E+04 0.30143547E+03 0.0000E+00 0.0000E+00
       23  2    1    2    0    0 -.35713498E+03 -.12046768E+03 -.77766294E+03 0.86953830E+03 0.96329388E+02 0.0000E+00 0.0000E+00
       24  1    3    3    0    0 0.43153144E+03 0.27811086E+03 0.75716294E+03 0.91832890E+03 0.80419002E+02 0.0000E+00 0.9000E+01
      -11  1    4    4    0    0 -.20267896E+03 -.39733156E+02 -.50888251E+03 0.54919840E+03 0.51099893E-03 0.0000E+00 0.9000E+01
       11  1    4    4    0    0 -.15445602E+03 -.80734523E+02 -.26878043E+03 0.32033989E+03 0.51099893E-03 0.0000E+00 0.9000E+01
      -24  1    3    3    0    0 0.97938305E+02 -.33249478E+02 0.12234969E+03 0.17925987E+03 0.80419002E+02 0.0000E+00 0.9000E+01
       21  1    1    2  502  501 -.17233476E+03 -.12439371E+03 -.85786167E+02 0.22920056E+03 0.75000000E+00 0.0000E+00 0.9000E+01
#aMCatNLO 2  0  0  1  2 0.21253956D+03 0.00000000D+00  -5  7  0 0.00000000D+00 0.00000000D+00 0.00000000D+00 0.00000000D+00 0.00000000D+00
  <mgrwgt>
 0.2355647151D-03    1    2    0
 0.976478681397595D+03 0.000000000000000D+00 0.000000000000000D+00 0.976478681397595D+03
 0.976478681397595D+03 0.000000000000000D+00 0.000000000000000D+00 -.976478681397595D+03
 0.829710744609767D+03 0.356305007304252D+03 0.223811346201898D+03 0.710568734780622D+03
 0.600137912193101D+03 -.254433202228417D+03 -.770901143004525D+02 -.538039379165160D+03
 0.355453475122678D+03 -.184817214192181D+03 -.102649666764379D+03 -.285749569077876D+03
 0.167655230869645D+03 0.829454091163462D+02 -.440715651370673D+02 0.113220213462414D+03
 0.000000000000000D+00 -.000000000000000D+00 -.000000000000000D+00 -.000000000000000D+00
 0.105032953733194D+04 0.000000000000000D+00 0.000000000000000D+00 0.105032953733194D+04
 0.114811386009783D+04 0.000000000000000D+00 0.000000000000000D+00 -.114811386009783D+04
 0.880306866190507D+03 0.431531438990528D+03 0.278110864625622D+03 0.710568734780622D+03
 0.576319231266877D+03 -.202678955736824D+03 -.397331561425010D+02 -.538039379165160D+03
 0.334705157680709D+03 -.154456023222352D+03 -.807345232240374D+02 -.285749569077876D+03
 0.173157361880223D+03 0.979383045487633D+02 -.332494779596155D+02 0.113220213462414D+03
 0.233954780411458D+03 -.172334764580115D+03 -.124393707299468D+03 -.977843227658928D+02
0.352458542435D-03 0.000000000000D+00 0.000000000000D+00 0.205980783455D-06 0.286400544207D-10  7 2 -2 24 -11 11 -24 21 2 0.17018384D+00 0.16771253D+00 0.38689652D+06 0.38689652D+06 0.38689652D+06 0.10764720D+01  1  2  1  1  7  1        2 0.235564715135D-03 0.100000000000D+01
  </mgrwgt>
  </event>
  <event>
  9     66 0.26993063E-05 0.15212585E+03 0.75467711E-02 0.10653091E+00
        2 -1    0    0  501    0 0.00000000E+00 0.00000000E+00 0.34813176E+04 0.34813176E+04 0.32000000E+00 0.0000E+00 0.9000E+01
       21 -1    0    0  502  501 0.00000000E+00 0.00000000E+00 -.21063709E+02 0.21077057E+02 0.75000000E+00 0.0000E+00 0.9000E+01
       25  2    1    2    0    0 0.25678748E+02 0.93106153E+02 0.17086811E+04 0.17376077E+04 0.30060153E+03 0.0000E+00 0.0000E+00
       23  2    1    2    0    0 -.65415388E+02 -.17590993E+02 0.13160379E+04 0.13209714E+04 0.91765933E+02 0.0000E+00 0.0000E+00
       24  1    3    3    0    0 0.68003561E+02 0.57885312E+02 0.26891549E+03 0.29454703E+03 0.80419002E+02 0.0000E+00 0.9000E+01
      -11  1    4    4    0    0 -.77058609E+02 -.10470863E+02 0.62780751E+03 0.63260567E+03 0.51099893E-03 0.0000E+00 0.9000E+01
       11  1    4    4    0    0 0.11643221E+02 -.71201299E+01 0.68823038E+03 0.68836569E+03 0.51099893E-03 0.0000E+00 0.9000E+01
      -24  1    3    3    0    0 -.42324812E+02 0.35220841E+02 0.14397656E+04 0.14430607E+04 0.80419002E+02 0.0000E+00 0.9000E+01
        2  1    1    2  502    0 0.39736640E+02 -.75515160E+02 0.43553482E+03 0.44381553E+03 0.32000000E+00 0.0000E+00 0.9000E+01
#aMCatNLO 2  0  0  2  1 0.85331940D+02 0.00000000D+00  -5  7  0 0.00000000D+00 0.00000000D+00 0.00000000D+00 0.00000000D+00 0.00000000D+00
  <mgrwgt>
 0.9487032561D-04    2    2    0
 0.222878544157010D+03 0.000000000000000D+00 0.000000000000000D+00 0.222878544157010D+03
 0.222878544157010D+03 0.000000000000000D+00 0.000000000000000D+00 -.222878544157010D+03
 0.192554629600570D+03 0.850249865698844D+02 0.255379444201781D+02 -.150760188643505D+03
 0.755160822820356D+02 -.702257906087697D+02 -.234558913073231D+02 0.148606251409370D+02
 0.554510839321256D+02 0.164008455189620D+02 -.161614777934554D+02 0.504444408338761D+02
 0.122235292499289D+03 -.312000414800767D+02 0.140794246806004D+02 0.854551226686915D+02
 0.000000000000000D+00 0.000000000000000D+00 -.000000000000000D+00 -.000000000000000D+00
 0.259727779242052D+03 0.000000000000000D+00 0.000000000000000D+00 0.259727779242052D+03
 0.282421469715350D+03 0.000000000000000D+00 0.000000000000000D+00 -.282421469715350D+03
 0.192797935909994D+03 0.680035606976803D+02 0.578853123805619D+02 -.150760188643505D+03
 0.791738995425905D+02 -.770586089015762D+02 -.104708635438863D+02 0.148606251409370D+02
 0.522580372456319D+02 0.116432209798380D+02 -.712012998042006D+01 0.504444408338761D+02
 0.129621338279517D+03 -.423248122871547D+02 0.352208412383714D+02 0.854551226686915D+02
 0.882980379796690D+02 0.397366395112125D+02 -.755151600946269D+02 -.226936904732988D+02
-.833687599139D-07 0.000000000000D+00 0.000000000000D+00 0.205534007214D-06 0.000000000000D+00  7 2 21 24 -11 11 -24 2 2 0.45960052D+00 0.34067146D-02 0.38885160D+05 0.38885160D+05 0.38885160D+05 0.11570250D+01  1  2 13  4  7  2       -2 -.148119326821D-03 0.100000000000D+01
0.263945355641D-06 0.000000000000D+00 0.000000000000D+00 0.205534007214D-06 0.817676799567D-11  7 2 21 24 -11 11 -24 2 2 0.53558776D+00 0.32415950D-02 0.38885160D+05 0.38885160D+05 0.38885160D+05 0.11570250D+01  1  2  1  4  7  2       -2 0.242989652427D-03 0.100000000000D+01
  </mgrwgt>
  </event>
  <event>
  8     66 0.26993063E-05 0.18102042E+03 0.75467711E-02 0.10038123E+00
        2 -1    0    0  501    0 0.00000000E+00 0.00000000E+00 0.10503781E+03 0.10503830E+03 0.32000000E+00 0.0000E+00 0.9000E+01
       -2 -1    0    0    0  501 0.00000000E+00 0.00000000E+00 -.65302685E+03 0.65302693E+03 0.32000000E+00 0.0000E+00 0.9000E+01
       25  2    1    2    0    0 0.12989406E+03 -.13969658E+01 -.48963752E+03 0.58968642E+03 0.30184558E+03 0.0000E+00 0.0000E+00
       23  2    1    2    0    0 -.12989406E+03 0.13969658E+01 -.58351512E+02 0.16837880E+03 0.89844885E+02 0.0000E+00 0.0000E+00
       24  1    3    3    0    0 0.12496412E+03 -.17560117E+02 -.48480065E+03 0.50736897E+03 0.80419002E+02 0.0000E+00 0.9000E+01
      -11  1    4    4    0    0 -.91977120E+02 0.51755439E+01 0.73624261E+01 0.92416352E+02 0.51099893E-03 0.0000E+00 0.9000E+01
       11  1    4    4    0    0 -.37916941E+02 -.37785781E+01 -.65713938E+02 0.75962450E+02 0.51099893E-03 0.0000E+00 0.9000E+01
      -24  1    3    3    0    0 0.49299426E+01 0.16163151E+02 -.48368768E+01 0.82317453E+02 0.80419002E+02 0.0000E+00 0.9000E+01
#aMCatNLO 1  0  0  1  2 0.21580793D+03 0.00000000D+00  -5  7  0 0.00000000D+00 0.00000000D+00 0.00000000D+00 0.00000000D+00 0.00000000D+00
  <mgrwgt>
 0.7387994830D-03    3    2    0
 0.261902129662598D+03 0.000000000000000D+00 0.000000000000000D+00 0.261902129662598D+03
 0.261902129662598D+03 0.000000000000000D+00 0.000000000000000D+00 -.261902129662598D+03
 0.227095009786606D+03 0.124964118197830D+03 -.175601169083642D+02 -.170823121891656D+03
 0.141450074378959D+03 -.919771195879962D+02 0.517554387684074D+01 0.107338468219401D+03
 0.411870913549747D+02 -.379169412316993D+02 -.377857806646688D+01 -.156334388318920D+02
 0.114072083804657D+03 0.492994262186592D+01 0.161631510979903D+02 0.791180925041472D+02
 0.000000000000000D+00 0.000000000000000D+00 -.000000000000000D+00 -.000000000000000D+00
 0.330090440089990D+03 0.000000000000000D+00 0.000000000000000D+00 0.330090440089990D+03
 0.531883386557076D+03 0.000000000000000D+00 0.000000000000000D+00 -.531883386557076D+03
 0.198029299495775D+03 0.534176257116431D+02 0.267283706000913D+02 -.170823121891656D+03
 0.186328253987213D+03 -.147140725139444D+03 0.393227476109493D+02 0.107338468219401D+03
 0.570092789912969D+02 -.544429448493464D+02 0.645129735231988D+01 -.156334388318920D+02
 0.125152333465440D+03 -.353304414564263D+02 0.410850089749690D+02 0.791180925041472D+02
 0.295454660707342D+03 0.183496485733574D+03 -.113587424538329D+03 -.201792946467086D+03
0.191133899826D-04 0.000000000000D+00 0.000000000000D+00 0.431680754198D-07 0.000000000000D+00  7 2 -2 24 -11 11 -24 21 0 0.16159707D-01 0.10046571D+00 0.32768393D+05 0.32768393D+05 0.32768393D+05 0.11637959D+01  1  2  2  1  7  1        2 0.721652887729D-03 0.100000000000D+01
-.885718694437D-06 0.000000000000D+00 -.734004502042D-07 0.431680754198D-07 0.000000000000D+00  7 2 -2 24 -11 11 -24 21 2 0.16159707D-01 0.10046571D+00 0.32768393D+05 0.32768393D+05 0.32768393D+05 0.11637959D+01  1  2  3  1  7  1        2 -.452939358493D-04 0.100000000000D+01
0.122101876738D-05 0.000000000000D+00 0.000000000000D+00 0.431680754198D-07 0.000000000000D+00  7 2 -2 24 -11 11 -24 21 2 0.16159707D-01 0.10046571D+00 0.32768393D+05 0.32768393D+05 0.32768393D+05 0.11637959D+01  1  2 15  1  7  1        2 0.624405311393D-04 0.100000000000D+01
  </mgrwgt>
  </event>
  <event>
  8     66 0.26993063E-05 0.24550341E+03 0.75467711E-02 0.99569791E-01
        2 -1    0    0  501    0 0.00000000E+00 0.00000000E+00 0.99216518E+03 0.99216523E+03 0.32000000E+00 0.0000E+00 0.9000E+01
       -2 -1    0    0    0  501 0.00000000E+00 0.00000000E+00 -.71835158E+02 0.71835871E+02 0.32000000E+00 0.0000E+00 0.9000E+01
       25  2    1    2    0    0 0.13968976E+03 0.94408008E+02 0.63122508E+03 0.71707611E+03 0.29551133E+03 0.0000E+00 0.0000E+00
       23  2    1    2    0    0 -.13968976E+03 -.94408008E+02 0.28910494E+03 0.34692499E+03 0.91373855E+02 0.0000E+00 0.0000E+00
       24  1    3    3    0    0 0.12449502E+03 -.37462931E+02 0.46579238E+03 0.49023692E+03 0.80419002E+02 0.0000E+00 0.9000E+01
      -11  1    4    4    0    0 0.41461922E+01 -.21078519E+02 0.79488924E+02 0.82340658E+02 0.51099893E-03 0.0000E+00 0.9000E+01
       11  1    4    4    0    0 -.14383595E+03 -.73329489E+02 0.20961602E+03 0.26458433E+03 0.51099893E-03 0.0000E+00 0.9000E+01
      -24  1    3    3    0    0 0.15194741E+02 0.13187094E+03 0.16543270E+03 0.22683919E+03 0.80419002E+02 0.0000E+00 0.9000E+01
#aMCatNLO 1  0  0  1  2 0.15155786D+03 0.00000000D+00  -5  7  0 0.00000000D+00 0.00000000D+00 0.00000000D+00 0.00000000D+00 0.00000000D+00
  <mgrwgt>
 0.4201903434D-02    3    2    0
 0.266969565110258D+03 0.000000000000000D+00 0.000000000000000D+00 0.266969565110258D+03
 0.266969565110258D+03 0.000000000000000D+00 0.000000000000000D+00 -.266969565110258D+03
 0.174045889922662D+03 0.124495015525000D+03 -.374629306462457D+02 0.832002150323273D+02
 0.270714517436428D+02 0.414619216856186D+01 -.210785191851279D+02 0.164732698324265D+02
 0.165940463269670D+03 -.143835948541019D+03 -.733294889121911D+02 -.383437519465023D+02
 0.166881325284542D+03 0.151947408474571D+02 0.131870938743565D+03 -.613297329182515D+02
 0.000000000000000D+00 0.000000000000000D+00 0.000000000000000D+00 -.000000000000000D+00
 0.280661228210726D+03 0.000000000000000D+00 0.000000000000000D+00 0.280661228210726D+03
 0.210334829181430D+04 0.000000000000000D+00 0.000000000000000D+00 -.210334829181430D+04
 0.154566439459330D+03 0.839933175019879D+02 -.587061758791084D+02 0.832002150323273D+02
 0.298777562417766D+02 -.287283730246556D+01 -.247600182735120D+02 0.164732698324265D+02
 0.218320069678836D+03 -.191196326336068D+03 -.981701294021184D+02 -.383437519465023D+02
 0.152267967564958D+03 -.241406313449311D+02 0.111239434421596D+03 -.613297329182515D+02
 0.182897728708013D+04 0.134216477481477D+03 0.703968891331425D+02 -.182268706360358D+04
0.248687615083D-04 0.000000000000D+00 0.000000000000D+00 0.123743563524D-07 0.000000000000D+00  7 2 -2 24 -11 11 -24 21 0 0.15264086D+00 0.11051622D-01 0.60271925D+05 0.60271925D+05 0.60271925D+05 0.11402256D+01  1  2  2  1  7  1        2 0.414022881049D-02 0.100000000000D+01
-.136979470708D-05 0.000000000000D+00 -.955025922872D-07 0.123743563524D-07 0.000000000000D+00  7 2 -2 24 -11 11 -24 21 2 0.15264086D+00 0.11051622D-01 0.60271925D+05 0.60271925D+05 0.60271925D+05 0.11402256D+01  1  2  3  1  7  1        2 -.296488072688D-03 0.100000000000D+01
0.165473558872D-05 0.000000000000D+00 0.000000000000D+00 0.123743563524D-07 0.000000000000D+00  7 2 -2 24 -11 11 -24 21 2 0.15264086D+00 0.11051622D-01 0.60271925D+05 0.60271925D+05 0.60271925D+05 0.11402256D+01  1  2 15  1  7  1        2 0.358162696185D-03 0.100000000000D+01
  </mgrwgt>
  </event>
  <event>
  8     66 0.26993063E-05 0.79299517E+03 0.75467711E-02 0.81214503E-01
        2 -1    0    0  501    0 0.00000000E+00 0.00000000E+00 0.28600439E+04 0.28600440E+04 0.32000000E+00 0.0000E+00 0.9000E+01
       -2 -1    0    0    0  501 0.00000000E+00 0.00000000E+00 -.27675962E+03 0.27675980E+03 0.32000000E+00 0.0000E+00 0.9000E+01
       25  2    1    2    0    0 0.78170044E+03 0.81627743E+01 0.68870078E+03 0.10854063E+04 0.30442721E+03 0.0000E+00 0.0000E+00
       23  2    1    2    0    0 -.78170044E+03 -.81627743E+01 0.18945836E+04 0.20513974E+04 0.87535081E+02 0.0000E+00 0.0000E+00
       24  1    3    3    0    0 0.59730071E+03 0.11592047E+02 0.63837743E+03 0.87800653E+03 0.80419002E+02 0.0000E+00 0.9000E+01
      -13  1    4    4    0    0 -.25014652E+03 -.11720790E+02 0.50680870E+03 0.56530145E+03 0.10565837E+00 0.0000E+00 0.9000E+01
       13  1    4    4    0    0 -.53155393E+03 0.35580153E+01 0.13877749E+04 0.14860960E+04 0.10565837E+00 0.0000E+00 0.9000E+01
      -24  1    3    3    0    0 0.18439973E+03 -.34292726E+01 0.50323353E+02 0.20739980E+03 0.80419002E+02 0.0000E+00 0.9000E+01
#aMCatNLO 1  0  0  1  1 0.16971853D+04 0.00000000D+00  -5  7  0 0.00000000D+00 0.00000000D+00 0.00000000D+00 0.00000000D+00 0.00000000D+00
  <mgrwgt>
 0.1238097148D-02    3    2    0
 0.889688137179649D+03 0.000000000000000D+00 0.000000000000000D+00 0.889688137179649D+03
 0.889688137179649D+03 0.000000000000000D+00 0.000000000000000D+00 -.889688137179649D+03
 0.621017488656516D+03 0.597300708612070D+03 0.115920468253539D+02 -.149308382901943D+03
 0.260769937762788D+03 -.250146105656447D+03 -.117208117684377D+02 0.727358841096399D+02
 0.605029621652651D+03 -.531554336352404D+03 0.355803750810228D+01 0.288960500676470D+03
 0.292559226287342D+03 0.184399733396780D+03 -.342927256501846D+01 -.212388001884167D+03
 0.000000000000000D+00 0.000000000000000D+00 -.000000000000000D+00 -.000000000000000D+00
 0.168632591167840D+04 0.000000000000000D+00 0.000000000000000D+00 0.168632591167840D+04
 0.280580371601844D+04 0.000000000000000D+00 0.000000000000000D+00 -.280580371601844D+04
 0.413988970324109D+03 0.269226684705605D+03 0.264846466152149D+03 -.149308382901943D+03
 0.542402154322263D+03 -.504733792383772D+03 0.184806350004853D+03 0.727358841096399D+02
 0.123952180666701D+04 -.111623610731184D+04 0.454898989870460D+03 0.288960500676470D+03
 0.263074207788988D+03 0.827629479145483D+01 0.132527968556110D+03 -.212388001884167D+03
 0.203314248859447D+04 0.134346692019856D+04 -.103707977458357D+04 -.111947780434004D+04
0.895375985402D-03 0.000000000000D+00 0.000000000000D+00 0.354744225177D-07 0.000000000000D+00  7 2 -2 24 -13 13 -24 21 0 0.44000678D+00 0.42578418D-01 0.62884134D+06 0.62884134D+06 0.62884134D+06 0.10615436D+01  1  2  2  1  7  1        2 0.122637995633D-02 0.100000000000D+01
-.489425079923D-04 0.000000000000D+00 -.343847954185D-05 0.354744225177D-07 0.000000000000D+00  7 2 -2 24 -13 13 -24 21 2 0.44000678D+00 0.42578418D-01 0.62884134D+06 0.62884134D+06 0.62884134D+06 0.10615436D+01  1  2  3  1  7  1        2 -.755407855573D-04 0.100000000000D+01
0.565340196292D-04 0.000000000000D+00 0.000000000000D+00 0.354744225177D-07 0.000000000000D+00  7 2 -2 24 -13 13 -24 21 2 0.44000678D+00 0.42578418D-01 0.62884134D+06 0.62884134D+06 0.62884134D+06 0.10615436D+01  1  2 15  1  7  1        2 0.872579773431D-04 0.100000000000D+01
  </mgrwgt>
  </event>
  <event>
  8     66 0.26993063E-05 0.33365597E+03 0.75467711E-02 0.94794631E-01
        2 -1    0    0  501    0 0.00000000E+00 0.00000000E+00 0.69237044E+03 0.69237052E+03 0.32000000E+00 0.0000E+00 0.9000E+01
       -2 -1    0    0    0  501 0.00000000E+00 0.00000000E+00 -.38801841E+03 0.38801854E+03 0.32000000E+00 0.0000E+00 0.9000E+01
       25  2    1    2    0    0 0.24304470E+03 0.25578248E+03 -.16044552E+03 0.48991957E+03 0.29963814E+03 0.0000E+00 0.0000E+00
       23  2    1    2    0    0 -.24304470E+03 -.25578248E+03 0.46479755E+03 0.59046949E+03 0.90122436E+02 0.0000E+00 0.0000E+00
       24  1    3    3    0    0 0.29048592E+02 0.10586694E+03 -.16829177E+03 0.21642774E+03 0.80419002E+02 0.0000E+00 0.9000E+01
      -11  1    4    4    0    0 -.23641301E+03 -.26294864E+03 0.44488508E+03 0.56829203E+03 0.51099893E-03 0.0000E+00 0.9000E+01
       11  1    4    4    0    0 -.66316878E+01 0.71661618E+01 0.19912469E+02 0.22177457E+02 0.51099893E-03 0.0000E+00 0.9000E+01
      -24  1    3    3    0    0 0.21399611E+03 0.14991554E+03 0.78462518E+01 0.27349183E+03 0.80419002E+02 0.0000E+00 0.9000E+01
#aMCatNLO 1  0  0  2  1 0.19564438D+03 0.00000000D+00  -5  7  0 0.00000000D+00 0.00000000D+00 0.00000000D+00 0.00000000D+00 0.00000000D+00
  <mgrwgt>
 0.1417962751D-02    9    2    0
 0.518317074637969D+03 0.000000000000000D+00 0.000000000000000D+00 0.518317074637969D+03
 0.518317074637969D+03 0.000000000000000D+00 0.000000000000000D+00 -.518317074637969D+03
 0.274972708846681D+03 0.290485923294272D+02 0.105866940031567D+03 -.238937533569221D+03
 0.461662214236399D+03 -.236413011710095D+03 -.262948642156426D+03 0.296814587808465D+03
 0.172673080022732D+02 -.663168777937692D+01 0.716616181912689D+01 0.142417262866662D+02
 0.282731918190585D+03 0.213996107160044D+03 0.149915540305732D+03 -.721187805259110D+02
 0.000000000000000D+00 0.000000000000000D+00 0.000000000000000D+00 -.000000000000000D+00
 0.594705128821208D+03 0.000000000000000D+00 0.000000000000000D+00 0.594705128821208D+03
 0.669785756802443D+03 0.000000000000000D+00 0.000000000000000D+00 -.669785756802443D+03
 0.260278784522360D+03 0.549618823592848D+00 0.647022618543813D+02 -.238937533569221D+03
 0.536011968405245D+03 -.289533256026640D+03 -.339676941213807D+03 0.296814587808465D+03
 0.171725825880834D+02 -.846540808027795D+01 0.451748726114293D+01 0.142417262866662D+02
 0.241471298218921D+03 0.186085389000072D+03 0.109600553854933D+03 -.721187805259110D+02
 0.209556251889041D+03 0.111363656283253D+03 0.160856638243350D+03 -.750806279812349D+02
0.873838219602D-04 0.000000000000D+00 0.000000000000D+00 0.302291726992D-05 0.000000000000D+00  7 2 -2 24 -11 11 -24 21 0 0.10651855D+00 0.59695156D-01 0.14931551D+06 0.14931551D+06 0.14931551D+06 0.11077087D+01  1  2  2  2  7  2       -2 0.120987948061D-02 0.100000000000D+01
-.434557789994D-05 0.000000000000D+00 -.335576885016D-06 0.302291726992D-05 0.000000000000D+00  7 2 -2 24 -11 11 -24 21 2 0.10651855D+00 0.59695156D-01 0.14931551D+06 0.14931551D+06 0.14931551D+06 0.11077087D+01  1  2  3  2  7  2       -2 -.738260673859D-04 0.100000000000D+01
0.548889966050D-05 0.000000000000D+00 0.000000000000D+00 0.302291726992D-05 0.000000000000D+00  7 2 -2 24 -11 11 -24 21 2 0.10651855D+00 0.59695156D-01 0.14931551D+06 0.14931551D+06 0.14931551D+06 0.11077087D+01  1  2 15  2  7  2       -2 0.932497093690D-04 0.100000000000D+01
0.342914925570D-04 0.000000000000D+00 0.000000000000D+00 0.302291726992D-05 0.000000000000D+00  7 2 -2 24 -11 11 -24 21 2 0.10651855D+00 0.80512469D-01 0.24267299D+06 0.24267299D+06 0.24267299D+06 0.10914323D+01  1  2 12  2  7  2       -2 0.292990778016D-03 0.100000000000D+01
-.542421599828D-04 0.000000000000D+00 0.000000000000D+00 0.302291726992D-05 0.000000000000D+00  7 2 -2 24 -11 11 -24 21 2 0.10651855D+00 0.59695156D-01 0.14931551D+06 0.14931551D+06 0.14931551D+06 0.11077087D+01  1  2  4  2  7  2       -2 -.921508128550D-03 0.100000000000D+01
-.759075301775D-04 0.000000000000D+00 -.364788913777D-04 0.302291726992D-05 0.000000000000D+00  7 2 -2 24 -11 11 -24 21 2 0.10651855D+00 0.86284179D-01 0.14931551D+06 0.14931551D+06 0.14931551D+06 0.11077087D+01  1  2  5  2  7  2       -2 -.580063004306D-03 0.100000000000D+01
0.858005376598D-04 0.000000000000D+00 0.341361767514D-04 0.302291726992D-05 0.000000000000D+00  7 2 -2 24 -11 11 -24 21 2 0.10651855D+00 0.59695156D-01 0.14931551D+06 0.14931551D+06 0.14931551D+06 0.11077087D+01  1  2  6  2  7  2       -2 0.145764646748D-02 0.100000000000D+01
0.132286720287D-05 0.000000000000D+00 0.000000000000D+00 0.302291726992D-05 0.000000000000D+00  7 2 21 24 -11 11 -24 2 2 0.10651855D+00 0.80512469D-01 0.24267299D+06 0.24267299D+06 0.24267299D+06 0.10914323D+01  1  2 12  4  7  2       -2 0.108879282958D-03 0.100000000000D+01
-.229223691260D-05 0.000000000000D+00 -.163528926364D-05 0.302291726992D-05 0.000000000000D+00  7 2 21 24 -11 11 -24 2 2 0.10651855D+00 0.86284179D-01 0.14931551D+06 0.14931551D+06 0.14931551D+06 0.11077087D+01  1  2  5  4  7  2       -2 -.169285767404D-03 0.100000000000D+01
  </mgrwgt>
  </event>
  <event>
  9     66 0.26993063E-05 0.18974700E+03 0.75467711E-02 0.10601029E+00
        2 -1    0    0  502    0 0.00000000E+00 0.00000000E+00 0.52378245E+03 0.52378255E+03 0.32000000E+00 0.0000E+00 0.9000E+01
       -2 -1    0    0    0  501 0.00000000E+00 0.00000000E+00 -.12549188E+03 0.12549229E+03 0.32000000E+00 0.0000E+00 0.9000E+01
       25  2    1    2    0    0 0.31185304E+02 0.50751936E+02 0.40691961E+03 0.50894596E+03 0.29982351E+03 0.0000E+00 0.0000E+00
       23  2    1    2    0    0 -.56124328E+02 -.29349873E+02 -.15735014E+02 0.10669764E+03 0.84412323E+02 0.0000E+00 0.0000E+00
       24  1    3    3    0    0 0.12810862E+03 0.86445497E+02 0.21694848E+03 0.27824181E+03 0.80419002E+02 0.0000E+00 0.9000E+01
      -13  1    4    4    0    0 -.60358808E+02 -.27156364E+02 0.21166776E+02 0.69488829E+02 0.10565837E+00 0.0000E+00 0.9000E+01
       13  1    4    4    0    0 0.42344800E+01 -.21935093E+01 -.36901790E+02 0.37208810E+02 0.10565837E+00 0.0000E+00 0.9000E+01
      -24  1    3    3    0    0 -.96923320E+02 -.35693561E+02 0.18997113E+03 0.23070415E+03 0.80419002E+02 0.0000E+00 0.9000E+01
       21  1    1    2  502  501 0.24939024E+02 -.21402063E+02 0.71059703E+01 0.33631244E+02 0.75000000E+00 0.0000E+00 0.9000E+01
#aMCatNLO 2  0  0  1  1 0.32863403D+02 0.00000000D+00  -5  7  0 0.00000000D+00 0.00000000D+00 0.00000000D+00 0.00000000D+00 0.00000000D+00
  <mgrwgt>
 0.3181288291D-03    1    2    0
 0.237124254696731D+03 0.000000000000000D+00 0.000000000000000D+00 0.237124254696731D+03
 0.237124254696731D+03 0.000000000000000D+00 0.000000000000000D+00 -.237124254696731D+03
 0.185083723992851D+03 0.137743942879480D+03 0.781767108688429D+02 0.519978558253610D+02
 0.707986188129623D+02 -.565937023396450D+02 -.303875894088109D+02 -.297689719546429D+02
 0.790626224262744D+02 0.837379658128805D+01 -.574568377203907D+01 -.784076840222090D+02
 0.139303544161375D+03 -.895240371211232D+02 -.420434376879929D+02 0.561788001514910D+02
 0.000000000000000D+00 0.000000000000000D+00 -.000000000000000D+00 -.000000000000000D+00
 0.247306513881121D+03 0.000000000000000D+00 0.000000000000000D+00 0.247306513881121D+03
 0.265778141643010D+03 0.000000000000000D+00 0.000000000000000D+00 -.265778141643010D+03
 0.181812097417879D+03 0.128108629816207D+03 0.864455017296830D+02 0.519978558253610D+02
 0.725731161218763D+02 -.603588898122364D+02 -.271563972764676D+02 -.297689719546429D+02
 0.785525792798911D+02 0.423455126055779D+01 -.219348431011493D+01 -.784076840222090D+02
 0.142447999867658D+03 -.969233155384732D+02 -.356935572687042D+02 0.561788001514910D+02
 0.376988628368259D+02 0.249390242739448D+02 -.214020628743962D+02 -.184716277618891D+02
0.160210321293D-05 0.000000000000D+00 0.000000000000D+00 0.177917825264D-07 0.117701057740D-09  7 2 -2 24 -13 13 -24 21 2 0.80580762D-01 0.19306197D-01 0.41807767D+05 0.41807767D+05 0.41807767D+05 0.11541944D+01  1  2  1  1  7  1        2 0.318128829126D-03 0.100000000000D+01
  </mgrwgt>
  </event>
  <event>
  8     66 0.26993063E-05 0.43391168E+03 0.75467711E-02 0.92699293E-01
        2 -1    0    0  501    0 0.00000000E+00 0.00000000E+00 0.18980865E+04 0.18980865E+04 0.32000000E+00 0.0000E+00 0.9000E+01
       -2 -1    0    0    0  501 0.00000000E+00 0.00000000E+00 -.14241588E+03 0.14241624E+03 0.32000000E+00 0.0000E+00 0.9000E+01
       25  2    1    2    0    0 0.13246468E+03 0.35599387E+03 0.14867677E+04 0.15663095E+04 0.31395656E+03 0.0000E+00 0.0000E+00
       23  2    1    2    0    0 -.13246468E+03 -.35599387E+03 0.26890295E+03 0.47419330E+03 0.90950328E+02 0.0000E+00 0.0000E+00
       24  1    3    3    0    0 0.20165752E+03 0.22866757E+03 0.80165663E+03 0.86143786E+03 0.80419002E+02 0.0000E+00 0.9000E+01
      -11  1    4    4    0    0 -.11849780E+03 -.21837452E+03 0.20363593E+03 0.32124252E+03 0.51099893E-03 0.0000E+00 0.9000E+01
       11  1    4    4    0    0 -.13966876E+02 -.13761935E+03 0.65267017E+02 0.15295078E+03 0.51099893E-03 0.0000E+00 0.9000E+01
      -24  1    3    3    0    0 -.69192844E+02 0.12732630E+03 0.68511103E+03 0.70487160E+03 0.80419002E+02 0.0000E+00 0.9000E+01
#aMCatNLO 1  0  0  2  2 0.28736677D+03 0.00000000D+00  -5  7  0 0.00000000D+00 0.00000000D+00 0.00000000D+00 0.00000000D+00 0.00000000D+00
  <mgrwgt>
 0.1102658855D-02    3    2    0
 0.519921199552741D+03 0.000000000000000D+00 0.000000000000000D+00 0.519921199552741D+03
 0.519921199552741D+03 0.000000000000000D+00 0.000000000000000D+00 -.519921199552741D+03
 0.336898496408141D+03 0.201657524575980D+03 0.228667570447829D+03 0.118653975639550D+03
 0.286561328626267D+03 -.118497804840177D+03 -.218374522418848D+03 -.142787370836677D+03
 0.189941386813953D+03 -.139668761594194D+02 -.137619345732572D+03 -.130167478562403D+03
 0.226441187257121D+03 -.691928435763838D+02 0.127326297703592D+03 0.154300873759530D+03
 0.000000000000000D+00 -.000000000000000D+00 -.000000000000000D+00 0.000000000000000D+00
 0.163367019526709D+04 0.000000000000000D+00 0.000000000000000D+00 0.163367019526709D+04
 0.558276380595474D+03 0.000000000000000D+00 0.000000000000000D+00 -.558276380595474D+03
 0.418043243771058D+03 0.301430303047656D+03 0.251702094106874D+03 0.118653975639550D+03
 0.251818793268708D+03 -.473457174981381D+02 -.201947652641579D+03 -.142787370836677D+03
 0.184744830488953D+03 0.355514945515169D+02 -.126187048274582D+03 -.130167478562403D+03
 0.224212799396328D+03 -.963460486106355D+01 0.141076497705975D+03 0.154300873759530D+03
 0.111312690893751D+04 -.280001475239971D+03 -.646438908966875D+02 0.107539381467161D+04
0.635766659750D-04 0.000000000000D+00 0.000000000000D+00 0.707083978253D-08 0.000000000000D+00  7 2 -2 24 -11 11 -24 21 0 0.29201334D+00 0.21910165D-01 0.18827934D+06 0.18827934D+06 0.18827934D+06 0.10998454D+01  1  2  2  2  7  2       -2 0.108832824098D-02 0.100000000000D+01
-.339160121918D-05 0.000000000000D+00 -.244151137465D-06 0.707083978253D-08 0.000000000000D+00  7 2 -2 24 -11 11 -24 21 2 0.29201334D+00 0.21910165D-01 0.18827934D+06 0.18827934D+06 0.18827934D+06 0.10998454D+01  1  2  3  2  7  2       -2 -.702312218130D-04 0.100000000000D+01
0.408365420316D-05 0.000000000000D+00 0.000000000000D+00 0.707083978253D-08 0.000000000000D+00  7 2 -2 24 -11 11 -24 21 2 0.29201334D+00 0.21910165D-01 0.18827934D+06 0.18827934D+06 0.18827934D+06 0.10998454D+01  1  2 15  2  7  2       -2 0.845618354328D-04 0.100000000000D+01
  </mgrwgt>
  </event>
  <event>
  8     66 0.26993063E-05 0.23869891E+03 0.75467711E-02 0.94594377E-01
        2 -1    0    0  501    0 0.00000000E+00 0.00000000E+00 0.62817833E+03 0.62817841E+03 0.32000000E+00 0.0000E+00 0.9000E+01
       -2 -1    0    0    0  501 0.00000000E+00 0.00000000E+00 -.18160331E+03 0.18160359E+03 0.32000000E+00 0.0000E+00 0.9000E+01
       25  2    1    2    0    0 -.17800717E+03 -.56769524E+02 0.48300296E+03 0.59850285E+03 0.30000745E+03 0.0000E+00 0.0000E+00
       23  2    1    2    0    0 0.17800717E+03 0.56769524E+02 -.36427938E+02 0.21127915E+03 0.91665449E+02 0.0000E+00 0.0000E+00
       24  1    3    3    0    0 -.67156158E+02 0.50638605E+02 0.40852037E+02 0.12333014E+03 0.80419002E+02 0.0000E+00 0.9000E+01
      -11  1    4    4    0    0 0.58752911E+02 0.22384443E+02 0.30927564E+02 0.70067696E+02 0.51099893E-03 0.0000E+00 0.9000E+01
       11  1    4    4    0    0 0.11925426E+03 0.34385081E+02 -.67355502E+02 0.14121146E+03 0.51099893E-03 0.0000E+00 0.9000E+01
      -24  1    3    3    0    0 -.11085101E+03 -.10740813E+03 0.44215092E+03 0.47517271E+03 0.80419002E+02 0.0000E+00 0.9000E+01
#aMCatNLO 1  0  0  2  1 0.37857602D+03 0.00000000D+00  -5  7  0 0.00000000D+00 0.00000000D+00 0.00000000D+00 0.00000000D+00 0.00000000D+00
  <mgrwgt>
 0.9026936438D-03    3    2    0
 0.337756436839264D+03 0.000000000000000D+00 0.000000000000000D+00 0.337756436839264D+03
 0.337756436839264D+03 0.000000000000000D+00 0.000000000000000D+00 -.337756436839264D+03
 0.120837114003958D+03 -.671561579512362D+02 0.506386047453769D+02 -.325603182586597D+02
 0.635488733558553D+02 0.587529113090702D+02 0.223844429448092D+02 -.924615766454644D+01
 0.213807591902982D+03 0.119254257740220D+03 0.343850814099321D+02 -.174097026231391D+03
 0.277319294415732D+03 -.110851011098054D+03 -.107408129100118D+03 0.215903502154597D+03
 0.000000000000000D+00 -.000000000000000D+00 0.000000000000000D+00 0.000000000000000D+00
 0.717102928443988D+03 0.000000000000000D+00 0.000000000000000D+00 0.717102928443988D+03
 0.495782701149375D+03 0.000000000000000D+00 0.000000000000000D+00 -.495782701149375D+03
 0.954081972026715D+02 -.396686053063452D+02 0.131740921414041D+01 -.325603182586597D+02
 0.779195352247432D+02 0.767353605318996D+02 -.988164875522963D+01 -.924615766454644D+01
 0.260797672925431D+03 0.179582674248857D+03 -.738628104687001D+02 -.174097026231391D+03
 0.340237199058397D+03 -.323516599174677D+02 -.248260314038907D+03 0.215903502154597D+03
 0.438523025182120D+03 -.184297769556944D+03 0.330687364048697D+03 0.221320227294613D+03
0.134962734127D-04 0.000000000000D+00 0.000000000000D+00 0.238129895320D-05 0.000000000000D+00  7 2 -2 24 -11 11 -24 21 0 0.96642848D-01 0.27938999D-01 0.56977168D+05 0.56977168D+05 0.56977168D+05 0.11423386D+01  1  2  2  2  7  2       -2 0.883203026114D-03 0.100000000000D+01
-.639946185196D-06 0.000000000000D+00 -.518292435553D-07 0.238129895320D-05 0.000000000000D+00  7 2 -2 24 -11 11 -24 21 2 0.96642848D-01 0.27938999D-01 0.56977168D+05 0.56977168D+05 0.56977168D+05 0.11423386D+01  1  2  3  2  7  2       -2 -.546486958963D-04 0.100000000000D+01
0.868184869409D-06 0.000000000000D+00 0.000000000000D+00 0.238129895320D-05 0.000000000000D+00  7 2 -2 24 -11 11 -24 21 2 0.96642848D-01 0.27938999D-01 0.56977168D+05 0.56977168D+05 0.56977168D+05 0.11423386D+01  1  2 15  2  7  2       -2 0.741393135981D-04 0.100000000000D+01
  </mgrwgt>
  </event>
  <event>
  7     66 0.26993063E-05 0.13650330E+03 0.75467711E-02 0.10436542E+00
        2 -1    0    0  501    0 0.00000000E+00 0.00000000E+00 0.56245463E+03 0.56245472E+03 0.32000000E+00 0.0000E+00 0.9000E+01
       -2 -1    0    0    0  501 0.00000000E+00 0.00000000E+00 -.32273706E+03 0.32273722E+03 0.32000000E+00 0.0000E+00 0.9000E+01
       23  2    1    2    0    0 -.15650846E+02 -.10731064E+03 -.24962601E+03 0.28819290E+03 0.94770668E+02 0.0000E+00 0.0000E+00
       24  1    1    2    0    0 -.83934756E+02 0.12462524E+03 0.12763400E+03 0.21291817E+03 0.80419002E+02 0.0000E+00 0.9000E+01
      -13  1    3    3    0    0 -.33797547E+02 -.65857665E+02 -.66330895E+02 0.99394693E+02 0.10565837E+00 0.0000E+00 0.9000E+01
       13  1    3    3    0    0 0.18146701E+02 -.41452972E+02 -.18329511E+03 0.18879820E+03 0.10565837E+00 0.0000E+00 0.9000E+01
      -24  1    1    2    0    0 0.99585602E+02 -.17314602E+02 0.36170958E+03 0.38408088E+03 0.80419002E+02 0.0000E+00 0.9000E+01
#aMCatNLO 1  0  0  1  2 0.57012360D+02 0.00000000D+00  -5  7  0 0.00000000D+00 0.00000000D+00 0.00000000D+00 0.00000000D+00 0.00000000D+00
  <mgrwgt>
 0.1032527473D-02    9    2    0
 0.426057585802307D+03 0.000000000000000D+00 0.000000000000000D+00 0.426057585802307D+03
 0.426057585802307D+03 0.000000000000000D+00 0.000000000000000D+00 -.426057585802307D+03
 0.185276898639793D+03 -.839345739076439D+02 0.124625102347072D+03 0.726903321159953D+02
 0.121913072641747D+03 -.337976136467530D+02 -.658577134897091D+02 -.968673328147532D+02
 0.247691806819519D+03 0.181467589654643D+02 -.414529808998822D+02 -.243523256957280D+03
 0.297233393503554D+03 0.995854285889326D+02 -.173144079574810D+02 0.267700257656037D+03
 0.000000000000000D+00 0.000000000000000D+00 -.000000000000000D+00 0.000000000000000D+00
 0.464181014811948D+03 0.000000000000000D+00 0.000000000000000D+00 0.464181014811948D+03
 0.448871420878951D+03 0.000000000000000D+00 0.000000000000000D+00 -.448871420878951D+03
 0.195178280931780D+03 -.871486343538096D+02 0.136925441537526D+03 0.726903321159953D+02
 0.118494122610088D+03 -.358285578912306D+02 -.580852078065084D+02 -.968673328147532D+02
 0.245255244819603D+03 0.139823745496405D+02 -.255157134800425D+02 -.243523256957280D+03
 0.295092652867651D+03 0.945814969325960D+02 0.183584067341091D+01 0.267700257656037D+03
 0.590321344617766D+02 0.144133207628036D+02 -.551603609243861D+02 0.153095939329972D+02
0.245788379519D-04 0.000000000000D+00 0.000000000000D+00 0.281934999412D-09 0.000000000000D+00  7 2 -2 24 -13 13 -24 21 0 0.86531501D-01 0.49651875D-01 0.43861828D+05 0.43861828D+05 0.43861828D+05 0.11523327D+01  1  2  2  1  7  1        2 0.641864934181D-03 0.100000000000D+01
-.528153206253D-06 0.000000000000D+00 -.943892094919D-07 0.281934999412D-09 0.000000000000D+00  7 2 -2 24 -13 13 -24 21 2 0.86531501D-01 0.49651875D-01 0.43861828D+05 0.43861828D+05 0.43861828D+05 0.11523327D+01  1  2  3  1  7  1        2 -.183146228864D-04 0.100000000000D+01
0.148566472576D-05 0.000000000000D+00 0.000000000000D+00 0.281934999412D-09 0.000000000000D+00  7 2 -2 24 -13 13 -24 21 2 0.86531501D-01 0.49651875D-01 0.43861828D+05 0.43861828D+05 0.43861828D+05 0.11523327D+01  1  2 15  1  7  1        2 0.515179854363D-04 0.100000000000D+01
0.405839050301D-04 0.000000000000D+00 0.000000000000D+00 0.281934999412D-09 0.000000000000D+00  7 2 -2 24 -13 13 -24 21 2 0.96423445D-01 0.49651875D-01 0.52820412D+05 0.52820412D+05 0.52820412D+05 0.11452050D+01  1  2 12  1  7  1        2 0.122535203069D-02 0.100000000000D+01
-.388806518110D-04 0.000000000000D+00 0.000000000000D+00 0.281934999412D-09 0.000000000000D+00  7 2 -2 24 -13 13 -24 21 2 0.86531501D-01 0.49651875D-01 0.43861828D+05 0.43861828D+05 0.43861828D+05 0.11523327D+01  1  2  4  1  7  1        2 -.134825362616D-02 0.100000000000D+01
-.904892943375D-04 0.000000000000D+00 -.271767016580D-04 0.281934999412D-09 0.000000000000D+00  7 2 -2 24 -13 13 -24 21 2 0.98229172D-01 0.49651875D-01 0.43861828D+05 0.43861828D+05 0.43861828D+05 0.11523327D+01  1  2  5  1  7  1        2 -.271698530524D-02 0.100000000000D+01
0.934003607451D-04 0.000000000000D+00 0.269596969658D-04 0.281934999412D-09 0.000000000000D+00  7 2 -2 24 -13 13 -24 21 2 0.86531501D-01 0.49651875D-01 0.43861828D+05 0.43861828D+05 0.43861828D+05 0.11523327D+01  1  2  6  1  7  1        2 0.323881851753D-02 0.100000000000D+01
0.705578318817D-06 0.000000000000D+00 0.000000000000D+00 0.281934999412D-09 0.000000000000D+00  7 21 -2 24 -13 13 -24 -2 2 0.96423445D-01 0.49651875D-01 0.52820412D+05 0.52820412D+05 0.52820412D+05 0.11452050D+01  1  2 12  3  7  1        2 0.319261511755D-04 0.100000000000D+01
-.165887634530D-05 0.000000000000D+00 -.539975330160D-06 0.281934999412D-09 0.000000000000D+00  7 21 -2 24 -13 13 -24 -2 2 0.98229172D-01 0.49651875D-01 0.43861828D+05 0.43861828D+05 0.43861828D+05 0.11523327D+01  1  2  5  3  7  1        2 -.733985921436D-04 0.100000000000D+01
  </mgrwgt>
  </event>
  <event>
  8     66 0.26993063E-05 0.10819188E+03 0.75467711E-02 0.96187374E-01
        2 -1    0    0  501    0 0.00000000E+00 0.00000000E+00 0.11532074E+04 0.11532074E+04 0.32000000E+00 0.0000E+00 0.9000E+01
       -2 -1    0    0    0  501 0.00000000E+00 0.00000000E+00 -.15825276E+03 0.15825308E+03 0.32000000E+00 0.0000E+00 0.9000E+01
       25  2    1    2    0    0 0.13202040E+03 0.21108141E+03 0.97011518E+03 0.10457179E+04 0.30069525E+03 0.0000E+00 0.0000E+00
       23  2    1    2    0    0 -.13202040E+03 -.21108141E+03 0.24839460E+02 0.26574267E+03 0.89540037E+02 0.0000E+00 0.0000E+00
       24  1    3    3    0    0 -.32666636E+02 0.18067753E+03 0.42698521E+03 0.47169382E+03 0.80419002E+02 0.0000E+00 0.9000E+01
      -11  1    4    4    0    0 -.47604654E+02 -.13990166E+03 -.14581579E+02 0.14849680E+03 0.51099893E-03 0.0000E+00 0.9000E+01
       11  1    4    4    0    0 -.84415745E+02 -.71179755E+02 0.39421039E+02 0.11724587E+03 0.51099893E-03 0.0000E+00 0.9000E+01
      -24  1    3    3    0    0 0.16468704E+03 0.30403884E+02 0.54312997E+03 0.57402404E+03 0.80419002E+02 0.0000E+00 0.9000E+01
#aMCatNLO 1  0  0  1  2 0.19118290D+03 0.00000000D+00  -5  7  0 0.00000000D+00 0.00000000D+00 0.00000000D+00 0.00000000D+00 0.00000000D+00
  <mgrwgt>
 0.6448799338D-03    9    2    0
 0.427198427316068D+03 0.000000000000000D+00 0.000000000000000D+00 0.427198427316068D+03
 0.427198427316068D+03 0.000000000000000D+00 0.000000000000000D+00 -.427198427316068D+03
 0.226799660429548D+03 -.326666359235084D+02 0.180677528123614D+03 0.106110281053107D+03
 0.244916280392359D+03 -.476046542603987D+02 -.139901656939601D+03 -.195308237613089D+03
 0.134060868091618D+03 -.844157448420851D+02 -.711797548167392D+02 -.760246070720737D+02
 0.248620045718610D+03 0.164687035025992D+03 0.304038836327260D+02 0.165222563632056D+03
 0.000000000000000D+00 -.000000000000000D+00 0.000000000000000D+00 0.000000000000000D+00
 0.654347856347317D+03 0.000000000000000D+00 0.000000000000000D+00 0.654347856347317D+03
 0.479952746133367D+03 0.000000000000000D+00 0.000000000000000D+00 -.479952746133367D+03
 0.191473515119775D+03 -.283530696379641D+02 0.134653639887259D+03 0.106110281053107D+03
 0.281147174568841D+03 -.421794687213131D+02 -.197786042244894D+03 -.195308237613089D+03
 0.151471385758872D+03 -.814711087151630D+02 -.102597749819242D+03 -.760246070720737D+02
 0.251433417170163D+03 0.169843984800871D+03 -.246185419817553D+02 0.165222563632056D+03
 0.258775109863034D+03 -.178403377264304D+02 0.190348694158633D+03 0.174395110213949D+03
0.190332763294D-04 0.000000000000D+00 0.000000000000D+00 0.526380772007D-06 0.000000000000D+00  7 2 -2 24 -11 11 -24 21 0 0.17741655D+00 0.24346607D-01 0.10382034D+06 0.10382034D+06 0.10382034D+06 0.11203883D+01  1  2  2  1  7  1        2 0.708384920073D-03 0.100000000000D+01
-.955135257914D-06 0.000000000000D+00 -.730927926815D-07 0.526380772007D-06 0.000000000000D+00  7 2 -2 24 -11 11 -24 21 2 0.17741655D+00 0.24346607D-01 0.10382034D+06 0.10382034D+06 0.10382034D+06 0.11203883D+01  1  2  3  1  7  1        2 -.446228988512D-04 0.100000000000D+01
0.120918756170D-05 0.000000000000D+00 0.000000000000D+00 0.526380772007D-06 0.000000000000D+00  7 2 -2 24 -11 11 -24 21 2 0.17741655D+00 0.24346607D-01 0.10382034D+06 0.10382034D+06 0.10382034D+06 0.11203883D+01  1  2 15  1  7  1        2 0.564919510727D-04 0.100000000000D+01
0.663108033077D-05 0.000000000000D+00 0.000000000000D+00 0.526380772007D-06 0.000000000000D+00  7 2 -2 24 -11 11 -24 21 2 0.27799536D+00 0.24346607D-01 0.19067897D+06 0.19067897D+06 0.19067897D+06 0.10994208D+01  1  2 12  1  7  1        2 0.128434799738D-03 0.100000000000D+01
-.156734949506D-04 0.000000000000D+00 0.000000000000D+00 0.526380772007D-06 0.000000000000D+00  7 2 -2 24 -11 11 -24 21 2 0.17741655D+00 0.24346607D-01 0.10382034D+06 0.10382034D+06 0.10382034D+06 0.11203883D+01  1  2  4  1  7  1        2 -.732248939646D-03 0.100000000000D+01
-.163923795431D-04 0.000000000000D+00 -.659185766314D-05 0.526380772007D-06 0.000000000000D+00  7 2 -2 24 -11 11 -24 21 2 0.28563697D+00 0.24346607D-01 0.10382034D+06 0.10382034D+06 0.10382034D+06 0.11203883D+01  1  2  5  1  7  1        2 -.316914983773D-03 0.100000000000D+01
0.181204977043D-04 0.000000000000D+00 0.590905123652D-05 0.526380772007D-06 0.000000000000D+00  7 2 -2 24 -11 11 -24 21 2 0.17741655D+00 0.24346607D-01 0.10382034D+06 0.10382034D+06 0.10382034D+06 0.11203883D+01  1  2  6  1  7  1        2 0.846570294094D-03 0.100000000000D+01
0.344065004296D-06 0.000000000000D+00 0.000000000000D+00 0.526380772007D-06 0.000000000000D+00  7 21 -2 24 -11 11 -24 -2 2 0.27799536D+00 0.24346607D-01 0.19067897D+06 0.19067897D+06 0.19067897D+06 0.10994208D+01  1  2 12  3  7  1        2 0.167100256496D-05 0.100000000000D+01
-.608596478625D-06 0.000000000000D+00 -.357743112758D-06 0.526380772007D-06 0.000000000000D+00  7 21 -2 24 -11 11 -24 -2 2 0.28563697D+00 0.24346607D-01 0.10382034D+06 0.10382034D+06 0.10382034D+06 0.11203883D+01  1  2  5  3  7  1        2 -.288621145961D-05 0.100000000000D+01
  </mgrwgt>
  </event>
  <event>
  8     66 0.26993063E-05 0.44954934E+03 0.75467711E-02 0.91015686E-01
        2 -1    0    0  501    0 0.00000000E+00 0.00000000E+00 0.12855177E+04 0.12855177E+04 0.32000000E+00 0.0000E+00 0.9000E+01
       -2 -1    0    0    0  501 0.00000000E+00 0.00000000E+00 -.41472472E+03 0.41472485E+03 0.32000000E+00 0.0000E+00 0.9000E+01
       25  2    1    2    0    0 0.20769299E+03 0.35574812E+03 -.20028995E+03 0.54809646E+03 0.30099926E+03 0.0000E+00 0.0000E+00
       23  2    1    2    0    0 -.20769299E+03 -.35574812E+03 0.10710829E+04 0.11521461E+04 0.10261067E+03 0.0000E+00 0.0000E+00
       24  1    3    3    0    0 0.15266210E+02 0.13375551E+02 0.27037339E+02 0.87236438E+02 0.80419002E+02 0.0000E+00 0.9000E+01
      -11  1    4    4    0    0 -.87082192E+01 -.48052835E+02 0.64228735E+02 0.80686049E+02 0.51099893E-03 0.0000E+00 0.9000E+01
       11  1    4    4    0    0 -.19898477E+03 -.30769529E+03 0.10068542E+04 0.10714601E+04 0.51099893E-03 0.0000E+00 0.9000E+01
      -24  1    3    3    0    0 0.19242678E+03 0.34237257E+03 -.22732729E+03 0.46086002E+03 0.80419002E+02 0.0000E+00 0.9000E+01
#aMCatNLO 1  0  0  1  2 0.41442122D+03 0.00000000D+00  -5  7  0 0.00000000D+00 0.00000000D+00 0.00000000D+00 0.00000000D+00 0.00000000D+00
  <mgrwgt>
 0.1095882812D-02    4    2    0
 0.730161693287910D+03 0.000000000000000D+00 0.000000000000000D+00 0.730161693287910D+03
 0.730161693287910D+03 0.000000000000000D+00 0.000000000000000D+00 -.730161693287910D+03
 0.854462662962155D+02 0.152662102838109D+02 0.133755506863907D+02 -.205398621465559D+02
 0.556424178795161D+02 -.870821916939885D+01 -.480528353259628D+02 0.266677821258598D+02
 0.647103564528122D+03 -.198984768750531D+03 -.307695288749049D+03 0.533358879472292D+03
 0.672131137871966D+03 0.192426777636119D+03 0.342372573388621D+03 -.539486799451596D+03
 0.000000000000000D+00 -.000000000000000D+00 0.000000000000000D+00 -.000000000000000D+00
 0.874963407945842D+03 0.000000000000000D+00 0.000000000000000D+00 0.874963407945842D+03
 0.112923283192618D+04 0.000000000000000D+00 0.000000000000000D+00 -.112923283192618D+04
 0.927352150231095D+02 0.399255227013972D+02 0.108014281941112D+02 -.205398621465559D+02
 0.567975131065235D+02 0.685283333654347D+01 -.496772137587742D+02 0.266677821258598D+02
 0.625558044382716D+03 -.228555774135367D+02 -.326080964119470D+03 0.533358879472292D+03
 0.742897810710088D+03 0.388258806108705D+03 0.321930169291397D+03 -.539486799451596D+03
 0.486207656649589D+03 -.412181584733109D+03 0.430265803927364D+02 -.254269423980343D+03
0.258801394397D-03 0.000000000000D+00 0.000000000000D+00 0.717033296630D-07 0.000000000000D+00  7 2 -2 24 -11 11 -24 21 0 0.19777196D+00 0.63803816D-01 0.20209461D+06 0.20209461D+06 0.20209461D+06 0.10974780D+01  1  2  2  1  7  1        2 0.130291904781D-02 0.100000000000D+01
-.102654529793D-04 0.000000000000D+00 -.993865498458D-06 0.717033296630D-07 0.000000000000D+00  7 2 -2 24 -11 11 -24 21 2 0.19777196D+00 0.63803816D-01 0.20209461D+06 0.20209461D+06 0.20209461D+06 0.10974780D+01  1  2  3  1  7  1        2 -.622473142046D-04 0.100000000000D+01
0.155524640349D-04 0.000000000000D+00 0.000000000000D+00 0.717033296630D-07 0.000000000000D+00  7 2 -2 24 -11 11 -24 21 2 0.19777196D+00 0.63803816D-01 0.20209461D+06 0.20209461D+06 0.20209461D+06 0.10974780D+01  1  2 15  1  7  1        2 0.943065169543D-04 0.100000000000D+01
-.394301828146D-04 0.000000000000D+00 0.000000000000D+00 0.717033296630D-07 0.000000000000D+00  7 2 -2 24 -11 11 -24 21 2 0.19777196D+00 0.63803816D-01 0.20209461D+06 0.20209461D+06 0.20209461D+06 0.10974780D+01  1  2  4  1  7  1        2 -.239095438239D-03 0.100000000000D+01
  </mgrwgt>
  </event>
  <event>
  8     66 0.26993063E-05 0.17356595E+03 0.75467711E-02 0.91312261E-01
        2 -1    0    0  501    0 0.00000000E+00 0.00000000E+00 0.18806773E+04 0.18806774E+04 0.32000000E+00 0.0000E+00 0.9000E+01
       -2 -1    0    0    0  501 0.00000000E+00 0.00000000E+00 -.27953339E+02 0.27955170E+02 0.32000000E+00 0.0000E+00 0.9000E+01
       25  2    1    2    0    0 0.56640543E+02 -.19944926E+02 0.90013235E+03 0.95076045E+03 0.30016866E+03 0.0000E+00 0.0000E+00
       23  2    1    2    0    0 -.56640543E+02 0.19944926E+02 0.95259165E+03 0.95787209E+03 0.80511740E+02 0.0000E+00 0.0000E+00
       24  1    3    3    0    0 0.23149325E+02 0.80102085E+02 0.70717725E+03 0.71660248E+03 0.80419002E+02 0.0000E+00 0.9000E+01
      -13  1    4    4    0    0 -.20805048E+02 -.30398087E+02 0.27243402E+03 0.27491308E+03 0.10565837E+00 0.0000E+00 0.9000E+01
       13  1    4    4    0    0 -.35835496E+02 0.50343013E+02 0.68015763E+03 0.68295902E+03 0.10565837E+00 0.0000E+00 0.9000E+01
      -24  1    3    3    0    0 0.33491218E+02 -.10004701E+03 0.19295510E+03 0.23415796E+03 0.80419002E+02 0.0000E+00 0.9000E+01
#aMCatNLO 1  0  0  2  1 0.63907595D+03 0.00000000D+00  -5  7  0 0.00000000D+00 0.00000000D+00 0.00000000D+00 0.00000000D+00 0.00000000D+00
  <mgrwgt>
 0.9521555624D-02    3    2    0
 0.229287995130315D+03 0.000000000000000D+00 0.000000000000000D+00 0.229287995130315D+03
 0.229287995130315D+03 0.000000000000000D+00 0.000000000000000D+00 -.229287995130315D+03
 0.125446038879210D+03 0.231493380117859D+02 0.801020808983448D+02 0.481379008836585D+02
 0.435324678003188D+02 -.208050274855647D+02 -.303981633781154D+02 0.231986690857061D+02
 0.945829540012628D+02 -.358355487188237D+02 0.503431004874485D+02 0.716053131334293D+02
 0.195014529579838D+03 0.334912381926024D+02 -.100047018007678D+03 -.142941883102794D+03
 0.000000000000000D+00 0.000000000000000D+00 -.000000000000000D+00 0.000000000000000D+00
 0.741338976972005D+03 0.000000000000000D+00 0.000000000000000D+00 0.741338976972005D+03
 0.686653615418766D+03 0.000000000000000D+00 0.000000000000000D+00 -.686653615418766D+03
 0.247649176163676D+03 -.138624040680356D+03 0.182562362890446D+03 0.481379008836585D+02
 0.764972872279747D+02 -.728497019590369D+02 0.256468913723556D+01 0.231986690857061D+02
 0.241965199247735D+03 -.181762190628270D+03 0.142766742752197D+03 0.716053131334293D+02
 0.220469551426002D+03 -.146661872507003D+03 0.140541936580737D+02 -.142941883102794D+03
 0.641411378325384D+03 0.539897805774666D+03 -.341947988437953D+03 0.546853615532394D+02
0.416568754322D-04 0.000000000000D+00 0.000000000000D+00 0.648163201792D-08 0.000000000000D+00  7 2 -2 24 -13 13 -24 21 0 0.28933512D+00 0.43006566D-02 0.30125141D+05 0.30125141D+05 0.30125141D+05 0.11671682D+01  1  2  2  2  7  2       -2 0.937022008799D-02 0.100000000000D+01
-.209614850136D-05 0.000000000000D+00 -.159973370167D-06 0.648163201792D-08 0.000000000000D+00  7 2 -2 24 -13 13 -24 21 2 0.28933512D+00 0.43006566D-02 0.30125141D+05 0.30125141D+05 0.30125141D+05 0.11671682D+01  1  2  3  2  7  2       -2 -.642320904485D-03 0.100000000000D+01
0.259001652587D-05 0.000000000000D+00 0.000000000000D+00 0.648163201792D-08 0.000000000000D+00  7 2 -2 24 -13 13 -24 21 2 0.28933512D+00 0.43006566D-02 0.30125141D+05 0.30125141D+05 0.30125141D+05 0.11671682D+01  1  2 15  2  7  2       -2 0.793656440109D-03 0.100000000000D+01
  </mgrwgt>
  </event>
  <event>
  8     66 0.26993063E-05 0.12477329E+03 0.75467711E-02 0.95854389E-01
        2 -1    0    0  501    0 0.00000000E+00 0.00000000E+00 0.16809215E+04 0.16809215E+04 0.32000000E+00 0.0000E+00 0.9000E+01
       -2 -1    0    0    0  501 0.00000000E+00 0.00000000E+00 -.34104675E+02 0.34106177E+02 0.32000000E+00 0.0000E+00 0.9000E+01
       25  2    1    2    0    0 -.39823038E+02 -.33296207E+02 0.71012795E+03 0.77251082E+03 0.29966106E+03 0.0000E+00 0.0000E+00
       23  2    1    2    0    0 0.39823038E+02 0.33296207E+02 0.93668884E+03 0.94251686E+03 0.90870906E+02 0.0000E+00 0.0000E+00
       24  1    3    3    0    0 0.14739224E+02 -.32464102E+00 0.33847656E+02 0.88488586E+02 0.80419002E+02 0.0000E+00 0.9000E+01
      -11  1    4    4    0    0 0.26839281E+02 0.41777932E+02 0.91206769E+03 0.91341843E+03 0.51099893E-03 0.0000E+00 0.9000E+01
       11  1    4    4    0    0 0.12983757E+02 -.84817250E+01 0.24621151E+02 0.29098431E+02 0.51099893E-03 0.0000E+00 0.9000E+01
      -24  1    3    3    0    0 -.54562263E+02 -.32971566E+02 0.67628030E+03 0.68402224E+03 0.80419002E+02 0.0000E+00 0.9000E+01
#aMCatNLO 1  0  0  1  1 0.40780422D+03 0.00000000D+00  -5  7  0 0.00000000D+00 0.00000000D+00 0.00000000D+00 0.00000000D+00 0.00000000D+00
  <mgrwgt>
 0.9295004740D-03    3    2    0
 0.239433904745770D+03 0.000000000000000D+00 0.000000000000000D+00 0.239433904745770D+03
 0.239433904745770D+03 0.000000000000000D+00 0.000000000000000D+00 -.239433904745770D+03
 0.200513554844423D+03 0.147392244888163D+02 -.324641024075838D+00 -.183087737414745D+03
 0.134754276731612D+03 0.268392810914615D+02 0.417779322993867D+02 0.125271594788050D+03
 0.195421144013645D+02 0.129837572020488D+02 -.848172503900338D+01 -.118901902658034D+02
 0.124057863514141D+03 -.545622627823265D+02 -.329715662363075D+02 0.697063328924985D+02
 0.000000000000000D+00 -.000000000000000D+00 -.000000000000000D+00 -.000000000000000D+00
 0.465515390486054D+03 0.000000000000000D+00 0.000000000000000D+00 0.465515390486054D+03
 0.589785091883335D+03 0.000000000000000D+00 0.000000000000000D+00 -.589785091883335D+03
 0.274757939241254D+03 0.175008448756087D+03 0.698257294560362D+02 -.183087737414745D+03
 0.212201148238423D+03 0.143838254325157D+03 0.929887705352374D+02 0.125271594788050D+03
 0.329010478586608D+02 0.306684385644486D+02 -.741081412213073D+00 -.118901902658034D+02
 0.109122107420765D+03 0.240697896791770D+02 0.144594365684130D+01 0.697063328924985D+02
 0.426318239610286D+03 -.373584931324870D+03 -.163519362235902D+03 -.124269701397282D+03
0.414602422297D-05 0.000000000000D+00 0.000000000000D+00 0.721989198972D-06 0.000000000000D+00  7 2 -2 24 -11 11 -24 21 0 0.25860342D+00 0.52469910D-02 0.15568375D+05 0.15568375D+05 0.15568375D+05 0.11947279D+01  1  2  2  1  7  1        2 0.884407314357D-03 0.100000000000D+01
-.111363566960D-06 0.000000000000D+00 -.159218246895D-07 0.721989198972D-06 0.000000000000D+00  7 2 -2 24 -11 11 -24 21 2 0.25860342D+00 0.52469910D-02 0.15568375D+05 0.15568375D+05 0.15568375D+05 0.11947279D+01  1  2  3  1  7  1        2 -.339079593137D-04 0.100000000000D+01
0.259462574036D-06 0.000000000000D+00 0.000000000000D+00 0.721989198972D-06 0.000000000000D+00  7 2 -2 24 -11 11 -24 21 2 0.25860342D+00 0.52469910D-02 0.15568375D+05 0.15568375D+05 0.15568375D+05 0.11947279D+01  1  2 15  1  7  1        2 0.790011189839D-04 0.100000000000D+01
  </mgrwgt>
  </event>
  <event>
  8     66 0.26993063E-05 0.13294954E+03 0.75467711E-02 0.96648140E-01
        2 -1    0    0  501    0 0.00000000E+00 0.00000000E+00 0.38987108E+03 0.38987121E+03 0.32000000E+00 0.0000E+00 0.9000E+01
       -2 -1    0    0    0  501 0.00000000E+00 0.00000000E+00 -.23534397E+03 0.23534418E+03 0.32000000E+00 0.0000E+00 0.9000E+01
       25  2    1    2    0    0 -.18260932E+03 0.11240869E+03 0.62370666E+02 0.37454639E+03 0.30068758E+03 0.0000E+00 0.0000E+00
       23  2    1    2    0    0 0.18260932E+03 -.11240869E+03 0.92156449E+02 0.25066900E+03 0.91434448E+02 0.0000E+00 0.0000E+00
       24  1    3    3    0    0 -.10193272E+03 0.19078425E+03 0.32011930E+02 0.23298259E+03 0.80419002E+02 0.0000E+00 0.9000E+01
      -13  1    4    4    0    0 0.28922156E+02 -.60053286E+02 0.61568365E+01 0.66938824E+02 0.10565837E+00 0.0000E+00 0.9000E+01
       13  1    4    4    0    0 0.15368717E+03 -.52355407E+02 0.85999613E+02 0.18373018E+03 0.10565837E+00 0.0000E+00 0.9000E+01
      -24  1    3    3    0    0 -.80676596E+02 -.78375554E+02 0.30358735E+02 0.14156380E+03 0.80419002E+02 0.0000E+00 0.9000E+01
#aMCatNLO 1  0  0  1  2 0.20653135D+03 0.00000000D+00  -5  7  0 0.00000000D+00 0.00000000D+00 0.00000000D+00 0.00000000D+00 0.00000000D+00
  <mgrwgt>
 0.3041553175D-03    7    2    0
 0.302909087073248D+03 0.000000000000000D+00 0.000000000000000D+00 0.302909087073248D+03
 0.302909087073248D+03 0.000000000000000D+00 0.000000000000000D+00 -.302909087073248D+03
 0.232276942667632D+03 -.101932725090065D+03 0.190784247617826D+03 -.263903875921669D+02
 0.675115163011928D+02 0.289219899138484D+02 -.600532960091876D+02 -.107203064854675D+02
 0.167676950629561D+03 0.153687331644253D+03 -.523553976338289D+02 0.418888553567809D+02
 0.138352764548110D+03 -.806765964680359D+02 -.783755539748099D+02 -.477816127914651D+01
 0.000000000000000D+00 -.000000000000000D+00 0.000000000000000D+00 0.000000000000000D+00
 0.841024489614156D+03 0.000000000000000D+00 0.000000000000000D+00 0.841024489614156D+03
 0.340495749633962D+03 0.000000000000000D+00 0.000000000000000D+00 -.340495749633962D+03
 0.171873147913710D+03 -.659808477552867D+02 0.134250654343382D+03 -.263903875921669D+02
 0.938934423446865D+02 0.432800499754328D+02 -.826310523853874D+02 -.107203064854675D+02
 0.220329832651204D+03 0.188203152876673D+03 -.106630821999484D+03 0.418888553567809D+02
 0.153958933778769D+03 -.546734986915338D+02 -.119264894464139D+03 -.477816127914651D+01
 0.541464882559749D+03 -.110828856405286D+03 0.174276114505628D+03 0.500528739980193D+03
0.682875817733D-05 0.000000000000D+00 0.000000000000D+00 0.357700081846D-06 0.000000000000D+00  7 2 -2 24 -13 13 -24 21 0 0.59980193D-01 0.36206791D-01 0.89418462D+05 0.89418462D+05 0.89418462D+05 0.11257299D+01  1  2  2  1  7  1        2 0.479384805731D-03 0.100000000000D+01
-.379298796386D-06 0.000000000000D+00 -.262242294543D-07 0.357700081846D-06 0.000000000000D+00  7 2 -2 24 -13 13 -24 21 2 0.59980193D-01 0.36206791D-01 0.89418462D+05 0.89418462D+05 0.89418462D+05 0.11257299D+01  1  2  3  1  7  1        2 -.337436782837D-04 0.100000000000D+01
0.436490695517D-06 0.000000000000D+00 0.000000000000D+00 0.357700081846D-06 0.000000000000D+00  7 2 -2 24 -13 13 -24 21 2 0.59980193D-01 0.36206791D-01 0.89418462D+05 0.89418462D+05 0.89418462D+05 0.11257299D+01  1  2 15  1  7  1        2 0.388316592188D-04 0.100000000000D+01
0.263497151213D-05 0.000000000000D+00 0.000000000000D+00 0.357700081846D-06 0.000000000000D+00  7 2 -2 24 -13 13 -24 21 2 0.16306524D+00 0.36206791D-01 0.17633357D+06 0.17633357D+06 0.17633357D+06 0.11020510D+01  1  2 12  1  7  1        2 0.663703500269D-04 0.100000000000D+01
-.982149798933D-05 0.000000000000D+00 -.227746830802D-05 0.357700081846D-06 0.000000000000D+00  7 2 -2 24 -13 13 -24 21 2 0.17522747D+00 0.36206791D-01 0.89418462D+05 0.89418462D+05 0.89418462D+05 0.11257299D+01  1  2  5  1  7  1        2 -.236109304467D-03 0.100000000000D+01
0.294330298348D-06 0.000000000000D+00 0.000000000000D+00 0.357700081846D-06 0.000000000000D+00  7 21 -2 24 -13 13 -24 -2 2 0.16306524D+00 0.36206791D-01 0.17633357D+06 0.17633357D+06 0.17633357D+06 0.11020510D+01  1  2 12  3  7  1        2 0.481731284709D-05 0.100000000000D+01
-.107263343702D-05 0.000000000000D+00 -.276407657946D-06 0.357700081846D-06 0.000000000000D+00  7 21 -2 24 -13 13 -24 -2 2 0.17522747D+00 0.36206791D-01 0.89418462D+05 0.89418462D+05 0.89418462D+05 0.11257299D+01  1  2  5  3  7  1        2 -.153958275902D-04 0.100000000000D+01
  </mgrwgt>
  </event>
  <event>
  8     66 0.26993063E-05 0.70392514E+03 0.75467711E-02 0.85528721E-01
        2 -1    0    0  501    0 0.00000000E+00 0.00000000E+00 0.13958889E+04 0.13958890E+04 0.32000000E+00 0.0000E+00 0.9000E+01
       -2 -1    0    0    0  501 0.00000000E+00 0.00000000E+00 -.36780810E+03 0.36780824E+03 0.32000000E+00 0.0000E+00 0.9000E+01
       25  2    1    2    0    0 0.41558823E+03 -.53549331E+03 0.44879456E+03 0.86741153E+03 0.30252198E+03 0.0000E+00 0.0000E+00
       23  2    1    2    0    0 -.41558823E+03 0.53549331E+03 0.57928626E+03 0.89628567E+03 0.91042656E+02 0.0000E+00 0.0000E+00
       24  1    3    3    0    0 0.39903114E+03 -.41156885E+03 0.28171922E+03 0.64377613E+03 0.80419002E+02 0.0000E+00 0.9000E+01
      -13  1    4    4    0    0 -.12158983E+03 0.20179925E+03 0.15785083E+03 0.28359111E+03 0.10565837E+00 0.0000E+00 0.9000E+01
       13  1    4    4    0    0 -.29399840E+03 0.33369406E+03 0.42143543E+03 0.61269455E+03 0.10565837E+00 0.0000E+00 0.9000E+01
      -24  1    3    3    0    0 0.16557087E+02 -.12392446E+03 0.16707533E+03 0.22363540E+03 0.80419002E+02 0.0000E+00 0.9000E+01
#aMCatNLO 1  0  0  2  2 0.80985643D+03 0.00000000D+00  -5  7  0 0.00000000D+00 0.00000000D+00 0.00000000D+00 0.00000000D+00 0.00000000D+00
  <mgrwgt>
 0.1083723078D-02    3    2    0
 0.716532908395426D+03 0.000000000000000D+00 0.000000000000000D+00 0.716532908395426D+03
 0.716532908395426D+03 0.000000000000000D+00 0.000000000000000D+00 -.716532908395426D+03
 0.590200409685649D+03 0.399031140224898D+03 -.411568854605774D+03 -.115128340073359D+03
 0.235777738535660D+03 -.121589593933719D+03 0.201799068672330D+03 -.917869919998238D+01
 0.451715755416416D+03 -.293998632969557D+03 0.333694241218526D+03 0.791206729056775D+02
 0.155371913153127D+03 0.165570866783777D+02 -.123924455285082D+03 0.451863663676635D+02
 0.000000000000000D+00 -.000000000000000D+00 0.000000000000000D+00 0.000000000000000D+00
 0.200537321676047D+04 0.000000000000000D+00 0.000000000000000D+00 0.200537321676047D+04
 0.961714932883830D+03 0.000000000000000D+00 0.000000000000000D+00 -.961714932883830D+03
 0.987245887230001D+03 0.763303063346586D+03 -.610164834037370D+03 -.115128340073359D+03
 0.155904943235131D+03 -.311402366268594D+02 0.152487338716921D+03 -.917869919998238D+01
 0.282715507529908D+03 -.124400029785887D+03 0.241231444687704D+03 0.791206729056775D+02
 0.220203245525886D+03 0.103286812816277D+03 -.171208294128835D+03 0.451863663676635D+02
 0.132101856612338D+04 -.711049609750117D+03 0.387654344761580D+03 0.104365828387664D+04
0.199065945123D-03 0.000000000000D+00 0.000000000000D+00 0.422957553470D-06 0.000000000000D+00  7 2 -2 24 -13 13 -24 21 0 0.21475216D+00 0.56585875D-01 0.49551061D+06 0.49551061D+06 0.49551061D+06 0.10687873D+01  1  2  2  2  7  2       -2 0.107272208195D-02 0.100000000000D+01
-.110549816894D-04 0.000000000000D+00 -.764465644539D-06 0.422957553470D-06 0.000000000000D+00  7 2 -2 24 -13 13 -24 21 2 0.21475216D+00 0.56585875D-01 0.49551061D+06 0.49551061D+06 0.49551061D+06 0.10687873D+01  1  2  3  2  7  2       -2 -.680504311635D-04 0.100000000000D+01
0.128421241530D-04 0.000000000000D+00 0.000000000000D+00 0.422957553470D-06 0.000000000000D+00  7 2 -2 24 -13 13 -24 21 2 0.21475216D+00 0.56585875D-01 0.49551061D+06 0.49551061D+06 0.49551061D+06 0.10687873D+01  1  2 15  2  7  2       -2 0.790514276936D-04 0.100000000000D+01
  </mgrwgt>
  </event>
  <event>
  8     66 0.26993063E-05 0.22711655E+03 0.75467711E-02 0.10266289E+00
        2 -1    0    0  501    0 0.00000000E+00 0.00000000E+00 0.37505013E+03 0.37505027E+03 0.32000000E+00 0.0000E+00 0.9000E+01
       -2 -1    0    0    0  501 0.00000000E+00 0.00000000E+00 -.16348698E+03 0.16348730E+03 0.32000000E+00 0.0000E+00 0.9000E+01
       25  2    1    2    0    0 0.76940530E+02 -.10033901E+03 0.82186085E+02 0.33616236E+03 0.30043771E+03 0.0000E+00 0.0000E+00
       23  2    1    2    0    0 -.76940530E+02 0.10033901E+03 0.12937707E+03 0.20237521E+03 0.90716789E+02 0.0000E+00 0.0000E+00
       24  1    3    3    0    0 0.11808000E+03 0.27344886E+02 0.10320387E+03 0.17835045E+03 0.80419002E+02 0.0000E+00 0.9000E+01
      -13  1    4    4    0    0 -.67013106E+02 0.11591900E+03 0.97868511E+02 0.16585001E+03 0.10565837E+00 0.0000E+00 0.9000E+01
       13  1    4    4    0    0 -.99274233E+01 -.15579982E+02 0.31508555E+02 0.36525193E+02 0.10565837E+00 0.0000E+00 0.9000E+01
      -24  1    3    3    0    0 -.41139474E+02 -.12768390E+03 -.21017782E+02 0.15781191E+03 0.80419002E+02 0.0000E+00 0.9000E+01
#aMCatNLO 1  0  0  2  1 0.61273359D+02 0.00000000D+00  -5  7  0 0.00000000D+00 0.00000000D+00 0.00000000D+00 0.00000000D+00 0.00000000D+00
  <mgrwgt>
 0.3721808933D-03    4    2    0
 0.247620547248635D+03 0.000000000000000D+00 0.000000000000000D+00 0.247620547248635D+03
 0.247620547248635D+03 0.000000000000000D+00 0.000000000000000D+00 -.247620547248635D+03
 0.149854857782205D+03 0.118080005212286D+03 0.273448840027025D+02 0.360365388806916D+02
 0.138540940267829D+03 -.670131856691695D+02 0.115919172745125D+03 0.355748572287979D+02
 0.262580443855574D+02 -.992734659142467D+01 -.155801556148256D+02 0.186598884140675D+02
 0.180587252061680D+03 -.411394729516916D+02 -.127683901133002D+03 -.902712845235570D+02
 0.000000000000000D+00 0.000000000000000D+00 0.000000000000000D+00 0.000000000000000D+00
 0.291238604171456D+03 0.000000000000000D+00 0.000000000000000D+00 0.291238604171456D+03
 0.272000957106558D+03 0.000000000000000D+00 0.000000000000000D+00 -.272000957106558D+03
 0.136122990210891D+03 0.100544349495873D+03 0.255823016856561D+02 0.360365388806916D+02
 0.146412527074553D+03 -.844860281763090D+02 0.114162904047240D+03 0.355748572287979D+02
 0.278731365131407D+02 -.132465748408286D+02 -.159137851701302D+02 0.186598884140675D+02
 0.188608546562313D+03 -.637779061801726D+02 -.129959385023622D+03 -.902712845235570D+02
 0.642223609171153D+02 0.609661597014371D+02 0.612796446085572D+01 0.192376470648977D+02
0.510570220270D-05 0.000000000000D+00 0.000000000000D+00 0.382004448390D-06 0.000000000000D+00  7 2 -2 24 -13 13 -24 21 0 0.57700055D-01 0.25151878D-01 0.51581929D+05 0.51581929D+05 0.51581929D+05 0.11461074D+01  1  2  2  2  7  2       -2 0.706899994941D-03 0.100000000000D+01
-.281073590070D-06 0.000000000000D+00 -.196072408206D-07 0.382004448390D-06 0.000000000000D+00  7 2 -2 24 -13 13 -24 21 2 0.57700055D-01 0.25151878D-01 0.51581929D+05 0.51581929D+05 0.51581929D+05 0.11461074D+01  1  2  3  2  7  2       -2 -.511179204634D-04 0.100000000000D+01
0.329580229191D-06 0.000000000000D+00 0.000000000000D+00 0.382004448390D-06 0.000000000000D+00  7 2 -2 24 -13 13 -24 21 2 0.57700055D-01 0.25151878D-01 0.51581929D+05 0.51581929D+05 0.51581929D+05 0.11461074D+01  1  2 15  2  7  2       -2 0.599396618442D-04 0.100000000000D+01
-.188897077988D-05 0.000000000000D+00 0.000000000000D+00 0.382004448390D-06 0.000000000000D+00  7 2 -2 24 -13 13 -24 21 2 0.57700055D-01 0.25151878D-01 0.51581929D+05 0.51581929D+05 0.51581929D+05 0.11461074D+01  1  2  4  2  7  2       -2 -.343540843021D-03 0.100000000000D+01
  </mgrwgt>
  </event>
  <event>
  8     66 0.26993063E-05 0.45777260E+03 0.75467711E-02 0.83408435E-01
        2 -1    0    0  501    0 0.00000000E+00 0.00000000E+00 0.91063326E+03 0.91063332E+03 0.32000000E+00 0.0000E+00 0.9000E+01
       -2 -1    0    0    0  501 0.00000000E+00 0.00000000E+00 -.32000766E+03 0.32000782E+03 0.32000000E+00 0.0000E+00 0.9000E+01
       25  2    1    2    0    0 0.39859117E+03 -.13656735E+03 0.23343097E+02 0.51800498E+03 0.30043085E+03 0.0000E+00 0.0000E+00
       23  2    1    2    0    0 -.39859117E+03 0.13656735E+03 0.56728251E+03 0.71263616E+03 0.92278322E+02 0.0000E+00 0.0000E+00
       24  1    3    3    0    0 0.18602302E+02 -.13894384E+02 -.59051865E+02 0.10243748E+03 0.80419002E+02 0.0000E+00 0.9000E+01
      -11  1    4    4    0    0 -.98585824E+02 0.58078092E+02 0.21315296E+03 0.24192233E+03 0.51099893E-03 0.0000E+00 0.9000E+01
       11  1    4    4    0    0 -.30000535E+03 0.78489256E+02 0.35412955E+03 0.47071383E+03 0.51099893E-03 0.0000E+00 0.9000E+01
      -24  1    3    3    0    0 0.37998887E+03 -.12267296E+03 0.82394962E+02 0.41556749E+03 0.80419002E+02 0.0000E+00 0.9000E+01
#aMCatNLO 1  0  0  2  2 0.14563016D+04 0.00000000D+00  -5  7  0 0.00000000D+00 0.00000000D+00 0.00000000D+00 0.00000000D+00 0.00000000D+00
  <mgrwgt>
 0.1205288722D-02    5    2    0
 0.539823814556200D+03 0.000000000000000D+00 0.000000000000000D+00 0.539823814556200D+03
 0.539823814556200D+03 0.000000000000000D+00 0.000000000000000D+00 -.539823814556200D+03
 0.149068382111289D+03 0.186023016732304D+02 -.138943841321824D+02 -.123349369892806D+03
 0.159150050859824D+03 -.985858236280510D+02 0.580780916357553D+02 0.110618756728740D+03
 0.342817242235100D+03 -.300005347639900D+03 0.784892559845120D+02 0.146150229750555D+03
 0.428611953906186D+03 0.379988869594720D+03 -.122672963488085D+03 -.133419616586489D+03
 0.000000000000000D+00 -.000000000000000D+00 0.000000000000000D+00 -.000000000000000D+00
 0.127018568780278D+04 0.000000000000000D+00 0.000000000000000D+00 0.127018568780278D+04
 0.236400604739864D+04 0.000000000000000D+00 0.000000000000000D+00 -.236400604739864D+04
 0.276887070786201D+03 0.232295658075682D+03 -.319827172145431D+02 -.123349369892806D+03
 0.128119125606936D+03 0.455313935423649D+02 0.458791151632631D+02 0.110618756728740D+03
 0.163476055499657D+03 -.460080965634038D+02 0.569893509017214D+02 0.146150229750555D+03
 0.124437553771659D+04 0.121929333176868D+04 -.193716906663942D+03 -.133419616586489D+03
 0.182133394559203D+04 -.145111228682332D+04 0.122831157813501D+03 -.109382035959587D+04
0.828789761211D-04 0.000000000000D+00 0.000000000000D+00 0.225327631311D-05 0.000000000000D+00  7 2 -2 24 -11 11 -24 21 0 0.14009744D+00 0.49231964D-01 0.20955575D+06 0.20955575D+06 0.20955575D+06 0.10962720D+01  1  2  2  2  7  2       -2 0.118238656845D-02 0.100000000000D+01
-.445221440015D-05 0.000000000000D+00 -.318277090840D-06 0.225327631311D-05 0.000000000000D+00  7 2 -2 24 -11 11 -24 21 2 0.14009744D+00 0.49231964D-01 0.20955575D+06 0.20955575D+06 0.20955575D+06 0.10962720D+01  1  2  3  2  7  2       -2 -.763357247581D-04 0.100000000000D+01
0.526438940009D-05 0.000000000000D+00 0.000000000000D+00 0.225327631311D-05 0.000000000000D+00  7 2 -2 24 -11 11 -24 21 2 0.14009744D+00 0.49231964D-01 0.20955575D+06 0.20955575D+06 0.20955575D+06 0.10962720D+01  1  2 15  2  7  2       -2 0.902609228008D-04 0.100000000000D+01
0.848391895207D-04 0.000000000000D+00 -.443864311892D-04 0.225327631311D-05 0.000000000000D+00  7 2 -2 24 -11 11 -24 21 2 0.14009744D+00 0.36883403D+00 0.20955575D+06 0.20955575D+06 0.20955575D+06 0.10962720D+01  1  2  5  2  7  2       -2 0.376551945793D-05 0.100000000000D+01
0.160623229886D-04 0.000000000000D+00 -.108926243103D-04 0.225327631311D-05 0.000000000000D+00  7 2 21 24 -11 11 -24 2 2 0.14009744D+00 0.36883403D+00 0.20955575D+06 0.20955575D+06 0.20955575D+06 0.10962720D+01  1  2  5  4  7  2       -2 0.521143619875D-05 0.100000000000D+01
  </mgrwgt>
  </event>
  <event>
  8     66 0.26993063E-05 0.18349589E+03 0.75467711E-02 0.10323807E+00
        2 -1    0    0  501    0 0.00000000E+00 0.00000000E+00 0.58737195E+03 0.58737204E+03 0.32000000E+00 0.0000E+00 0.9000E+01
       -2 -1    0    0    0  501 0.00000000E+00 0.00000000E+00 -.10370098E+03 0.10370147E+03 0.32000000E+00 0.0000E+00 0.9000E+01
       25  2    1    2    0    0 -.12229111E+03 0.40995396E+02 0.38004976E+03 0.50108318E+03 0.30001799E+03 0.0000E+00 0.0000E+00
       23  2    1    2    0    0 0.12229111E+03 -.40995396E+02 0.10362121E+03 0.18999033E+03 0.93398247E+02 0.0000E+00 0.0000E+00
       24  1    3    3    0    0 -.60034994E+02 0.78661450E+02 0.25130213E+02 0.12996372E+03 0.80419002E+02 0.0000E+00 0.9000E+01
      -13  1    4    4    0    0 0.11029167E+02 -.11478273E+02 -.16977654E+02 0.23273272E+02 0.10565837E+00 0.0000E+00 0.9000E+01
       13  1    4    4    0    0 0.11126194E+03 -.29517122E+02 0.12059886E+03 0.16671706E+03 0.10565837E+00 0.0000E+00 0.9000E+01
      -24  1    3    3    0    0 -.62256113E+02 -.37666055E+02 0.35491955E+03 0.37111947E+03 0.80419002E+02 0.0000E+00 0.9000E+01
#aMCatNLO 1  0  0  1  1 0.11360475D+03 0.00000000D+00  -5  7  0 0.00000000D+00 0.00000000D+00 0.00000000D+00 0.00000000D+00 0.00000000D+00
  <mgrwgt>
 0.1043240462D-02    3    2    0
 0.246802040745621D+03 0.000000000000000D+00 0.000000000000000D+00 0.246802040745621D+03
 0.246802040745621D+03 0.000000000000000D+00 0.000000000000000D+00 -.246802040745621D+03
 0.157332027866637D+03 -.600350125027830D+02 0.786614565344437D+02 -.921646546563722D+02
 0.492197901129036D+02 0.110290760687967D+02 -.114782549314736D+02 -.465746377715929D+02
 0.115241377849685D+03 0.111262069854846D+03 -.295171536896981D+02 0.548312122499499D+01
 0.171810885662017D+03 -.622561334208596D+02 -.376660479132721D+02 0.133256171202970D+03
 0.000000000000000D+00 -.000000000000000D+00 0.000000000000000D+00 -.000000000000000D+00
 0.258058227234872D+03 0.000000000000000D+00 0.000000000000000D+00 0.258058227234872D+03
 0.924898940316105D+03 0.000000000000000D+00 0.000000000000000D+00 -.924898940316105D+03
 0.139582829041995D+03 -.479039292139147D+02 0.471915268553173D+02 -.921646546563722D+02
 0.538845456713375D+02 0.152416213683637D+02 -.224062570884743D+02 -.465746377715929D+02
 0.133803561540460D+03 0.121437326606456D+03 -.559133630648387D+02 0.548312122499499D+01
 0.179237729390991D+03 -.479133011625183D+02 -.748736007608968D+02 0.133256171202970D+03
 0.676448501906193D+03 -.408617175983871D+02 0.106001694058893D+03 -.666840713081233D+03
0.575675944025D-05 0.000000000000D+00 0.000000000000D+00 0.231573676301D-06 0.000000000000D+00  7 2 -2 24 -13 13 -24 21 0 0.90364960D-01 0.15954042D-01 0.33670742D+05 0.33670742D+05 0.33670742D+05 0.11627130D+01  1  2  2  1  7  1        2 0.102414936674D-02 0.100000000000D+01
-.285659270619D-06 0.000000000000D+00 -.221074720401D-07 0.231573676301D-06 0.000000000000D+00  7 2 -2 24 -13 13 -24 21 2 0.90364960D-01 0.15954042D-01 0.33670742D+05 0.33670742D+05 0.33670742D+05 0.11627130D+01  1  2  3  1  7  1        2 -.687034611384D-04 0.100000000000D+01
0.365037344915D-06 0.000000000000D+00 0.000000000000D+00 0.231573676301D-06 0.000000000000D+00  7 2 -2 24 -13 13 -24 21 2 0.90364960D-01 0.15954042D-01 0.33670742D+05 0.33670742D+05 0.33670742D+05 0.11627130D+01  1  2 15  1  7  1        2 0.877945567321D-04 0.100000000000D+01
  </mgrwgt>
  </event>
  <event>
  8     66 0.26993063E-05 0.29489315E+03 0.75467711E-02 0.93161076E-01
        2 -1    0    0  501    0 0.00000000E+00 0.00000000E+00 0.10315380E+04 0.10315381E+04 0.32000000E+00 0.0000E+00 0.9000E+01
       -2 -1    0    0    0  501 0.00000000E+00 0.00000000E+00 -.12115886E+03 0.12115928E+03 0.32000000E+00 0.0000E+00 0.9000E+01
       25  2    1    2    0    0 -.23049992E+02 0.26053880E+03 0.69833919E+03 0.80379441E+03 0.29999343E+03 0.0000E+00 0.0000E+00
       23  2    1    2    0    0 0.23049992E+02 -.26053880E+03 0.21203995E+03 0.34890293E+03 0.91435985E+02 0.0000E+00 0.0000E+00
       24  1    3    3    0    0 0.83644564E+01 0.16986102E+03 0.63733164E+03 0.66451604E+03 0.80419002E+02 0.0000E+00 0.9000E+01
      -13  1    4    4    0    0 -.67852761E+01 -.24032305E+03 0.19192358E+03 0.30762945E+03 0.10565837E+00 0.0000E+00 0.9000E+01
       13  1    4    4    0    0 0.29835268E+02 -.20215750E+02 0.20116378E+02 0.41273473E+02 0.10565837E+00 0.0000E+00 0.9000E+01
      -24  1    3    3    0    0 -.31414448E+02 0.90677785E+02 0.61007553E+02 0.13927838E+03 0.80419002E+02 0.0000E+00 0.9000E+01
#aMCatNLO 1  0  0  2  2 0.41181977D+03 0.00000000D+00  -5  7  0 0.00000000D+00 0.00000000D+00 0.00000000D+00 0.00000000D+00 0.00000000D+00
  <mgrwgt>
 0.1544791713D-02    3    2    0
 0.353525446300716D+03 0.000000000000000D+00 0.000000000000000D+00 0.353525446300716D+03
 0.353525446300716D+03 0.000000000000000D+00 0.000000000000000D+00 -.353525446300716D+03
 0.262742662852791D+03 0.836445635889263D+01 0.169861019213769D+03 0.183422356734627D+03
 0.254409737410341D+03 -.678532487339233D+01 -.240323348110824D+03 -.832043400812988D+02
 0.413861163893053D+02 0.298353167429820D+02 -.202154563018029D+02 -.203469857999892D+02
 0.148512375948995D+03 -.314144482284823D+02 0.906777851988581D+02 -.798710308533385D+02
 0.000000000000000D+00 0.000000000000000D+00 -.000000000000000D+00 0.000000000000000D+00
 0.198172436073900D+04 0.000000000000000D+00 0.000000000000000D+00 0.198172436073900D+04
 0.436080868125622D+03 0.000000000000000D+00 0.000000000000000D+00 -.436080868125622D+03
 0.396494430343577D+03 -.473723933384886D+02 0.338899266358613D+03 0.183422356734627D+03
 0.162719536829534D+03 -.420525631744997D+02 -.133365165572231D+03 -.832043400812988D+02
 0.312704628030264D+02 0.236923844417461D+02 -.158522308682527D+01 -.203469857999892D+02
 0.227755442276421D+03 -.632269524804914D+02 0.187158479483597D+03 -.798710308533385D+02
 0.159956535661207D+04 0.128959524551734D+03 -.391107357183154D+03 0.154564349261338D+04
0.222101257221D-04 0.000000000000D+00 0.000000000000D+00 0.211387974919D-05 0.000000000000D+00  7 2 -2 24 -13 13 -24 21 0 0.15869819D+00 0.18639861D-01 0.86961970D+05 0.86961970D+05 0.86961970D+05 0.11267350D+01  1  2  2  2  7  2       -2 0.152452956605D-02 0.100000000000D+01
-.118456047581D-05 0.000000000000D+00 -.852927308332D-07 0.211387974919D-05 0.000000000000D+00  7 2 -2 24 -13 13 -24 21 2 0.15869819D+00 0.18639861D-01 0.86961970D+05 0.86961970D+05 0.86961970D+05 0.11267350D+01  1  2  3  2  7  2       -2 -.103225184484D-03 0.100000000000D+01
0.141707872034D-05 0.000000000000D+00 0.000000000000D+00 0.211387974919D-05 0.000000000000D+00  7 2 -2 24 -13 13 -24 21 2 0.15869819D+00 0.18639861D-01 0.86961970D+05 0.86961970D+05 0.86961970D+05 0.11267350D+01  1  2 15  2  7  2       -2 0.123487331650D-03 0.100000000000D+01
  </mgrwgt>
  </event>
  <event>
  8     66 0.26993063E-05 0.49907225E+03 0.75467711E-02 0.92695543E-01
        2 -1    0    0  501    0 0.00000000E+00 0.00000000E+00 0.18471082E+04 0.18471083E+04 0.32000000E+00 0.0000E+00 0.9000E+01
       -2 -1    0    0    0  501 0.00000000E+00 0.00000000E+00 -.14768917E+03 0.14768952E+03 0.32000000E+00 0.0000E+00 0.9000E+01
       25  2    1    2    0    0 -.13389905E+03 0.44732370E+03 0.10743622E+04 0.12098178E+04 0.30228715E+03 0.0000E+00 0.0000E+00
       23  2    1    2    0    0 0.13389905E+03 -.44732370E+03 0.62505681E+03 0.78497994E+03 0.86429351E+02 0.0000E+00 0.0000E+00
       24  1    3    3    0    0 -.15881165E+03 0.37605572E+03 0.97998544E+03 0.10646491E+04 0.80419002E+02 0.0000E+00 0.9000E+01
      -13  1    4    4    0    0 0.12844691E+02 -.60412599E+01 0.38603595E+02 0.41130665E+02 0.10565837E+00 0.0000E+00 0.9000E+01
       13  1    4    4    0    0 0.12105435E+03 -.44128244E+03 0.58645322E+03 0.74384927E+03 0.10565837E+00 0.0000E+00 0.9000E+01
      -24  1    3    3    0    0 0.24912601E+02 0.71267985E+02 0.94376805E+02 0.14516873E+03 0.80419002E+02 0.0000E+00 0.9000E+01
#aMCatNLO 1  0  0  1  2 0.17558399D+03 0.00000000D+00  -5  7  0 0.00000000D+00 0.00000000D+00 0.00000000D+00 0.00000000D+00 0.00000000D+00
  <mgrwgt>
 0.1684850745D-02    4    2    0
 0.522300928130469D+03 0.000000000000000D+00 0.000000000000000D+00 0.522300928130469D+03
 0.522300928130469D+03 0.000000000000000D+00 0.000000000000000D+00 -.522300928130469D+03
 0.438783194332443D+03 -.158811646746173D+03 0.376055718863991D+03 0.139371563963629D+03
 0.157408978488287D+02 0.128445296554130D+02 -.604060947009754D+01 0.680477481245660D+01
 0.466397605997383D+03 0.121054516218847D+03 -.441283095482989D+03 -.902317052042297D+02
 0.123680158082283D+03 0.249126008719138D+02 0.712679860890954D+02 -.559446335718559D+02
 0.000000000000000D+00 0.000000000000000D+00 -.000000000000000D+00 -.000000000000000D+00
 0.570240474083242D+03 0.000000000000000D+00 0.000000000000000D+00 0.570240474083242D+03
 0.719407299458958D+03 0.000000000000000D+00 0.000000000000000D+00 -.719407299458958D+03
 0.485568353811442D+03 -.233851700516362D+03 0.393952230089792D+03 0.139371563963629D+03
 0.136260689366340D+02 0.104604813232892D+02 -.547203114965320D+01 0.680477481245660D+01
 0.435940398855584D+03 0.478015503542714D+02 -.423812791824445D+03 -.902317052042297D+02
 0.124120942708363D+03 0.479578712828874D+01 0.760657009747046D+02 -.559446335718559D+02
 0.230392009230177D+03 0.170793881710512D+03 -.407331080903986D+02 -.149166825375716D+03
0.119797648199D-03 0.000000000000D+00 0.000000000000D+00 0.198937654664D-07 0.000000000000D+00  7 2 -2 24 -13 13 -24 21 0 0.28417053D+00 0.22721440D-01 0.24907311D+06 0.24907311D+06 0.24907311D+06 0.10905805D+01  1  2  2  1  7  1        2 0.203489295777D-02 0.100000000000D+01
-.663867750906D-05 0.000000000000D+00 -.460054512530D-06 0.198937654664D-07 0.000000000000D+00  7 2 -2 24 -13 13 -24 21 2 0.28417053D+00 0.22721440D-01 0.24907311D+06 0.24907311D+06 0.24907311D+06 0.10905805D+01  1  2  3  1  7  1        2 -.134118995970D-03 0.100000000000D+01
0.765895771552D-05 0.000000000000D+00 0.000000000000D+00 0.198937654664D-07 0.000000000000D+00  7 2 -2 24 -13 13 -24 21 2 0.28417053D+00 0.22721440D-01 0.24907311D+06 0.24907311D+06 0.24907311D+06 0.10905805D+01  1  2 15  1  7  1        2 0.154731377987D-03 0.100000000000D+01
-.183468143637D-04 0.000000000000D+00 0.000000000000D+00 0.198937654664D-07 0.000000000000D+00  7 2 -2 24 -13 13 -24 21 2 0.28417053D+00 0.22721440D-01 0.24907311D+06 0.24907311D+06 0.24907311D+06 0.10905805D+01  1  2  4  1  7  1        2 -.370654594739D-03 0.100000000000D+01
  </mgrwgt>
  </event>
  <event>
  9     66 0.26993063E-05 0.20725014E+03 0.75467711E-02 0.10394808E+00
        2 -1    0    0  501    0 0.00000000E+00 0.00000000E+00 0.23506065E+04 0.23506065E+04 0.32000000E+00 0.0000E+00 0.9000E+01
       21 -1    0    0  502  501 0.00000000E+00 0.00000000E+00 -.40909324E+02 0.40916199E+02 0.75000000E+00 0.0000E+00 0.9000E+01
       25  2    1    2    0    0 0.10325283E+03 0.24889254E+02 0.80925336E+03 0.86962269E+03 0.30011998E+03 0.0000E+00 0.0000E+00
       23  2    1    2    0    0 -.15799487E+03 -.19432189E+02 0.11378417E+04 0.11551483E+04 0.11976543E+03 0.0000E+00 0.0000E+00
       24  1    3    3    0    0 0.14119895E+02 0.89469058E+02 0.64451354E+03 0.65579647E+03 0.80419002E+02 0.0000E+00 0.9000E+01
      -13  1    4    4    0    0 -.11196531E+03 -.16566086E+01 0.10354529E+04 0.10414901E+04 0.10565837E+00 0.0000E+00 0.9000E+01
       13  1    4    4    0    0 -.46029563E+02 -.17775580E+02 0.10238887E+03 0.11365819E+03 0.10565837E+00 0.0000E+00 0.9000E+01
      -24  1    3    3    0    0 0.89132932E+02 -.64579804E+02 0.16473982E+03 0.21382623E+03 0.80419002E+02 0.0000E+00 0.9000E+01
        2  1    1    2  502    0 0.54742042E+02 -.54570655E+01 0.36260207E+03 0.36675173E+03 0.32000000E+00 0.0000E+00 0.9000E+01
#aMCatNLO 2  0  0  2  2 0.55013369D+02 0.00000000D+00  -5  7  0 0.00000000D+00 0.00000000D+00 0.00000000D+00 0.00000000D+00 0.00000000D+00
  <mgrwgt>
 0.1532199912D-03    1    2    0
 0.276356528867885D+03 0.000000000000000D+00 0.000000000000000D+00 0.276356528867885D+03
 0.276356528867885D+03 0.000000000000000D+00 0.000000000000000D+00 -.276356528867885D+03
 0.132425334016620D+03 0.271459709798624D+02 0.881705695824950D+02 0.505796407075192D+02
 0.156561560610841D+03 -.959914456127135D+02 -.324920176206099D+01 0.123639020207994D+03
 0.512887841699944D+02 -.407592586849037D+02 -.183008600977481D+02 -.251853277281838D+02
 0.212437378938314D+03 0.109604733317755D+03 -.666205077226860D+02 -.149033333187330D+03
 0.000000000000000D+00 0.000000000000000D+00 -.000000000000000D+00 0.000000000000000D+00
 0.328719751873200D+03 0.000000000000000D+00 0.000000000000000D+00 0.328719751873200D+03
 0.292558386517167D+03 0.000000000000000D+00 0.000000000000000D+00 -.292558386517167D+03
 0.131261604390585D+03 0.141200559990487D+02 0.894690829130487D+02 0.505796407075192D+02
 0.166810313351728D+03 -.111965746664053D+03 -.165677290834938D+01 0.123639020207994D+03
 0.553984212083006D+02 -.460295177094604D+02 -.177754842136787D+02 -.251853277281838D+02
 0.201973803086263D+03 0.891331663271498D+02 -.645797602839243D+02 -.149033333187330D+03
 0.658339963534893D+02 0.547420420473152D+02 -.545706550709628D+01 0.361613653560326D+02
0.103269493675D-06 0.000000000000D+00 0.000000000000D+00 0.375408861235D-08 0.936228689000D-13  7 2 21 24 -13 13 -24 2 2 0.36163183D+00 0.62942645D-02 0.56116079D+05 0.56116079D+05 0.56116079D+05 0.11429130D+01  1  2  1  4  7  2       -2 0.153219991192D-03 0.100000000000D+01
  </mgrwgt>
  </event>
  <event>
  8     66 0.26993063E-05 0.30499488E+03 0.75467711E-02 0.87099893E-01
        2 -1    0    0  501    0 0.00000000E+00 0.00000000E+00 0.13114637E+04 0.13114637E+04 0.32000000E+00 0.0000E+00 0.9000E+01
       -2 -1    0    0    0  501 0.00000000E+00 0.00000000E+00 -.31549791E+03 0.31549807E+03 0.32000000E+00 0.0000E+00 0.9000E+01
       25  2    1    2    0    0 0.20887973E+03 -.16093892E+03 0.12104149E+04 0.12749545E+04 0.30145087E+03 0.0000E+00 0.0000E+00
       23  2    1    2    0    0 -.20887973E+03 0.16093892E+03 -.21444912E+03 0.35200731E+03 0.91589573E+02 0.0000E+00 0.0000E+00
       24  1    3    3    0    0 0.20480955E+03 -.86589697E+02 0.46645142E+03 0.52296163E+03 0.80419002E+02 0.0000E+00 0.9000E+01
      -11  1    4    4    0    0 -.14210472E+03 0.11610795E+03 -.19791244E+03 0.26989654E+03 0.51099893E-03 0.0000E+00 0.9000E+01
       11  1    4    4    0    0 -.66775008E+02 0.44830973E+02 -.16536671E+02 0.82110775E+02 0.51099893E-03 0.0000E+00 0.9000E+01
      -24  1    3    3    0    0 0.40701775E+01 -.74349226E+02 0.74396346E+03 0.75199283E+03 0.80419002E+02 0.0000E+00 0.9000E+01
#aMCatNLO 1  0  0  2  2 0.94240878D+03 0.00000000D+00  -5  7  0 0.00000000D+00 0.00000000D+00 0.00000000D+00 0.00000000D+00 0.00000000D+00
  <mgrwgt>
 0.1238622949D-02    3    2    0
 0.643245060054719D+03 0.000000000000000D+00 0.000000000000000D+00 0.643245060054719D+03
 0.643245060054719D+03 0.000000000000000D+00 0.000000000000000D+00 -.643245060054719D+03
 0.300250221951819D+03 0.204809547698069D+03 -.865896969082711D+02 0.185035816502623D+03
 0.494543536546070D+03 -.142104716861939D+03 0.116107950154885D+03 -.459236870139924D+03
 0.116643764700456D+03 -.667750083205881D+02 0.448309726766174D+02 -.844810629440053D+02
 0.375052596911093D+03 0.407017748445894D+01 -.743492259232311D+02 0.358682116581306D+03
 0.000000000000000D+00 0.000000000000000D+00 0.000000000000000D+00 0.000000000000000D+00
 0.157098561449134D+04 0.000000000000000D+00 0.000000000000000D+00 0.157098561449134D+04
 0.108437664542293D+04 0.000000000000000D+00 0.000000000000000D+00 -.108437664542293D+04
 0.418059860042590D+03 0.177958032438135D+03 -.319999243634129D+03 0.185035816502623D+03
 0.540438503015734D+03 -.180793907958755D+03 -.220201806284543D+03 -.459236870139924D+03
 0.117557073595418D+03 -.755297892167858D+02 -.312708569923713D+02 -.844810629440053D+02
 0.518683141880518D+03 -.293390136574490D+02 -.364762041938354D+03 0.358682116581306D+03
 0.106062368138002D+04 0.107704678394854D+03 0.936233948849398D+03 0.486608969068410D+03
0.134331276653D-03 0.000000000000D+00 0.000000000000D+00 0.191961967898D-05 0.000000000000D+00  7 2 -2 24 -11 11 -24 21 0 0.20176366D+00 0.48538155D-01 0.93021879D+05 0.93021879D+05 0.93021879D+05 0.11243092D+01  1  2  2  2  7  2       -2 0.117299497003D-02 0.100000000000D+01
-.241004479475D-05 0.000000000000D+00 -.515867472583D-06 0.191961967898D-05 0.000000000000D+00  7 2 -2 24 -11 11 -24 21 2 0.20176366D+00 0.48538155D-01 0.93021879D+05 0.93021879D+05 0.93021879D+05 0.11243092D+01  1  2  3  2  7  2       -2 -.266020810852D-04 0.100000000000D+01
0.835568376127D-05 0.000000000000D+00 0.000000000000D+00 0.191961967898D-05 0.000000000000D+00  7 2 -2 24 -11 11 -24 21 2 0.20176366D+00 0.48538155D-01 0.93021879D+05 0.93021879D+05 0.93021879D+05 0.11243092D+01  1  2 15  2  7  2       -2 0.922300603807D-04 0.100000000000D+01
  </mgrwgt>
  </event>
  <event>
  8     66 0.26993063E-05 0.40381540E+03 0.75467711E-02 0.95946273E-01
        2 -1    0    0  501    0 0.00000000E+00 0.00000000E+00 0.10551146E+04 0.10551147E+04 0.32000000E+00 0.0000E+00 0.9000E+01
       -2 -1    0    0    0  501 0.00000000E+00 0.00000000E+00 -.20509960E+03 0.20509985E+03 0.32000000E+00 0.0000E+00 0.9000E+01
       25  2    1    2    0    0 0.17543286E+03 0.35148938E+03 0.63100737E+03 0.80144223E+03 0.29969631E+03 0.0000E+00 0.0000E+00
       23  2    1    2    0    0 -.17543286E+03 -.35148938E+03 0.21900766E+03 0.45877229E+03 0.90477558E+02 0.0000E+00 0.0000E+00
       24  1    3    3    0    0 0.21740219E+03 0.17240539E+03 0.31834606E+03 0.42988226E+03 0.80419002E+02 0.0000E+00 0.9000E+01
      -11  1    4    4    0    0 -.58118494E+02 -.20668944E+03 0.14025756E+03 0.25645754E+03 0.51099893E-03 0.0000E+00 0.9000E+01
       11  1    4    4    0    0 -.11731437E+03 -.14479994E+03 0.78750105E+02 0.20231476E+03 0.51099893E-03 0.0000E+00 0.9000E+01
      -24  1    3    3    0    0 -.41969328E+02 0.17908399E+03 0.31266131E+03 0.37155997E+03 0.80419002E+02 0.0000E+00 0.9000E+01
#aMCatNLO 1  0  0  1  2 0.82264685D+00 0.00000000D+00  -5  7  0 0.00000000D+00 0.00000000D+00 0.00000000D+00 0.00000000D+00 0.00000000D+00
  <mgrwgt>
 0.4856181920D-03   10    2    0
 0.465192188445538D+03 0.000000000000000D+00 0.000000000000000D+00 0.465192188445538D+03
 0.465192188445538D+03 0.000000000000000D+00 0.000000000000000D+00 -.465192188445538D+03
 0.291433237796187D+03 0.217402187081263D+03 0.172405385749834D+03 0.384550146890173D+02
 0.219232484650247D+03 -.581184942362930D+02 -.206689442886060D+03 -.443237763855562D+02
 0.202089830912636D+03 -.117314365026535D+03 -.144799935832747D+03 -.781704426209236D+02
 0.217628823532007D+03 -.419693278184353D+02 0.179083992968973D+03 0.840392043174626D+02
 0.000000000000000D+00 0.000000000000000D+00 0.000000000000000D+00 0.000000000000000D+00
 0.467364583811517D+03 0.000000000000000D+00 0.000000000000000D+00 0.467364583811517D+03
 0.465270257184035D+03 0.000000000000000D+00 0.000000000000000D+00 -.465270257184035D+03
 0.291192961636725D+03 0.217236408818643D+03 0.172208244521694D+03 0.384550146890173D+02
 0.219405517613122D+03 -.582433026400435D+02 -.206837863321940D+03 -.443237763855562D+02
 0.202254661232306D+03 -.117429415684183D+03 -.144936752491268D+03 -.781704426209236D+02
 0.217531600101460D+03 -.420931467250709D+02 0.178936749229443D+03 0.840392043174626D+02
 0.225010041193818D+01 0.529456230654457D+00 0.629622062071566D+00 0.209432662748156D+01
0.639189073152D-05 0.000000000000D+00 0.000000000000D+00 0.856299625197D-06 0.000000000000D+00  7 2 -2 24 -11 11 -24 21 0 0.16232535D+00 0.31553807D-01 0.19833530D+06 0.19833530D+06 0.19833530D+06 0.10981043D+01  1  2  2  1  7  1        2 0.170653833142D-03 0.100000000000D+01
-.354284535132D-06 0.000000000000D+00 -.245465434325D-07 0.856299625197D-06 0.000000000000D+00  7 2 -2 24 -11 11 -24 21 2 0.16232535D+00 0.31553807D-01 0.19833530D+06 0.19833530D+06 0.19833530D+06 0.10981043D+01  1  2  3  1  7  1        2 -.114058084267D-04 0.100000000000D+01
0.408911195851D-06 0.000000000000D+00 0.000000000000D+00 0.856299625197D-06 0.000000000000D+00  7 2 -2 24 -11 11 -24 21 2 0.16232535D+00 0.31553807D-01 0.19833530D+06 0.19833530D+06 0.19833530D+06 0.10981043D+01  1  2 15  1  7  1        2 0.131644548404D-04 0.100000000000D+01
-.239971435870D-02 0.000000000000D+00 0.000000000000D+00 0.856299625197D-06 0.000000000000D+00  7 2 -2 24 -11 11 -24 21 2 0.16232535D+00 0.31553807D-01 0.19833530D+06 0.19833530D+06 0.19833530D+06 0.10981043D+01  1  2  4  1  7  1        2 -.772562151039D-01 0.100000000000D+01
-.394172240601D-02 0.000000000000D+00 -.162155563231D-03 0.856299625197D-06 0.000000000000D+00  7 2 -2 24 -11 11 -24 21 2 0.16309544D+00 0.31553807D-01 0.19833530D+06 0.19833530D+06 0.19833530D+06 0.10981043D+01  1  2  5  1  7  1        2 -.126021659881D+00 0.100000000000D+01
0.394244752693D-02 0.000000000000D+00 0.162153747105D-03 0.856299625197D-06 0.000000000000D+00  7 2 -2 24 -11 11 -24 21 2 0.16232535D+00 0.31553807D-01 0.19833530D+06 0.19833530D+06 0.19833530D+06 0.10981043D+01  1  2  6  1  7  1        2 0.126922845243D+00 0.100000000000D+01
0.239976416288D-02 0.000000000000D+00 0.000000000000D+00 0.856299625197D-06 0.813663040810D-05  7 2 -2 24 -11 11 -24 21 2 0.16308339D+00 0.31559102D-01 0.19870522D+06 0.19870522D+06 0.19870522D+06 0.10980421D+01  1  2 11  1  7  1        2 0.766967450392D-01 0.100000000000D+01
0.320098422656D-11 0.000000000000D+00 0.000000000000D+00 0.856299625197D-06 0.000000000000D+00  7 21 -2 24 -11 11 -24 -2 2 0.16309698D+00 0.31553807D-01 0.19870522D+06 0.19870522D+06 0.19870522D+06 0.10980421D+01  1  2 12  3  7  1        2 0.661023735654D-10 0.100000000000D+01
-.347187613107D-05 0.000000000000D+00 -.142882592502D-06 0.856299625197D-06 0.000000000000D+00  7 21 -2 24 -11 11 -24 -2 2 0.16309544D+00 0.31553807D-01 0.19833530D+06 0.19833530D+06 0.19833530D+06 0.10981043D+01  1  2  5  3  7  1        2 -.717159170809D-04 0.100000000000D+01
0.209233830854D-05 0.000000000000D+00 0.000000000000D+00 0.856299625197D-06 0.704611008907D-08  7 21 -2 24 -11 11 -24 -2 2 0.16308339D+00 0.31559102D-01 0.19870522D+06 0.19870522D+06 0.19870522D+06 0.10980421D+01  1  2 11  3  7  1        2 0.432062661758D-04 0.100000000000D+01
  </mgrwgt>
  </event>
  <event>
  8     66 0.26993063E-05 0.49628692E+03 0.75467711E-02 0.87410514E-01
        2 -1    0    0  501    0 0.00000000E+00 0.00000000E+00 0.43898347E+03 0.43898358E+03 0.32000000E+00 0.0000E+00 0.9000E+01
       -2 -1    0    0    0  501 0.00000000E+00 0.00000000E+00 -.88651521E+03 0.88651526E+03 0.32000000E+00 0.0000E+00 0.9000E+01
       25  2    1    2    0    0 0.35644158E+03 -.29493283E+03 -.61429057E+03 0.82529525E+03 0.29953860E+03 0.0000E+00 0.0000E+00
       23  2    1    2    0    0 -.35644158E+03 0.29493283E+03 0.16675883E+03 0.50020359E+03 0.91428417E+02 0.0000E+00 0.0000E+00
       24  1    3    3    0    0 0.32036792E+03 -.29098339E+03 -.40497907E+03 0.59814898E+03 0.80419002E+02 0.0000E+00 0.9000E+01
      -11  1    4    4    0    0 -.13631962E+03 0.89635866E+02 0.17074706E+02 0.16404016E+03 0.51099893E-03 0.0000E+00 0.9000E+01
       11  1    4    4    0    0 -.22012196E+03 0.20529696E+03 0.14968413E+03 0.33616344E+03 0.51099893E-03 0.0000E+00 0.9000E+01
      -24  1    3    3    0    0 0.36073655E+02 -.39494352E+01 -.20931150E+03 0.22714627E+03 0.80419002E+02 0.0000E+00 0.9000E+01
#aMCatNLO 1  0  0  2  1 0.76072671D+03 0.00000000D+00  -5  7  0 0.00000000D+00 0.00000000D+00 0.00000000D+00 0.00000000D+00 0.00000000D+00
  <mgrwgt>
 0.8768620948D-03    3    2    0
 0.623831414133723D+03 0.000000000000000D+00 0.000000000000000D+00 0.623831414133723D+03
 0.623831414133723D+03 0.000000000000000D+00 0.000000000000000D+00 -.623831414133723D+03
 0.490200383151227D+03 0.320367924321659D+03 -.290983391838910D+03 -.215690190845561D+03
 0.180398505710796D+03 -.136319619470840D+03 0.896358659387473D+02 0.769804764042457D+02
 0.410826255636454D+03 -.220121960215320D+03 0.205296961108528D+03 0.279602740885774D+03
 0.166237683768968D+03 0.360736553645011D+02 -.394943520836479D+01 -.140893026444458D+03
 0.000000000000000D+00 0.000000000000000D+00 -.000000000000000D+00 0.000000000000000D+00
 0.117266563011262D+04 0.000000000000000D+00 0.000000000000000D+00 0.117266563011262D+04
 0.105795138788379D+04 0.000000000000000D+00 0.000000000000000D+00 -.105795138788379D+04
 0.313440980605348D+03 0.131813364767853D+03 -.166976078556343D+03 -.215690190845561D+03
 0.310762128576359D+03 -.251558308324882D+03 0.165425283202442D+03 0.769804764042457D+02
 0.662085401571383D+03 -.471854130918079D+03 0.370854507049122D+03 0.279602740885774D+03
 0.175001214029213D+03 -.439896079003445D+02 0.487060412415440D+02 -.140893026444458D+03
 0.769327293214113D+03 0.635588682375453D+03 -.418009752936765D+03 0.114714242228830D+03
0.259288244365D-03 0.000000000000D+00 0.000000000000D+00 0.648937239054D-05 0.000000000000D+00  7 2 -2 24 -11 11 -24 21 0 0.67535931D-01 0.13638697D+00 0.24630070D+06 0.24630070D+06 0.24630070D+06 0.10909465D+01  1  2  2  2  7  2       -2 0.865093106120D-03 0.100000000000D+01
-.134886341415D-04 0.000000000000D+00 -.995735130524D-06 0.648937239054D-05 0.000000000000D+00  7 2 -2 24 -11 11 -24 21 2 0.67535931D-01 0.13638697D+00 0.24630070D+06 0.24630070D+06 0.24630070D+06 0.10909465D+01  1  2  3  2  7  2       -2 -.535617687496D-04 0.100000000000D+01
0.164524567713D-04 0.000000000000D+00 0.000000000000D+00 0.648937239054D-05 0.000000000000D+00  7 2 -2 24 -11 11 -24 21 2 0.67535931D-01 0.13638697D+00 0.24630070D+06 0.24630070D+06 0.24630070D+06 0.10909465D+01  1  2 15  2  7  2       -2 0.653307574142D-04 0.100000000000D+01
  </mgrwgt>
  </event>
  <event>
  8     66 0.26993063E-05 0.31557266E+03 0.75467711E-02 0.96998822E-01
        2 -1    0    0  501    0 0.00000000E+00 0.00000000E+00 0.23995459E+03 0.23995480E+03 0.32000000E+00 0.0000E+00 0.9000E+01
       -2 -1    0    0    0  501 0.00000000E+00 0.00000000E+00 -.20052049E+04 0.20052050E+04 0.32000000E+00 0.0000E+00 0.9000E+01
       25  2    1    2    0    0 0.21034914E+03 -.14379948E+03 0.61171254E+02 0.39856803E+03 0.30031567E+03 0.0000E+00 0.0000E+00
       23  2    1    2    0    0 -.21034914E+03 0.14379948E+03 -.18264216E+04 0.18465917E+04 0.95708626E+02 0.0000E+00 0.0000E+00
       24  1    3    3    0    0 0.13542975E+03 0.38115556E+02 0.87894451E+02 0.18435472E+03 0.80419002E+02 0.0000E+00 0.9000E+01
      -11  1    4    4    0    0 -.16836947E+03 0.12875632E+03 -.11992700E+04 0.12178567E+04 0.51099893E-03 0.0000E+00 0.9000E+01
       11  1    4    4    0    0 -.41979667E+02 0.15043156E+02 -.62715160E+03 0.62873501E+03 0.51099893E-03 0.0000E+00 0.9000E+01
      -24  1    3    3    0    0 0.74919389E+02 -.18191503E+03 -.26723198E+02 0.21421330E+03 0.80419002E+02 0.0000E+00 0.9000E+01
#aMCatNLO 1  0  0  1  1 0.16135918D+03 0.00000000D+00  -5  7  0 0.00000000D+00 0.00000000D+00 0.00000000D+00 0.00000000D+00 0.00000000D+00
  <mgrwgt>
 0.1803526905D-02    3    2    0
 0.693655819702258D+03 0.000000000000000D+00 0.000000000000000D+00 0.693655819702258D+03
 0.693655819702258D+03 0.000000000000000D+00 0.000000000000000D+00 -.693655819702258D+03
 0.410190109643528D+03 0.135429751583712D+03 0.381155559611620D+02 0.376821837046029D+03
 0.444940500202242D+03 -.168369473631270D+03 0.128756323023727D+03 -.391210401639271D+03
 0.219511586298818D+03 -.419796667910815D+02 0.150431558208375D+02 -.214934286605193D+03
 0.312669443259929D+03 0.749193888386391D+02 -.181915034805727D+03 0.229322851198435D+03
 0.000000000000000D+00 0.000000000000000D+00 -.000000000000000D+00 -.000000000000000D+00
 0.707236202161374D+03 0.000000000000000D+00 0.000000000000000D+00 0.707236202161374D+03
 0.142935776534650D+04 0.000000000000000D+00 0.000000000000000D+00 -.142935776534650D+04
 0.397302586088599D+03 0.886383523600894D+02 0.391238363975532D+02 0.376821837046029D+03
 0.467841260159726D+03 -.221262008732673D+03 0.129896073261138D+03 -.391210401639271D+03
 0.225910639081063D+03 -.677903388640071D+02 0.155993348651287D+02 -.214934286605193D+03
 0.305609528882606D+03 0.390922682095631D+02 -.181143017182362D+03 0.229322851198435D+03
 0.739929953295881D+03 0.161321727027028D+03 -.347622734145725D+01 -.722121563185127D+03
0.375878805819D-02 0.000000000000D+00 0.000000000000D+00 0.815399313013D-06 0.000000000000D+00  7 2 -2 24 -11 11 -24 21 0 0.36916109D-01 0.30849308D+00 0.99586104D+05 0.99586104D+05 0.99586104D+05 0.11218699D+01  1  2  2  1  7  1        2 0.170103691805D-02 0.100000000000D+01
-.513312454220D-04 0.000000000000D+00 -.144347358551D-04 0.815399313013D-06 0.000000000000D+00  7 2 -2 24 -11 11 -24 21 2 0.36916109D-01 0.30849308D+00 0.99586104D+05 0.99586104D+05 0.99586104D+05 0.11218699D+01  1  2  3  1  7  1        2 -.292369917354D-04 0.100000000000D+01
0.231272422071D-03 0.000000000000D+00 0.000000000000D+00 0.815399313013D-06 0.000000000000D+00  7 2 -2 24 -11 11 -24 21 2 0.36916109D-01 0.30849308D+00 0.99586104D+05 0.99586104D+05 0.99586104D+05 0.11218699D+01  1  2 15  1  7  1        2 0.131726979097D-03 0.100000000000D+01
  </mgrwgt>
  </event>
  <event>
  8     66 0.26993063E-05 0.17104649E+03 0.75467711E-02 0.98413510E-01
        2 -1    0    0  501    0 0.00000000E+00 0.00000000E+00 0.10130791E+04 0.10130791E+04 0.32000000E+00 0.0000E+00 0.9000E+01
       -2 -1    0    0    0  501 0.00000000E+00 0.00000000E+00 -.17819734E+03 0.17819763E+03 0.32000000E+00 0.0000E+00 0.9000E+01
       25  2    1    2    0    0 -.22533199E+03 0.13515572E+02 0.60492397E+02 0.37927750E+03 0.29872214E+03 0.0000E+00 0.0000E+00
       23  2    1    2    0    0 0.22533199E+03 -.13515572E+02 0.77438931E+03 0.81199923E+03 0.93310073E+02 0.0000E+00 0.0000E+00
       24  1    3    3    0    0 -.17534431E+03 -.54568949E+02 0.13425993E+03 0.24128063E+03 0.80419002E+02 0.0000E+00 0.9000E+01
      -11  1    4    4    0    0 0.20371538E+03 -.35047902E+02 0.59140804E+03 0.62649164E+03 0.51099893E-03 0.0000E+00 0.9000E+01
       11  1    4    4    0    0 0.21616612E+02 0.21532330E+02 0.18298127E+03 0.18550759E+03 0.51099893E-03 0.0000E+00 0.9000E+01
      -24  1    3    3    0    0 -.49987678E+02 0.68084521E+02 -.73767537E+02 0.13799687E+03 0.80419002E+02 0.0000E+00 0.9000E+01
#aMCatNLO 1  0  0  1  2 0.16556033D+03 0.00000000D+00  -5  7  0 0.00000000D+00 0.00000000D+00 0.00000000D+00 0.00000000D+00 0.00000000D+00
  <mgrwgt>
 0.9004842958D-03    9    2    0
 0.424886095473116D+03 0.000000000000000D+00 0.000000000000000D+00 0.424886095473116D+03
 0.424886095473116D+03 0.000000000000000D+00 0.000000000000000D+00 -.424886095473116D+03
 0.206338638595518D+03 -.175344308577667D+03 -.545689490600265D+02 -.488366775178773D+02
 0.297219846021222D+03 0.203715375284545D+03 -.350479018047482D+02 0.213568085913229D+03
 0.802840533431864D+02 0.216166115819484D+02 0.215323299141834D+02 0.742604207730709D+02
 0.265929652986307D+03 -.499876782888261D+02 0.680845209505913D+02 -.238991829168423D+03
 0.000000000000000D+00 -.000000000000000D+00 0.000000000000000D+00 0.000000000000000D+00
 0.547577759395503D+03 0.000000000000000D+00 0.000000000000000D+00 0.547577759395503D+03
 0.492616828882685D+03 0.000000000000000D+00 0.000000000000000D+00 -.492616828882685D+03
 0.214946780226899D+03 -.168499461714118D+03 -.946457220724093D+02 -.488366775178773D+02
 0.316221159212258D+03 0.213682275521401D+03 -.934043860902707D+02 0.213568085913229D+03
 0.783673803217546D+02 0.241943052774827D+02 0.643986003271538D+01 0.742604207730709D+02
 0.256214643948893D+03 -.415041239251665D+02 0.184130689300715D+02 -.238991829168423D+03
 0.174444624568382D+03 -.278729951595986D+02 0.163197179199893D+03 0.549609305128173D+02
0.238324333683D-04 0.000000000000D+00 0.000000000000D+00 0.151469999750D-06 0.000000000000D+00  7 2 -2 24 -11 11 -24 21 0 0.15585834D+00 0.27415002D-01 0.76817835D+05 0.76817835D+05 0.76817835D+05 0.11312442D+01  1  2  2  1  7  1        2 0.880052229841D-03 0.100000000000D+01
-.103019767094D-05 0.000000000000D+00 -.915228193581D-07 0.151469999750D-06 0.000000000000D+00  7 2 -2 24 -11 11 -24 21 2 0.15585834D+00 0.27415002D-01 0.76817835D+05 0.76817835D+05 0.76817835D+05 0.11312442D+01  1  2  3  1  7  1        2 -.486825513977D-04 0.100000000000D+01
0.145749606788D-05 0.000000000000D+00 0.000000000000D+00 0.151469999750D-06 0.000000000000D+00  7 2 -2 24 -11 11 -24 21 2 0.15585834D+00 0.27415002D-01 0.76817835D+05 0.76817835D+05 0.76817835D+05 0.11312442D+01  1  2 15  1  7  1        2 0.688747696079D-04 0.100000000000D+01
0.627978185688D-05 0.000000000000D+00 0.000000000000D+00 0.151469999750D-06 0.000000000000D+00  7 2 -2 24 -11 11 -24 21 2 0.21039077D+00 0.27415002D-01 0.13157993D+06 0.13157993D+06 0.13157993D+06 0.11120704D+01  1  2 12  1  7  1        2 0.177640916915D-03 0.100000000000D+01
-.147822980956D-04 0.000000000000D+00 0.000000000000D+00 0.151469999750D-06 0.000000000000D+00  7 2 -2 24 -11 11 -24 21 2 0.15585834D+00 0.27415002D-01 0.76817835D+05 0.76817835D+05 0.76817835D+05 0.11312442D+01  1  2  4  1  7  1        2 -.698545538506D-03 0.100000000000D+01
-.197623410156D-04 0.000000000000D+00 -.104799678221D-04 0.151469999750D-06 0.000000000000D+00  7 2 -2 24 -11 11 -24 21 2 0.21979005D+00 0.27415002D-01 0.76817835D+05 0.76817835D+05 0.76817835D+05 0.11312442D+01  1  2  5  1  7  1        2 -.543829813069D-03 0.100000000000D+01
0.226059661305D-04 0.000000000000D+00 0.988995833682D-05 0.151469999750D-06 0.000000000000D+00  7 2 -2 24 -11 11 -24 21 2 0.15585834D+00 0.27415002D-01 0.76817835D+05 0.76817835D+05 0.76817835D+05 0.11312442D+01  1  2  6  1  7  1        2 0.106825722780D-02 0.100000000000D+01
0.242757727337D-06 0.000000000000D+00 0.000000000000D+00 0.151469999750D-06 0.000000000000D+00  7 21 -2 24 -11 11 -24 -2 2 0.21039077D+00 0.27415002D-01 0.13157993D+06 0.13157993D+06 0.13157993D+06 0.11120704D+01  1  2 12  3  7  1        2 0.295167154533D-05 0.100000000000D+01
-.554006329255D-06 0.000000000000D+00 -.446852647809D-06 0.151469999750D-06 0.000000000000D+00  7 21 -2 24 -11 11 -24 -2 2 0.21979005D+00 0.27415002D-01 0.76817835D+05 0.76817835D+05 0.76817835D+05 0.11312442D+01  1  2  5  3  7  1        2 -.623461692039D-05 0.100000000000D+01
  </mgrwgt>
  </event>
  <event>
  8     66 0.26993063E-05 0.18806949E+03 0.75467711E-02 0.10460877E+00
        2 -1    0    0  501    0 0.00000000E+00 0.00000000E+00 0.10817994E+04 0.10817994E+04 0.32000000E+00 0.0000E+00 0.9000E+01
       -2 -1    0    0    0  501 0.00000000E+00 0.00000000E+00 -.13245308E+03 0.13245346E+03 0.32000000E+00 0.0000E+00 0.9000E+01
       25  2    1    2    0    0 -.29384150E+02 -.53323512E+02 0.10328463E+04 0.10773636E+04 0.30038977E+03 0.0000E+00 0.0000E+00
       23  2    1    2    0    0 0.29384150E+02 0.53323512E+02 -.83500060E+02 0.13688923E+03 0.89775144E+02 0.0000E+00 0.0000E+00
       24  1    3    3    0    0 -.69223937E+02 0.67112946E+02 0.71346332E+03 0.72442613E+03 0.80419002E+02 0.0000E+00 0.9000E+01
      -11  1    4    4    0    0 0.54423678E+02 0.18467536E+02 -.21241406E+02 0.61271396E+02 0.51099893E-03 0.0000E+00 0.9000E+01
       11  1    4    4    0    0 -.25039528E+02 0.34855976E+02 -.62258654E+02 0.75617836E+02 0.51099893E-03 0.0000E+00 0.9000E+01
      -24  1    3    3    0    0 0.39839787E+02 -.12043646E+03 0.31938302E+03 0.35293750E+03 0.80419002E+02 0.0000E+00 0.9000E+01
#aMCatNLO 1  0  0  1  2 0.69760664D+02 0.00000000D+00  -5  7  0 0.00000000D+00 0.00000000D+00 0.00000000D+00 0.00000000D+00 0.00000000D+00
  <mgrwgt>
 0.1055682070D-02    4    2    0
 0.378533904367825D+03 0.000000000000000D+00 0.000000000000000D+00 0.378533904367825D+03
 0.378533904367825D+03 0.000000000000000D+00 0.000000000000000D+00 -.378533904367825D+03
 0.267232024279283D+03 -.692239372508925D+02 0.671129463761947D+02 0.235901754521290D+03
 0.124908782709782D+03 0.544236783929987D+02 0.184675363926970D+02 -.110901836449175D+03
 0.199353603889021D+03 -.250395279011701D+02 0.348559758180195D+02 -.194679075341447D+03
 0.165573397857564D+03 0.398397867590638D+02 -.120436458586911D+03 0.696791572693311D+02
 0.000000000000000D+00 0.000000000000000D+00 0.000000000000000D+00 -.000000000000000D+00
 0.385544747346302D+03 0.000000000000000D+00 0.000000000000000D+00 0.385544747346302D+03
 0.605140761521597D+03 0.000000000000000D+00 0.000000000000000D+00 -.605140761521597D+03
 0.271050274706980D+03 -.910161608287211D+02 0.553846201227031D+02 0.235901754521290D+03
 0.120215499164923D+03 0.444998834530046D+02 0.131266631076315D+02 -.110901836449175D+03
 0.200707757816905D+03 -.412359115748762D+02 0.261392667968616D+02 -.194679075341447D+03
 0.168301561455729D+03 0.263229429503481D+02 -.127711069804988D+03 0.696791572693311D+02
 0.230410415723362D+03 0.614292460002446D+02 0.330605197777915D+02 -.219596014175295D+03
0.188135491276D-04 0.000000000000D+00 0.000000000000D+00 0.842330947424D-06 0.000000000000D+00  7 2 -2 24 -11 11 -24 21 0 0.16643070D+00 0.20377430D-01 0.35370133D+05 0.35370133D+05 0.35370133D+05 0.11607582D+01  1  2  2  1  7  1        2 0.105323485894D-02 0.100000000000D+01
-.423401252297D-06 0.000000000000D+00 -.722489823711D-07 0.842330947424D-06 0.000000000000D+00  7 2 -2 24 -11 11 -24 21 2 0.16643070D+00 0.20377430D-01 0.35370133D+05 0.35370133D+05 0.35370133D+05 0.11607582D+01  1  2  3  1  7  1        2 -.319367075288D-04 0.100000000000D+01
0.117319993200D-05 0.000000000000D+00 0.000000000000D+00 0.842330947424D-06 0.000000000000D+00  7 2 -2 24 -11 11 -24 21 2 0.16643070D+00 0.20377430D-01 0.35370133D+05 0.35370133D+05 0.35370133D+05 0.11607582D+01  1  2 15  1  7  1        2 0.884932269279D-04 0.100000000000D+01
-.717354755840D-06 0.000000000000D+00 0.000000000000D+00 0.842330947424D-06 0.000000000000D+00  7 2 -2 24 -11 11 -24 21 2 0.16643070D+00 0.20377430D-01 0.35370133D+05 0.35370133D+05 0.35370133D+05 0.11607582D+01  1  2  4  1  7  1        2 -.541093086223D-04 0.100000000000D+01
  </mgrwgt>
  </event>
  <event>
  8     66 0.26993063E-05 0.23472273E+03 0.75467711E-02 0.84326309E-01
        2 -1    0    0  501    0 0.00000000E+00 0.00000000E+00 0.86848333E+03 0.86848339E+03 0.32000000E+00 0.0000E+00 0.9000E+01
       -2 -1    0    0    0  501 0.00000000E+00 0.00000000E+00 -.12627200E+03 0.12627241E+03 0.32000000E+00 0.0000E+00 0.9000E+01
       25  2    1    2    0    0 -.83391091E+02 0.92273459E+02 0.77250869E+03 0.83737953E+03 0.29827224E+03 0.0000E+00 0.0000E+00
       23  2    1    2    0    0 0.83391091E+02 -.92273459E+02 -.30297368E+02 0.15737627E+03 0.91547219E+02 0.0000E+00 0.0000E+00
       24  1    3    3    0    0 0.87004566E+02 0.42445843E+02 0.25443184E+03 0.28385599E+03 0.80419002E+02 0.0000E+00 0.9000E+01
      -13  1    4    4    0    0 0.97474344E+02 -.92825833E+02 -.13244679E+02 0.13525278E+03 0.10565837E+00 0.0000E+00 0.9000E+01
       13  1    4    4    0    0 -.14083253E+02 0.55237316E+00 -.17052689E+02 0.22123483E+02 0.10565837E+00 0.0000E+00 0.9000E+01
      -24  1    3    3    0    0 -.17039566E+03 0.49827616E+02 0.51807685E+03 0.55352354E+03 0.80419002E+02 0.0000E+00 0.9000E+01
#aMCatNLO 1  0  0  1  2 0.13618668D+04 0.00000000D+00  -5  7  0 0.00000000D+00 0.00000000D+00 0.00000000D+00 0.00000000D+00 0.00000000D+00
  <mgrwgt>
 0.1296432151D-02    5    2    0
 0.331157607468508D+03 0.000000000000000D+00 0.000000000000000D+00 0.331157607468508D+03
 0.331157607468508D+03 0.000000000000000D+00 0.000000000000000D+00 -.331157607468508D+03
 0.141209492840210D+03 0.870045660249544D+02 0.424458431783629D+02 0.640426483017838D+02
 0.217983800996308D+03 0.974744919839497D+02 -.928259566615735D+02 -.171461373723451D+03
 0.523376394891362D+02 -.140834007449745D+02 0.552497168891893D+00 -.504041771843327D+02
 0.250784281611362D+03 -.170395657263930D+03 0.498276163143187D+02 0.157822902605999D+03
 0.000000000000000D+00 0.000000000000000D+00 -.000000000000000D+00 0.000000000000000D+00
 0.158788663796492D+04 0.000000000000000D+00 0.000000000000000D+00 0.158788663796492D+04
 0.131535932762872D+04 0.000000000000000D+00 0.000000000000000D+00 -.131535932762872D+04
 0.169147475338332D+03 -.101859197163059D+03 0.875608109301882D+02 0.640426483017838D+02
 0.259127208647762D+03 -.192865310175652D+03 -.234708268558519D+02 -.171461373723451D+03
 0.148099698804515D+03 -.136056979155982D+03 0.296890237513325D+02 -.504041771843327D+02
 0.938004273031574D+03 -.893817726316825D+03 0.222635585219343D+03 0.157822902605999D+03
 0.138886730977146D+04 0.132459921281152D+04 -.316414593045012D+03 0.272527310336200D+03
0.156516170669D-04 0.000000000000D+00 0.000000000000D+00 0.234948368456D-06 0.000000000000D+00  7 2 -2 24 -13 13 -24 21 0 0.13361286D+00 0.19426498D-01 0.55094759D+05 0.55094759D+05 0.55094759D+05 0.11436071D+01  1  2  2  1  7  1        2 0.127184208824D-02 0.100000000000D+01
-.744288418629D-06 0.000000000000D+00 -.601063307022D-07 0.234948368456D-06 0.000000000000D+00  7 2 -2 24 -13 13 -24 21 2 0.13361286D+00 0.19426498D-01 0.55094759D+05 0.55094759D+05 0.55094759D+05 0.11436071D+01  1  2  3  1  7  1        2 -.790986226994D-04 0.100000000000D+01
0.969726782869D-06 0.000000000000D+00 0.000000000000D+00 0.234948368456D-06 0.000000000000D+00  7 2 -2 24 -13 13 -24 21 2 0.13361286D+00 0.19426498D-01 0.55094759D+05 0.55094759D+05 0.55094759D+05 0.11436071D+01  1  2 15  1  7  1        2 0.103056894343D-03 0.100000000000D+01
0.179001705106D-04 0.000000000000D+00 -.737052277327D-05 0.234948368456D-06 0.000000000000D+00  7 2 -2 24 -13 13 -24 21 2 0.83093305D+00 0.19426498D-01 0.55094759D+05 0.55094759D+05 0.55094759D+05 0.11436071D+01  1  2  5  1  7  1        2 0.631243856018D-06 0.100000000000D+01
0.348613420773D-05 0.000000000000D+00 -.165082364483D-05 0.234948368456D-06 0.000000000000D+00  7 21 -2 24 -13 13 -24 -2 2 0.83093305D+00 0.19426498D-01 0.55094759D+05 0.55094759D+05 0.55094759D+05 0.11436071D+01  1  2  5  3  7  1        2 0.546791947512D-09 0.100000000000D+01
  </mgrwgt>
  </event>
  <event>
  8     66 0.26993063E-05 0.38113658E+03 0.75467711E-02 0.88611238E-01
        2 -1    0    0  501    0 0.00000000E+00 0.00000000E+00 0.56492702E+03 0.56492711E+03 0.32000000E+00 0.0000E+00 0.9000E+01
       -2 -1    0    0    0  501 0.00000000E+00 0.00000000E+00 -.26744720E+03 0.26744740E+03 0.32000000E+00 0.0000E+00 0.9000E+01
       25  2    1    2    0    0 -.32341600E+03 0.15444617E+02 0.16229490E+03 0.46987652E+03 0.29934572E+03 0.0000E+00 0.0000E+00
       23  2    1    2    0    0 0.32341600E+03 -.15444617E+02 0.13518492E+03 0.36249799E+03 0.91068028E+02 0.0000E+00 0.0000E+00
       24  1    3    3    0    0 0.15303969E+02 0.23286172E+02 -.13430228E+01 0.85120367E+02 0.80419002E+02 0.0000E+00 0.9000E+01
      -11  1    4    4    0    0 0.17015523E+03 -.37109778E+02 0.33630783E+02 0.17737240E+03 0.51099893E-03 0.0000E+00 0.9000E+01
       11  1    4    4    0    0 0.15326077E+03 0.21665161E+02 0.10155413E+03 0.18512559E+03 0.51099893E-03 0.0000E+00 0.9000E+01
      -24  1    3    3    0    0 -.33871997E+03 -.78415554E+01 0.16363792E+03 0.38475615E+03 0.80419002E+02 0.0000E+00 0.9000E+01
#aMCatNLO 1  0  0  2  1 0.71608600D+03 0.00000000D+00  -5  7  0 0.00000000D+00 0.00000000D+00 0.00000000D+00 0.00000000D+00 0.00000000D+00
  <mgrwgt>
 0.5161760518D-03    5    2    0
 0.388700744726617D+03 0.000000000000000D+00 0.000000000000000D+00 0.388700744726617D+03
 0.388700744726617D+03 0.000000000000000D+00 0.000000000000000D+00 -.388700744726617D+03
 0.916534723030710D+02 0.153039693164165D+02 0.232861721246068D+02 -.340100829429250D+02
 0.177045948147473D+03 0.170155231576259D+03 -.371097777536016D+02 -.318642325773856D+02
 0.159355903851496D+03 0.153260768575879D+03 0.216651610053303D+02 0.378954048199939D+02
 0.349346165151194D+03 -.338719969468554D+03 -.784155537633556D+01 0.279789107003167D+02
 0.000000000000000D+00 -.000000000000000D+00 0.000000000000000D+00 -.000000000000000D+00
 0.777930960841770D+03 0.000000000000000D+00 0.000000000000000D+00 0.777930960841770D+03
 0.104236445880057D+04 0.000000000000000D+00 0.000000000000000D+00 -.104236445880057D+04
 0.128334078081872D+03 0.931531026123275D+02 -.129704808957117D+02 -.340100829429250D+02
 0.397222208827975D+03 0.373377087639249D+03 -.131756230571696D+03 -.318642325773856D+02
 0.336207093491863D+03 0.328630464584571D+03 -.600097138362098D+02 0.378954048199939D+02
 0.195181380929481D+03 -.146022712537640D+03 -.975863898622230D+02 0.279789107003167D+02
 0.763350658311150D+03 -.649137942298507D+03 0.302322815165840D+03 -.264433497958801D+03
0.135296651681D-04 0.000000000000D+00 0.000000000000D+00 0.955995198595D-06 0.000000000000D+00  7 2 -2 24 -11 11 -24 21 0 0.86911871D-01 0.41145745D-01 0.14526509D+06 0.14526509D+06 0.14526509D+06 0.11086529D+01  1  2  2  2  7  2       -2 0.494520507004D-03 0.100000000000D+01
-.751295118975D-06 0.000000000000D+00 -.519574766880D-07 0.955995198595D-06 0.000000000000D+00  7 2 -2 24 -11 11 -24 21 2 0.86911871D-01 0.41145745D-01 0.14526509D+06 0.14526509D+06 0.14526509D+06 0.11086529D+01  1  2  3  2  7  2       -2 -.337519586978D-04 0.100000000000D+01
0.861349221038D-06 0.000000000000D+00 0.000000000000D+00 0.955995198595D-06 0.000000000000D+00  7 2 -2 24 -11 11 -24 21 2 0.86911871D-01 0.41145745D-01 0.14526509D+06 0.14526509D+06 0.14526509D+06 0.11086529D+01  1  2 15  2  7  2       -2 0.386961429652D-04 0.100000000000D+01
0.563329762049D-05 0.000000000000D+00 -.513349962269D-05 0.955995198595D-06 0.000000000000D+00  7 2 -2 24 -11 11 -24 21 2 0.86911871D-01 0.19054710D+00 0.14526509D+06 0.14526509D+06 0.14526509D+06 0.11086529D+01  1  2  5  2  7  2       -2 0.689408094850D-05 0.100000000000D+01
0.974756463848D-06 0.000000000000D+00 -.953805423011D-06 0.955995198595D-06 0.000000000000D+00  7 2 21 24 -11 11 -24 2 2 0.86911871D-01 0.19054710D+00 0.14526509D+06 0.14526509D+06 0.14526509D+06 0.11086529D+01  1  2  5  4  7  2       -2 0.981727956317D-05 0.100000000000D+01
  </mgrwgt>
  </event>
  <event>
  8     66 0.26993063E-05 0.57759803E+03 0.75467711E-02 0.89453254E-01
        2 -1    0    0  501    0 0.00000000E+00 0.00000000E+00 0.92985305E+03 0.92985311E+03 0.32000000E+00 0.0000E+00 0.9000E+01
       -2 -1    0    0    0  501 0.00000000E+00 0.00000000E+00 -.81986350E+03 0.81986356E+03 0.32000000E+00 0.0000E+00 0.9000E+01
       25  2    1    2    0    0 0.77010600E+03 -.14189562E+03 -.26220800E+03 0.87797743E+03 0.29815047E+03 0.0000E+00 0.0000E+00
       23  2    1    2    0    0 -.77010600E+03 0.14189562E+03 0.37219755E+03 0.87173924E+03 0.90557547E+02 0.0000E+00 0.0000E+00
       24  1    3    3    0    0 0.56872919E+03 -.22965026E+02 -.25936058E+03 0.63064681E+03 0.80419002E+02 0.0000E+00 0.9000E+01
      -13  1    4    4    0    0 -.50090991E+03 0.79766059E+02 0.19439712E+03 0.54319758E+03 0.10565837E+00 0.0000E+00 0.9000E+01
       13  1    4    4    0    0 -.26919610E+03 0.62129557E+02 0.17780043E+03 0.32854166E+03 0.10565837E+00 0.0000E+00 0.9000E+01
      -24  1    3    3    0    0 0.20137682E+03 -.11893059E+03 -.28474257E+01 0.24733061E+03 0.80419002E+02 0.0000E+00 0.9000E+01
#aMCatNLO 1  0  0  1  2 0.15122422D+02 0.00000000D+00  -5  7  0 0.00000000D+00 0.00000000D+00 0.00000000D+00 0.00000000D+00 0.00000000D+00
  <mgrwgt>
 0.1340827778D-02    9    2    0
 0.873128101027089D+03 0.000000000000000D+00 0.000000000000000D+00 0.873128101027089D+03
 0.873128101027089D+03 0.000000000000000D+00 0.000000000000000D+00 -.873128101027089D+03
 0.648232598074238D+03 0.568729185910193D+03 -.229650259931469D+02 -.299596405063161D+03
 0.532030016531739D+03 -.500910222683976D+03 0.797660825125942D+02 0.160568550413978D+03
 0.317993504538726D+03 -.269195781518824D+03 0.621295333543262D+02 0.157459268467955D+03
 0.248000082909476D+03 0.201376818292607D+03 -.118930589873773D+03 -.184314138187720D+02
 0.000000000000000D+00 -.000000000000000D+00 0.000000000000000D+00 0.000000000000000D+00
 0.895985233123456D+03 0.000000000000000D+00 0.000000000000000D+00 0.895985233123456D+03
 0.875665700129918D+03 0.000000000000000D+00 0.000000000000000D+00 -.875665700129918D+03
 0.652949896843627D+03 0.574019324156048D+03 -.249030400231934D+02 -.299596405063161D+03
 0.527739233417080D+03 -.496601583532411D+03 0.781876354592143D+02 0.160568550413978D+03
 0.315631403313648D+03 -.266619691407216D+03 0.611857964334862D+02 0.157459268467955D+03
 0.250001146658186D+03 0.203401511493837D+03 -.119672325467091D+03 -.184314138187720D+02
 0.253292530208344D+02 -.141995607102581D+02 0.520193359758404D+01 0.203195329935377D+02
0.283712152559D-03 0.000000000000D+00 0.000000000000D+00 0.118281934238D-05 0.000000000000D+00  7 2 -2 24 -13 13 -24 21 0 0.14305432D+00 0.12613286D+00 0.64453103D+06 0.64453103D+06 0.64453103D+06 0.10608030D+01  1  2  2  1  7  1        2 0.448614196351D-03 0.100000000000D+01
-.156267477607D-04 0.000000000000D+00 -.108952936895D-05 0.118281934238D-05 0.000000000000D+00  7 2 -2 24 -13 13 -24 21 2 0.14305432D+00 0.12613286D+00 0.64453103D+06 0.64453103D+06 0.64453103D+06 0.10608030D+01  1  2  3  1  7  1        2 -.278056577691D-04 0.100000000000D+01
0.178650184495D-04 0.000000000000D+00 0.000000000000D+00 0.118281934238D-05 0.000000000000D+00  7 2 -2 24 -13 13 -24 21 2 0.14305432D+00 0.12613286D+00 0.64453103D+06 0.64453103D+06 0.64453103D+06 0.10608030D+01  1  2 15  1  7  1        2 0.317883539591D-04 0.100000000000D+01
0.909363885321D-03 0.000000000000D+00 0.000000000000D+00 0.118281934238D-05 0.000000000000D+00  7 2 -2 24 -13 13 -24 21 2 0.14700403D+00 0.12613286D+00 0.65680691D+06 0.65680691D+06 0.65680691D+06 0.10602371D+01  1  2 12  1  7  1        2 0.155427473506D-02 0.100000000000D+01
-.926646505188D-03 0.000000000000D+00 0.000000000000D+00 0.118281934238D-05 0.000000000000D+00  7 2 -2 24 -13 13 -24 21 2 0.14305432D+00 0.12613286D+00 0.64453103D+06 0.64453103D+06 0.64453103D+06 0.10608030D+01  1  2  4  1  7  1        2 -.164884056432D-02 0.100000000000D+01
-.145860896213D-01 0.000000000000D+00 -.129157799193D-02 0.118281934238D-05 0.000000000000D+00  7 2 -2 24 -13 13 -24 21 2 0.14701297D+00 0.12613286D+00 0.64453103D+06 0.64453103D+06 0.64453103D+06 0.10608030D+01  1  2  5  1  7  1        2 -.249773915419D-01 0.100000000000D+01
0.146163804440D-01 0.000000000000D+00 0.129109696841D-02 0.118281934238D-05 0.000000000000D+00  7 2 -2 24 -13 13 -24 21 2 0.14305432D+00 0.12613286D+00 0.64453103D+06 0.64453103D+06 0.64453103D+06 0.10608030D+01  1  2  6  1  7  1        2 0.260078474851D-01 0.100000000000D+01
0.329897692156D-04 0.000000000000D+00 0.000000000000D+00 0.118281934238D-05 0.000000000000D+00  7 21 -2 24 -13 13 -24 -2 2 0.14700403D+00 0.12613286D+00 0.65680691D+06 0.65680691D+06 0.65680691D+06 0.10602371D+01  1  2 12  3  7  1        2 0.408043206165D-04 0.100000000000D+01
-.713394863662D-04 0.000000000000D+00 -.634788843470D-05 0.118281934238D-05 0.000000000000D+00  7 21 -2 24 -13 13 -24 -2 2 0.14701297D+00 0.12613286D+00 0.64453103D+06 0.64453103D+06 0.64453103D+06 0.10608030D+01  1  2  5  3  7  1        2 -.884635488323D-04 0.100000000000D+01
  </mgrwgt>
  </event>
  <event>
  9     66 0.26993063E-05 0.24799781E+03 0.75467711E-02 0.10162792E+00
        2 -1    0    0  501    0 0.00000000E+00 0.00000000E+00 0.17790301E+04 0.17790301E+04 0.32000000E+00 0.0000E+00 0.9000E+01
       21 -1    0    0  502  501 0.00000000E+00 0.00000000E+00 -.52404462E+02 0.52409829E+02 0.75000000E+00 0.0000E+00 0.9000E+01
       25  2    1    2    0    0 0.10013315E+03 -.14049923E+03 0.13079332E+04 0.13529852E+04 0.30018855E+03 0.0000E+00 0.0000E+00
       23  2    1    2    0    0 -.11228231E+03 0.78408501E+02 0.26674883E+03 0.31386484E+03 0.92741515E+02 0.0000E+00 0.0000E+00
       24  1    3    3    0    0 0.17570848E+03 -.91058456E+02 0.65516691E+03 0.68911248E+03 0.80419002E+02 0.0000E+00 0.9000E+01
      -13  1    4    4    0    0 0.16658051E+02 0.89286088E+01 0.28681984E+02 0.34349354E+02 0.10565837E+00 0.0000E+00 0.9000E+01
       13  1    4    4    0    0 -.12894036E+03 0.69479892E+02 0.23806685E+03 0.27951549E+03 0.10565837E+00 0.0000E+00 0.9000E+01
      -24  1    3    3    0    0 -.75575326E+02 -.49440770E+02 0.65276624E+03 0.66387273E+03 0.80419002E+02 0.0000E+00 0.9000E+01
        2  1    1    2  502    0 0.12149158E+02 0.62090726E+02 0.15194362E+03 0.16458987E+03 0.32000000E+00 0.0000E+00 0.9000E+01
#aMCatNLO 2  0  0  2  1 0.63268162D+02 0.00000000D+00  -5  7  0 0.00000000D+00 0.00000000D+00 0.00000000D+00 0.00000000D+00 0.00000000D+00
  <mgrwgt>
 0.3345285487D-04    2    2    0
 0.271460347111891D+03 0.000000000000000D+00 0.000000000000000D+00 0.271460347111891D+03
 0.271460347111891D+03 0.000000000000000D+00 0.000000000000000D+00 -.271460347111891D+03
 0.208959555297033D+03 0.180424820562861D+03 -.669546645835086D+02 0.126821453600063D+02
 0.236625264895870D+02 0.171687404896528D+02 0.115375874260505D+02 -.114905868542737D+02
 0.172729600030436D+03 -.125157341019990D+03 0.888148232061086D+02 -.792658936387401D+02
 0.137569012406726D+03 -.724362200325236D+02 -.333977460486505D+02 0.780743351330076D+02
 0.000000000000000D+00 0.000000000000000D+00 0.000000000000000D+00 -.000000000000000D+00
 0.299984252329095D+03 0.000000000000000D+00 0.000000000000000D+00 0.299984252329095D+03
 0.310795681851665D+03 0.000000000000000D+00 0.000000000000000D+00 -.310795681851665D+03
 0.213993380442103D+03 0.175708483294801D+03 -.910584592774138D+02 0.126821453600063D+02
 0.221189728561246D+02 0.166582321722806D+02 0.892853150572750D+01 -.114905868542737D+02
 0.166541928255726D+03 -.128940549073745D+03 0.694799739302523D+02 -.792658936387401D+02
 0.143940395055347D+03 -.755753241680760D+02 -.494407720889137D+02 0.780743351330076D+02
 0.641852575714592D+02 0.121491577747390D+02 0.620907259303477D+02 -.108114295225702D+02
-.109784088647D-06 0.000000000000D+00 0.000000000000D+00 0.373739655120D-06 0.000000000000D+00  7 2 21 24 -13 13 -24 2 2 0.24767260D+00 0.83868667D-02 0.79293211D+05 0.79293211D+05 0.79293211D+05 0.11300859D+01  1  2 13  4  7  2       -2 -.243410402920D-03 0.100000000000D+01
0.143717086130D-06 0.000000000000D+00 0.000000000000D+00 0.373739655120D-06 0.143527003418D-10  7 2 21 24 -13 13 -24 2 2 0.27369699D+00 0.80626294D-02 0.79293211D+05 0.79293211D+05 0.79293211D+05 0.11300859D+01  1  2  1  4  7  2       -2 0.276863257791D-03 0.100000000000D+01
  </mgrwgt>
  </event>
  <event>
  8     66 0.26993063E-05 0.19700194E+03 0.75467711E-02 0.10232291E+00
        2 -1    0    0  501    0 0.00000000E+00 0.00000000E+00 0.41716445E+03 0.41716457E+03 0.32000000E+00 0.0000E+00 0.9000E+01
       -2 -1    0    0    0  501 0.00000000E+00 0.00000000E+00 -.18019216E+03 0.18019244E+03 0.32000000E+00 0.0000E+00 0.9000E+01
       25  2    1    2    0    0 0.12827781E+03 -.11286582E+03 0.79215142E+02 0.34768892E+03 0.29226469E+03 0.0000E+00 0.0000E+00
       23  2    1    2    0    0 -.12827781E+03 0.11286582E+03 0.15775715E+03 0.24966810E+03 0.90845752E+02 0.0000E+00 0.0000E+00
       24  1    3    3    0    0 -.39336911E+02 -.10823132E+03 -.11207123E+02 0.14090503E+03 0.80419002E+02 0.0000E+00 0.9000E+01
      -13  1    4    4    0    0 -.49844177E+02 0.81631671E+02 0.37498475E+02 0.10273421E+03 0.10565837E+00 0.0000E+00 0.9000E+01
       13  1    4    4    0    0 -.78433636E+02 0.31234153E+02 0.12025867E+03 0.14693389E+03 0.10565837E+00 0.0000E+00 0.9000E+01
      -24  1    3    3    0    0 0.16761472E+03 -.46345024E+01 0.90422265E+02 0.20678389E+03 0.80419002E+02 0.0000E+00 0.9000E+01
#aMCatNLO 1  0  0  2  1 0.26245255D+02 0.00000000D+00  -5  7  0 0.00000000D+00 0.00000000D+00 0.00000000D+00 0.00000000D+00 0.00000000D+00
  <mgrwgt>
 0.1130593539D-02    9    2    0
 0.274171267618195D+03 0.000000000000000D+00 0.000000000000000D+00 0.274171267618195D+03
 0.274171267618195D+03 0.000000000000000D+00 0.000000000000000D+00 -.274171267618195D+03
 0.158343330210697D+03 -.393369042037710D+02 -.108231320781907D+03 -.731025542461445D+02
 0.957118799458002D+02 -.498441399345868D+02 0.816317403609072D+02 -.354748398023533D+01
 0.108096711952809D+03 -.784336763234545D+02 0.312340871978659D+02 0.675091797484770D+02
 0.186190613127085D+03 0.167614720461812D+03 -.463450677686586D+01 0.914085847790288D+01
 0.000000000000000D+00 0.000000000000000D+00 0.000000000000000D+00 -.000000000000000D+00
 0.282385004672287D+03 0.000000000000000D+00 0.000000000000000D+00 0.282385004672287D+03
 0.296283374532311D+03 0.000000000000000D+00 0.000000000000000D+00 -.296283374532311D+03
 0.163866546951155D+03 -.436724896219508D+02 -.114602615451109D+03 -.731025542461445D+02
 0.939334220578925D+02 -.523959655124865D+02 0.778817432710033D+02 -.354748398023533D+01
 0.109096502435948D+03 -.813561805667322D+02 0.269393648224661D+02 0.675091797484770D+02
 0.182073791306606D+03 0.162659435428463D+03 -.119164717417278D+02 0.914085847790288D+01
 0.296981164529965D+02 0.147652002727064D+02 0.216979790993675D+02 -.138983698600240D+02
0.855860245242D-05 0.000000000000D+00 0.000000000000D+00 0.463027894906D-08 0.000000000000D+00  7 2 -2 24 -13 13 -24 21 0 0.64179177D-01 0.27721902D-01 0.64134253D+05 0.64134253D+05 0.64134253D+05 0.11379049D+01  1  2  2  2  7  2       -2 0.895256526407D-03 0.100000000000D+01
-.471834570509D-06 0.000000000000D+00 -.328672869491D-07 0.463027894906D-08 0.000000000000D+00  7 2 -2 24 -13 13 -24 21 2 0.64179177D-01 0.27721902D-01 0.64134253D+05 0.64134253D+05 0.64134253D+05 0.11379049D+01  1  2  3  2  7  2       -2 -.639066929834D-04 0.100000000000D+01
0.562244600985D-06 0.000000000000D+00 0.000000000000D+00 0.463027894906D-08 0.000000000000D+00  7 2 -2 24 -13 13 -24 21 2 0.64179177D-01 0.27721902D-01 0.64134253D+05 0.64134253D+05 0.64134253D+05 0.11379049D+01  1  2 15  2  7  2       -2 0.761520993638D-04 0.100000000000D+01
0.223840311246D-04 0.000000000000D+00 0.000000000000D+00 0.463027894906D-08 0.000000000000D+00  7 2 -2 24 -13 13 -24 21 2 0.64179177D-01 0.30348981D-01 0.71372650D+05 0.71372650D+05 0.71372650D+05 0.11339434D+01  1  2 12  2  7  2       -2 0.257263431956D-02 0.100000000000D+01
-.218514466785D-04 0.000000000000D+00 0.000000000000D+00 0.463027894906D-08 0.000000000000D+00  7 2 -2 24 -13 13 -24 21 2 0.64179177D-01 0.27721902D-01 0.64134253D+05 0.64134253D+05 0.64134253D+05 0.11379049D+01  1  2  4  2  7  2       -2 -.295962564298D-02 0.100000000000D+01
-.593313522599D-04 0.000000000000D+00 -.108267037822D-04 0.463027894906D-08 0.000000000000D+00  7 2 -2 24 -13 13 -24 21 2 0.64179177D-01 0.30765597D-01 0.64134253D+05 0.64134253D+05 0.64134253D+05 0.11379049D+01  1  2  5  2  7  2       -2 -.670420233657D-02 0.100000000000D+01
0.601907999660D-04 0.000000000000D+00 0.107682210247D-04 0.463027894906D-08 0.000000000000D+00  7 2 -2 24 -13 13 -24 21 2 0.64179177D-01 0.27721902D-01 0.64134253D+05 0.64134253D+05 0.64134253D+05 0.11379049D+01  1  2  6  2  7  2       -2 0.815242293438D-02 0.100000000000D+01
0.333466818077D-06 0.000000000000D+00 0.000000000000D+00 0.463027894906D-08 0.000000000000D+00  7 2 21 24 -13 13 -24 2 2 0.64179177D-01 0.30348981D-01 0.71372650D+05 0.71372650D+05 0.71372650D+05 0.11339434D+01  1  2 12  4  7  2       -2 0.457888677588D-03 0.100000000000D+01
-.959691342692D-06 0.000000000000D+00 -.182155660591D-06 0.463027894906D-08 0.000000000000D+00  7 2 21 24 -13 13 -24 2 2 0.64179177D-01 0.30765597D-01 0.64134253D+05 0.64134253D+05 0.64134253D+05 0.11379049D+01  1  2  5  4  7  2       -2 -.129602634569D-02 0.100000000000D+01
  </mgrwgt>
  </event>
  <event>
  8     66 0.26993063E-05 0.84837550E+03 0.75467711E-02 0.84020347E-01
        2 -1    0    0  501    0 0.00000000E+00 0.00000000E+00 0.15002288E+04 0.15002289E+04 0.32000000E+00 0.0000E+00 0.9000E+01
       -2 -1    0    0    0  501 0.00000000E+00 0.00000000E+00 -.54424821E+03 0.54424830E+03 0.32000000E+00 0.0000E+00 0.9000E+01
       25  2    1    2    0    0 -.76589487E+03 0.31402636E+03 0.16552335E+03 0.89574916E+03 0.29960150E+03 0.0000E+00 0.0000E+00
       23  2    1    2    0    0 0.76589487E+03 -.31402636E+03 0.79045728E+03 0.11487280E+04 0.97702734E+02 0.0000E+00 0.0000E+00
       24  1    3    3    0    0 -.11934508E+03 -.29758374E+01 0.83898033E+02 0.16660792E+03 0.80419002E+02 0.0000E+00 0.9000E+01
      -13  1    4    4    0    0 0.54200147E+02 -.14590092E+02 0.24865568E+02 0.61390833E+02 0.10565837E+00 0.0000E+00 0.9000E+01
       13  1    4    4    0    0 0.71169473E+03 -.29943627E+03 0.76559171E+03 0.10873372E+04 0.10565837E+00 0.0000E+00 0.9000E+01
      -24  1    3    3    0    0 -.64654980E+03 0.31700220E+03 0.81625317E+02 0.72914124E+03 0.80419002E+02 0.0000E+00 0.9000E+01
#aMCatNLO 1  0  0  1  1 0.94141572D+03 0.00000000D+00  -5  7  0 0.00000000D+00 0.00000000D+00 0.00000000D+00 0.00000000D+00 0.00000000D+00
  <mgrwgt>
 0.1359557822D-02    5    2    0
 0.903602225357441D+03 0.000000000000000D+00 0.000000000000000D+00 0.903602225357441D+03
 0.903602225357441D+03 0.000000000000000D+00 0.000000000000000D+00 -.903602225357441D+03
 0.144101677532258D+03 -.119345076669576D+03 -.297583740315122D+01 0.678045571648617D+01
 0.562966353909804D+02 0.541993782101839D+02 -.145897587851603D+02 -.434482411211918D+01
 0.825112408236066D+03 0.711695494457465D+03 -.299436603424981D+03 0.290925643289445D+03
 0.781693729555577D+03 -.646549795998072D+03 0.317002199613292D+03 -.293361274893812D+03
 0.000000000000000D+00 -.000000000000000D+00 0.000000000000000D+00 0.000000000000000D+00
 0.157821891127739D+04 0.000000000000000D+00 0.000000000000000D+00 0.157821891127739D+04
 0.141495608969607D+04 0.000000000000000D+00 0.000000000000000D+00 -.141495608969607D+04
 0.154959364678253D+03 -.108679208663834D+03 -.754191207294061D+02 0.678045571648617D+01
 0.751087155531877D+02 0.588858867505779D+02 -.464208358076684D+02 -.434482411211918D+01
 0.113867477140401D+04 0.781733018217131D+03 -.775136112781311D+03 0.290925643289445D+03
 0.668964559434438D+03 -.594812766937257D+03 -.343991352516819D+02 -.293361274893812D+03
 0.955467589903575D+03 -.137126929366617D+03 0.931375204570068D+03 0.163262821581316D+03
0.697663547425D-03 0.000000000000D+00 0.000000000000D+00 0.648259902267D-06 0.000000000000D+00  7 2 -2 24 -13 13 -24 21 0 0.23080445D+00 0.83730503D-01 0.71974099D+06 0.71974099D+06 0.71974099D+06 0.10575057D+01  1  2  2  1  7  1        2 0.137837163487D-02 0.100000000000D+01
-.385716537479D-04 0.000000000000D+00 -.267921172114D-05 0.648259902267D-06 0.000000000000D+00  7 2 -2 24 -13 13 -24 21 2 0.23080445D+00 0.83730503D-01 0.71974099D+06 0.71974099D+06 0.71974099D+06 0.10575057D+01  1  2  3  1  7  1        2 -.852224401446D-04 0.100000000000D+01
0.436209700641D-04 0.000000000000D+00 0.000000000000D+00 0.648259902267D-06 0.000000000000D+00  7 2 -2 24 -13 13 -24 21 2 0.23080445D+00 0.83730503D-01 0.71974099D+06 0.71974099D+06 0.71974099D+06 0.10575057D+01  1  2 15  1  7  1        2 0.963786913217D-04 0.100000000000D+01
-.123326500847D-03 0.000000000000D+00 -.188887123444D-03 0.648259902267D-06 0.000000000000D+00  7 2 -2 24 -13 13 -24 21 2 0.48301152D+00 0.83730503D-01 0.71974099D+06 0.71974099D+06 0.71974099D+06 0.10575057D+01  1  2  5  1  7  1        2 -.299940440140D-04 0.100000000000D+01
0.182835819251D-05 0.000000000000D+00 -.150847559069D-04 0.648259902267D-06 0.000000000000D+00  7 21 -2 24 -13 13 -24 -2 2 0.48301152D+00 0.83730503D-01 0.71974099D+06 0.71974099D+06 0.71974099D+06 0.10575057D+01  1  2  5  3  7  1        2 0.239802400432D-07 0.100000000000D+01
  </mgrwgt>
  </event>
  <event>
  8     66 0.26993063E-05 0.26929757E+03 0.75467711E-02 0.93185929E-01
        2 -1    0    0  501    0 0.00000000E+00 0.00000000E+00 0.10953766E+04 0.10953766E+04 0.32000000E+00 0.0000E+00 0.9000E+01
       -2 -1    0    0    0  501 0.00000000E+00 0.00000000E+00 -.15087271E+03 0.15087305E+03 0.32000000E+00 0.0000E+00 0.9000E+01
       25  2    1    2    0    0 0.40479203E+02 0.21854236E+03 0.93942064E+03 0.10106768E+04 0.29926090E+03 0.0000E+00 0.0000E+00
       23  2    1    2    0    0 -.40479203E+02 -.21854236E+03 0.50832096E+01 0.23557288E+03 0.77906435E+02 0.0000E+00 0.0000E+00
       24  1    3    3    0    0 -.29157002E+02 0.15249137E+02 0.56429355E+03 0.57094403E+03 0.80419002E+02 0.0000E+00 0.9000E+01
      -13  1    4    4    0    0 -.36121870E+02 -.19360209E+03 -.22391024E+02 0.19821183E+03 0.10565837E+00 0.0000E+00 0.9000E+01
       13  1    4    4    0    0 -.43573327E+01 -.24940267E+02 0.27474234E+02 0.37361049E+02 0.10565837E+00 0.0000E+00 0.9000E+01
      -24  1    3    3    0    0 0.69636205E+02 0.20329322E+03 0.37512710E+03 0.43973275E+03 0.80419002E+02 0.0000E+00 0.9000E+01
#aMCatNLO 1  0  0  1  1 0.42595526D+03 0.00000000D+00  -5  7  0 0.00000000D+00 0.00000000D+00 0.00000000D+00 0.00000000D+00 0.00000000D+00
  <mgrwgt>
 0.8983320406D-02    5    2    0
 0.406525116643097D+03 0.000000000000000D+00 0.000000000000000D+00 0.406525116643097D+03
 0.406525116643097D+03 0.000000000000000D+00 0.000000000000000D+00 -.406525116643097D+03
 0.219619121072554D+03 -.291570022169249D+02 0.152491369209797D+02 0.201699468098451D+03
 0.329832370760570D+03 -.361219287468778D+02 -.193602401915628D+03 -.264580250656854D+03
 0.253504868672455D+02 -.435727422779818D+01 -.249399570623569D+02 -.128836618938260D+01
 0.238248254585824D+03 0.696362051916008D+02 0.203293222057006D+03 0.641691487477848D+02
 0.000000000000000D+00 0.000000000000000D+00 -.000000000000000D+00 0.000000000000000D+00
 0.710956186019495D+03 0.000000000000000D+00 0.000000000000000D+00 0.710956186019495D+03
 0.638919279868556D+03 0.000000000000000D+00 0.000000000000000D+00 -.638919279868556D+03
 0.263212788271241D+03 -.147975045221048D+03 0.153122994935884D+02 0.201699468098451D+03
 0.391225893543620D+03 -.213564078278818D+03 -.193508075310255D+03 -.264580250656854D+03
 0.308945884854003D+02 -.181983846695323D+02 -.249325992560747D+02 -.128836618938260D+01
 0.232538489734722D+03 -.462176945816634D+02 0.203354808918491D+03 0.641691487477848D+02
 0.432003705853067D+03 0.425955202751061D+03 -.226433845749051D+00 0.720369061509392D+02
0.197215979509D-03 0.000000000000D+00 0.000000000000D+00 0.162102727269D-07 0.000000000000D+00  7 2 -2 24 -13 13 -24 21 0 0.16851950D+00 0.23211216D-01 0.72521183D+05 0.72521183D+05 0.72521183D+05 0.11333556D+01  1  2  2  1  7  1        2 0.864994951395D-02 0.100000000000D+01
-.869708882578D-05 0.000000000000D+00 -.757361289476D-06 0.162102727269D-07 0.000000000000D+00  7 2 -2 24 -13 13 -24 21 2 0.16851950D+00 0.23211216D-01 0.72521183D+05 0.72521183D+05 0.72521183D+05 0.11333556D+01  1  2  3  1  7  1        2 -.489979336254D-03 0.100000000000D+01
0.120066419945D-04 0.000000000000D+00 0.000000000000D+00 0.162102727269D-07 0.000000000000D+00  7 2 -2 24 -13 13 -24 21 2 0.16851950D+00 0.23211216D-01 0.72521183D+05 0.72521183D+05 0.72521183D+05 0.11333556D+01  1  2 15  1  7  1        2 0.676433987621D-03 0.100000000000D+01
0.131033940310D-04 0.000000000000D+00 -.569980161158D-04 0.162102727269D-07 0.000000000000D+00  7 2 -2 24 -13 13 -24 21 2 0.37304390D+00 0.23211216D-01 0.72521183D+05 0.72521183D+05 0.72521183D+05 0.11333556D+01  1  2  5  1  7  1        2 0.139978113758D-03 0.100000000000D+01
0.472391149340D-05 0.000000000000D+00 -.491157925368D-05 0.162102727269D-07 0.000000000000D+00  7 21 -2 24 -13 13 -24 -2 2 0.37304390D+00 0.23211216D-01 0.72521183D+05 0.72521183D+05 0.72521183D+05 0.11333556D+01  1  2  5  3  7  1        2 0.693812695703D-05 0.100000000000D+01
  </mgrwgt>
  </event>
  <event>
  8     66 0.26993063E-05 0.22893854E+03 0.75467711E-02 0.97419604E-01
        2 -1    0    0  501    0 0.00000000E+00 0.00000000E+00 0.27400884E+03 0.27400903E+03 0.32000000E+00 0.0000E+00 0.9000E+01
       -2 -1    0    0    0  501 0.00000000E+00 0.00000000E+00 -.43348540E+03 0.43348551E+03 0.32000000E+00 0.0000E+00 0.9000E+01
       25  2    1    2    0    0 0.12755428E+03 -.10964719E+03 0.12408549E+03 0.36575160E+03 0.30014067E+03 0.0000E+00 0.0000E+00
       23  2    1    2    0    0 -.12755428E+03 0.10964719E+03 -.28356204E+03 0.34174294E+03 0.89934454E+02 0.0000E+00 0.0000E+00
       24  1    3    3    0    0 0.44855367E+02 0.34438566E+02 -.51515573E+02 0.11099139E+03 0.80419002E+02 0.0000E+00 0.9000E+01
      -11  1    4    4    0    0 -.92467035E+01 0.32413508E+02 -.12455085E+03 0.12903121E+03 0.51099893E-03 0.0000E+00 0.9000E+01
       11  1    4    4    0    0 -.11830758E+03 0.77233682E+02 -.15901119E+03 0.21271174E+03 0.51099893E-03 0.0000E+00 0.9000E+01
      -24  1    3    3    0    0 0.82698914E+02 -.14408576E+03 0.17560106E+03 0.25476021E+03 0.80419002E+02 0.0000E+00 0.9000E+01
#aMCatNLO 1  0  0  1  2 0.27994647D+03 0.00000000D+00  -5  7  0 0.00000000D+00 0.00000000D+00 0.00000000D+00 0.00000000D+00 0.00000000D+00
  <mgrwgt>
 0.7018702025D-03    3    2    0
 0.344643204397683D+03 0.000000000000000D+00 0.000000000000000D+00 0.344643204397683D+03
 0.344643204397683D+03 0.000000000000000D+00 0.000000000000000D+00 -.344643204397683D+03
 0.102004444768400D+03 0.448553673358781D+02 0.344385656817908D+02 -.271969118299002D+02
 0.103623010847365D+03 -.924670346198616D+01 0.324135077421621D+02 -.979877102906684D+02
 0.181541132215645D+03 -.118307577619233D+03 0.772336822212450D+02 -.113997623196955D+03
 0.302117820963957D+03 0.826989137453415D+02 -.144085755645198D+03 0.239182245317524D+03
 0.000000000000000D+00 0.000000000000000D+00 -.000000000000000D+00 -.000000000000000D+00
 0.503497073056560D+03 0.000000000000000D+00 0.000000000000000D+00 0.503497073056560D+03
 0.520959769102638D+03 0.000000000000000D+00 0.000000000000000D+00 -.520959769102638D+03
 0.118148571193070D+03 0.322886604279400D+02 0.755621553112354D+02 -.271969118299002D+02
 0.125530444126713D+03 -.223271706680526D+02 0.752183387519387D+02 -.979877102906684D+02
 0.239982839995774D+03 -.142368879665524D+03 0.155972457506656D+03 -.113997623196955D+03
 0.260304394073178D+03 0.505949014336410D+02 -.390278246027347D+02 0.239182245317524D+03
 0.280490592770463D+03 0.818124884719955D+02 -.267725126967096D+03 -.174626960460781D+02
0.218414324200D-04 0.000000000000D+00 0.000000000000D+00 0.102595712690D-05 0.000000000000D+00  7 2 -2 24 -11 11 -24 21 0 0.42155230D-01 0.66690084D-01 0.52412857D+05 0.52412857D+05 0.52412857D+05 0.11454994D+01  1  2  2  1  7  1        2 0.686686882814D-03 0.100000000000D+01
-.966550005287D-06 0.000000000000D+00 -.838768514740D-07 0.102595712690D-05 0.000000000000D+00  7 2 -2 24 -11 11 -24 21 2 0.42155230D-01 0.66690084D-01 0.52412857D+05 0.52412857D+05 0.52412857D+05 0.11454994D+01  1  2  3  1  7  1        2 -.398741726728D-04 0.100000000000D+01
0.133459369677D-05 0.000000000000D+00 0.000000000000D+00 0.102595712690D-05 0.000000000000D+00  7 2 -2 24 -11 11 -24 21 2 0.42155230D-01 0.66690084D-01 0.52412857D+05 0.52412857D+05 0.52412857D+05 0.11454994D+01  1  2 15  1  7  1        2 0.550574923409D-04 0.100000000000D+01
  </mgrwgt>
  </event>
  <event>
  9     66 0.26993063E-05 0.27698606E+03 0.75467711E-02 0.98342312E-01
        2 -1    0    0  501    0 0.00000000E+00 0.00000000E+00 0.98645277E+03 0.98645282E+03 0.32000000E+00 0.0000E+00 0.9000E+01
       21 -1    0    0  502  501 0.00000000E+00 0.00000000E+00 -.21303564E+03 0.21303696E+03 0.75000000E+00 0.0000E+00 0.9000E+01
       25  2    1    2    0    0 -.13364478E+03 -.85757742E+01 0.38930510E+03 0.50293804E+03 0.28888361E+03 0.0000E+00 0.0000E+00
       23  2    1    2    0    0 0.23005141E+03 -.11640652E+03 -.86092165E+01 0.27329663E+03 0.90237479E+02 0.0000E+00 0.0000E+00
       24  1    3    3    0    0 0.17764493E+02 -.82316479E+02 0.78586051E+02 0.14047976E+03 0.80419002E+02 0.0000E+00 0.9000E+01
      -11  1    4    4    0    0 0.10209018E+03 -.10400290E+02 -.27011295E+02 0.10611400E+03 0.51099893E-03 0.0000E+00 0.9000E+01
       11  1    4    4    0    0 0.12796123E+03 -.10600623E+03 0.18402078E+02 0.16718264E+03 0.51099893E-03 0.0000E+00 0.9000E+01
      -24  1    3    3    0    0 -.15140927E+03 0.73740705E+02 0.31071905E+03 0.36245828E+03 0.80419002E+02 0.0000E+00 0.9000E+01
        2  1    1    2  502    0 -.96406632E+02 0.12498229E+03 0.39272124E+03 0.42325511E+03 0.32000000E+00 0.0000E+00 0.9000E+01
#aMCatNLO 2  0  0  2  2 0.15784427D+03 0.00000000D+00  -5  7  0 0.00000000D+00 0.00000000D+00 0.00000000D+00 0.00000000D+00 0.00000000D+00
  <mgrwgt>
 0.2766747265D-03    1    2    0
 0.328898198147257D+03 0.000000000000000D+00 0.000000000000000D+00 0.328898198147257D+03
 0.328898198147257D+03 0.000000000000000D+00 0.000000000000000D+00 -.328898198147257D+03
 0.102048534130201D+03 0.193929819900136D+01 -.618005759972804D+02 0.111182414370210D+02
 0.123914378097150D+03 0.832405049038148D+02 0.140365705134846D+02 -.907125467109237D+02
 0.147738952200629D+03 0.104173520650923D+03 -.751676571978178D+02 -.729691640621078D+02
 0.284094531866534D+03 -.189353323753740D+03 0.122931662681614D+03 0.152563469336010D+03
 0.000000000000000D+00 -.000000000000000D+00 0.000000000000000D+00 0.000000000000000D+00
 0.576789549380145D+03 0.000000000000000D+00 0.000000000000000D+00 0.576789549380145D+03
 0.364344875792149D+03 0.000000000000000D+00 0.000000000000000D+00 -.364344875792149D+03
 0.116971839007994D+03 0.177644927229842D+02 -.823164787401925D+02 0.111182414370210D+02
 0.136964728200083D+03 0.102090178773157D+03 -.104002902943218D+02 -.907125467109237D+02
 0.181482495385088D+03 0.127961232154017D+03 -.106006227613765D+03 -.729691640621078D+02
 0.241050383125719D+03 -.151409271728090D+03 0.737407045641329D+02 0.152563469336010D+03
 0.264664979453411D+03 -.964066319220673D+02 0.124982292084147D+03 0.212444673587997D+03
0.698085145952D-06 0.000000000000D+00 0.000000000000D+00 0.169568907614D-08 0.152989925001D-13  7 2 21 24 -11 11 -24 2 2 0.15176203D+00 0.32774812D-01 0.13311514D+06 0.13311514D+06 0.13311514D+06 0.11116681D+01  1  2  1  4  7  2       -2 0.276674726526D-03 0.100000000000D+01
  </mgrwgt>
  </event>
  <event>
  8     66 0.26993063E-05 0.26054513E+03 0.75467711E-02 0.91859323E-01
        2 -1    0    0  501    0 0.00000000E+00 0.00000000E+00 0.25552005E+04 0.25552005E+04 0.32000000E+00 0.0000E+00 0.9000E+01
       -2 -1    0    0    0  501 0.00000000E+00 0.00000000E+00 -.15287933E+03 0.15287966E+03 0.32000000E+00 0.0000E+00 0.9000E+01
       25  2    1    2    0    0 0.50290055E+03 -.20708692E+03 0.17338498E+04 0.18417242E+04 0.29986492E+03 0.0000E+00 0.0000E+00
       23  2    1    2    0    0 -.50290055E+03 0.20708692E+03 0.66847139E+03 0.86635599E+03 0.89021064E+02 0.0000E+00 0.0000E+00
       24  1    3    3    0    0 0.11115072E+03 -.64551947E+02 0.82218423E+03 0.83604759E+03 0.80419002E+02 0.0000E+00 0.9000E+01
      -13  1    4    4    0    0 -.85986093E+02 0.73286926E+02 0.12639324E+03 0.16952830E+03 0.10565837E+00 0.0000E+00 0.9000E+01
       13  1    4    4    0    0 -.41691445E+03 0.13380000E+03 0.54207815E+03 0.69682769E+03 0.10565837E+00 0.0000E+00 0.9000E+01
      -24  1    3    3    0    0 0.39174982E+03 -.14253498E+03 0.91166557E+03 0.10056766E+04 0.80419002E+02 0.0000E+00 0.9000E+01
#aMCatNLO 1  0  0  1  2 0.14726336D+03 0.00000000D+00  -5  7  0 0.00000000D+00 0.00000000D+00 0.00000000D+00 0.00000000D+00 0.00000000D+00
  <mgrwgt>
 0.1138373280D-02    9    2    0
 0.625010250839981D+03 0.000000000000000D+00 0.000000000000000D+00 0.625010250839981D+03
 0.625010250839981D+03 0.000000000000000D+00 0.000000000000000D+00 -.625010250839981D+03
 0.231142853899809D+03 0.111150723383656D+03 -.645519468006277D+02 0.174465944556859D+03
 0.124364731532463D+03 -.859856269730459D+02 0.732868409132524D+02 -.519817020897693D+02
 0.467848368779745D+03 -.416914919438254D+03 0.133800082947706D+03 -.164807718031801D+03
 0.426664547467945D+03 0.391749823027644D+03 -.142534977060331D+03 0.423234755647116D+02
 0.000000000000000D+00 -.000000000000000D+00 0.000000000000000D+00 0.000000000000000D+00
 0.704925755806116D+03 0.000000000000000D+00 0.000000000000000D+00 0.704925755806116D+03
 0.701053566868080D+03 0.000000000000000D+00 0.000000000000000D+00 -.701053566868080D+03
 0.247881617310668D+03 0.135711842880404D+03 -.782432753536644D+02 0.174465944556859D+03
 0.112172965374036D+03 -.738575813545716D+02 0.665261939773205D+02 -.519817020897693D+02
 0.420507922922835D+03 -.371366045951562D+03 0.108409359523655D+03 -.164807718031801D+03
 0.478102561325526D+03 0.438140131689014D+03 -.168394749357913D+03 0.423234755647116D+02
 0.147314255741130D+03 -.128628347263285D+03 0.717024712106013D+02 0.387218893803617D+01
0.890591101321D-04 0.000000000000D+00 0.000000000000D+00 0.105716198940D-05 0.000000000000D+00  7 2 -2 24 -13 13 -24 21 0 0.39310780D+00 0.23519924D-01 0.31754315D+06 0.31754315D+06 0.31754315D+06 0.10827305D+01  1  2  2  1  7  1        2 0.566857750590D-03 0.100000000000D+01
-.488318238991D-05 0.000000000000D+00 -.342010432709D-06 0.105716198940D-05 0.000000000000D+00  7 2 -2 24 -13 13 -24 21 2 0.39310780D+00 0.23519924D-01 0.31754315D+06 0.31754315D+06 0.31754315D+06 0.10827305D+01  1  2  3  1  7  1        2 -.364367346834D-04 0.100000000000D+01
0.561700679407D-05 0.000000000000D+00 0.000000000000D+00 0.105716198940D-05 0.000000000000D+00  7 2 -2 24 -13 13 -24 21 2 0.39310780D+00 0.23519924D-01 0.31754315D+06 0.31754315D+06 0.31754315D+06 0.10827305D+01  1  2 15  1  7  1        2 0.419122961070D-04 0.100000000000D+01
0.622190309980D-04 0.000000000000D+00 0.000000000000D+00 0.105716198940D-05 0.000000000000D+00  7 2 -2 24 -13 13 -24 21 2 0.46444438D+00 0.23519924D-01 0.41334895D+06 0.41334895D+06 0.41334895D+06 0.10744014D+01  1  2 12  1  7  1        2 0.234988150095D-03 0.100000000000D+01
-.528892379963D-04 0.000000000000D+00 0.000000000000D+00 0.105716198940D-05 0.000000000000D+00  7 2 -2 24 -13 13 -24 21 2 0.39310780D+00 0.23519924D-01 0.31754315D+06 0.31754315D+06 0.31754315D+06 0.10827305D+01  1  2  4  1  7  1        2 -.394642464402D-03 0.100000000000D+01
-.192622522318D-03 0.000000000000D+00 -.517473486581D-04 0.105716198940D-05 0.000000000000D+00  7 2 -2 24 -13 13 -24 21 2 0.46322730D+00 0.23519924D-01 0.31754315D+06 0.31754315D+06 0.31754315D+06 0.10827305D+01  1  2  5  1  7  1        2 -.759313497199D-03 0.100000000000D+01
0.199117185861D-03 0.000000000000D+00 0.510580521165D-04 0.105716198940D-05 0.000000000000D+00  7 2 -2 24 -13 13 -24 21 2 0.39310780D+00 0.23519924D-01 0.31754315D+06 0.31754315D+06 0.31754315D+06 0.10827305D+01  1  2  6  1  7  1        2 0.148574832821D-02 0.100000000000D+01
0.154504637104D-05 0.000000000000D+00 0.000000000000D+00 0.105716198940D-05 0.000000000000D+00  7 21 -2 24 -13 13 -24 -2 2 0.46444438D+00 0.23519924D-01 0.41334895D+06 0.41334895D+06 0.41334895D+06 0.10744014D+01  1  2 12  3  7  1        2 0.374883181903D-06 0.100000000000D+01
-.430152487412D-05 0.000000000000D+00 -.126890829501D-05 0.105716198940D-05 0.000000000000D+00  7 21 -2 24 -13 13 -24 -2 2 0.46322730D+00 0.23519924D-01 0.31754315D+06 0.31754315D+06 0.31754315D+06 0.10827305D+01  1  2  5  3  7  1        2 -.111543143735D-05 0.100000000000D+01
  </mgrwgt>
  </event>
  <event>
  8     66 0.26993063E-05 0.19591058E+03 0.75467711E-02 0.95653614E-01
        2 -1    0    0  501    0 0.00000000E+00 0.00000000E+00 0.38034537E+04 0.38034537E+04 0.32000000E+00 0.0000E+00 0.9000E+01
       -2 -1    0    0    0  501 0.00000000E+00 0.00000000E+00 -.50912626E+02 0.50913631E+02 0.32000000E+00 0.0000E+00 0.9000E+01
       25  2    1    2    0    0 0.33175792E+03 -.15862794E+03 0.24926893E+04 0.25374927E+04 0.30023903E+03 0.0000E+00 0.0000E+00
       23  2    1    2    0    0 -.33175792E+03 0.15862794E+03 0.12598518E+04 0.13168746E+04 0.10819428E+03 0.0000E+00 0.0000E+00
       24  1    3    3    0    0 0.69552876E+02 -.59790849E+02 0.27650519E+03 0.30221661E+03 0.80419002E+02 0.0000E+00 0.9000E+01
      -13  1    4    4    0    0 -.87601950E+02 0.16063301E+02 0.18294909E+03 0.20347607E+03 0.10565837E+00 0.0000E+00 0.9000E+01
       13  1    4    4    0    0 -.24415597E+03 0.14256464E+03 0.10769027E+04 0.11133985E+04 0.10565837E+00 0.0000E+00 0.9000E+01
      -24  1    3    3    0    0 0.26220505E+03 -.98837095E+02 0.22161841E+04 0.22352761E+04 0.80419002E+02 0.0000E+00 0.9000E+01
#aMCatNLO 1  0  0  1  2 0.11739583D+03 0.00000000D+00  -5  7  0 0.00000000D+00 0.00000000D+00 0.00000000D+00 0.00000000D+00 0.00000000D+00
  <mgrwgt>
 0.1633734853D-02    9    2    0
 0.440052015864565D+03 0.000000000000000D+00 0.000000000000000D+00 0.440052015864565D+03
 0.440052015864565D+03 0.000000000000000D+00 0.000000000000000D+00 -.440052015864565D+03
 0.144592885937498D+03 0.695528786228876D+02 -.597908497007860D+02 -.776359328963835D+02
 0.111063464412400D+03 -.876018059145536D+02 0.160631971487124D+02 -.663550331561591D+02
 0.284427065224611D+03 -.244156126158452D+03 0.142564750756390D+03 -.310134379479520D+02
 0.340020616154621D+03 0.262205053450118D+03 -.988370982043167D+02 0.175004404000495D+03
 0.000000000000000D+00 -.000000000000000D+00 -.000000000000000D+00 0.000000000000000D+00
 0.519135793648235D+03 0.000000000000000D+00 0.000000000000000D+00 0.519135793648235D+03
 0.489775057996052D+03 0.000000000000000D+00 0.000000000000000D+00 -.489775057996052D+03
 0.153946669988320D+03 0.891817997782803D+02 -.570230633843637D+02 -.776359328963835D+02
 0.100775702699864D+03 -.736734194534177D+02 0.180271765825176D+02 -.663550331561591D+02
 0.257352787308496D+03 -.208534200025504D+03 0.147587639122738D+03 -.310134379479520D+02
 0.375823982684514D+03 0.309271704790681D+03 -.922004403610789D+02 0.175004404000495D+03
 0.121011708963092D+03 -.116245885090040D+03 -.163913119598131D+02 0.293607356521831D+02
0.146963067215D-03 0.000000000000D+00 0.000000000000D+00 0.208188009662D-07 0.000000000000D+00  7 2 -2 24 -13 13 -24 21 0 0.58514680D+00 0.78327900D-02 0.15417492D+06 0.15417492D+06 0.15417492D+06 0.11066123D+01  1  2  2  1  7  1        2 0.848671073099D-03 0.100000000000D+01
-.803566855518D-05 0.000000000000D+00 -.564376874371D-06 0.208188009662D-07 0.000000000000D+00  7 2 -2 24 -13 13 -24 21 2 0.58514680D+00 0.78327900D-02 0.15417492D+06 0.15417492D+06 0.15417492D+06 0.11066123D+01  1  2  3  1  7  1        2 -.568256185955D-04 0.100000000000D+01
0.933568762834D-05 0.000000000000D+00 0.000000000000D+00 0.208188009662D-07 0.000000000000D+00  7 2 -2 24 -13 13 -24 21 2 0.58514680D+00 0.78327900D-02 0.15417492D+06 0.15417492D+06 0.15417492D+06 0.11066123D+01  1  2 15  1  7  1        2 0.660189280894D-04 0.100000000000D+01
0.731090157822D-04 0.000000000000D+00 0.000000000000D+00 0.208188009662D-07 0.000000000000D+00  7 2 -2 24 -13 13 -24 21 2 0.71847644D+00 0.78327900D-02 0.20896257D+06 0.20896257D+06 0.20896257D+06 0.10963662D+01  1  2 12  1  7  1        2 0.825434155717D-04 0.100000000000D+01
-.717757897333D-04 0.000000000000D+00 0.000000000000D+00 0.208188009662D-07 0.000000000000D+00  7 2 -2 24 -13 13 -24 21 2 0.58514680D+00 0.78327900D-02 0.15417492D+06 0.15417492D+06 0.15417492D+06 0.11066123D+01  1  2  4  1  7  1        2 -.507574898563D-03 0.100000000000D+01
-.196949666605D-03 0.000000000000D+00 -.528794629744D-04 0.208188009662D-07 0.000000000000D+00  7 2 -2 24 -13 13 -24 21 2 0.70300652D+00 0.78327900D-02 0.15417492D+06 0.15417492D+06 0.15417492D+06 0.11066123D+01  1  2  5  1  7  1        2 -.295698856444D-03 0.100000000000D+01
0.211640777699D-03 0.000000000000D+00 0.559245988814D-04 0.208188009662D-07 0.000000000000D+00  7 2 -2 24 -13 13 -24 21 2 0.58514680D+00 0.78327900D-02 0.15417492D+06 0.15417492D+06 0.15417492D+06 0.11066123D+01  1  2  6  1  7  1        2 0.149665432692D-02 0.100000000000D+01
0.213419807895D-05 0.000000000000D+00 0.000000000000D+00 0.208188009662D-07 0.000000000000D+00  7 21 -2 24 -13 13 -24 -2 2 0.71847644D+00 0.78327900D-02 0.20896257D+06 0.20896257D+06 0.20896257D+06 0.10963662D+01  1  2 12  3  7  1        2 0.230681579264D-07 0.100000000000D+01
-.474853002950D-05 0.000000000000D+00 -.141579239216D-05 0.208188009662D-07 0.000000000000D+00  7 21 -2 24 -13 13 -24 -2 2 0.70300652D+00 0.78327900D-02 0.15417492D+06 0.15417492D+06 0.15417492D+06 0.11066123D+01  1  2  5  3  7  1        2 -.765849820384D-07 0.100000000000D+01
  </mgrwgt>
  </event>
  <event>
  8     66 0.26993063E-05 0.42435747E+03 0.75467711E-02 0.84772715E-01
        2 -1    0    0  501    0 0.00000000E+00 0.00000000E+00 0.11900392E+04 0.11900393E+04 0.32000000E+00 0.0000E+00 0.9000E+01
       -2 -1    0    0    0  501 0.00000000E+00 0.00000000E+00 -.20271258E+03 0.20271283E+03 0.32000000E+00 0.0000E+00 0.9000E+01
       25  2    1    2    0    0 0.37597454E+03 0.92532967E+02 0.23949160E+03 0.54505083E+03 0.29967479E+03 0.0000E+00 0.0000E+00
       23  2    1    2    0    0 -.37597454E+03 -.92532967E+02 0.74783505E+03 0.84770128E+03 0.97061757E+02 0.0000E+00 0.0000E+00
       24  1    3    3    0    0 0.29548506E+03 0.13177558E+03 0.75827626E+02 0.34189658E+03 0.80419002E+02 0.0000E+00 0.9000E+01
      -11  1    4    4    0    0 -.68266919E+02 0.13351807E+02 0.89711920E+02 0.11352036E+03 0.51099893E-03 0.0000E+00 0.9000E+01
       11  1    4    4    0    0 -.30770762E+03 -.10588477E+03 0.65812313E+03 0.73418092E+03 0.51099893E-03 0.0000E+00 0.9000E+01
      -24  1    3    3    0    0 0.80489477E+02 -.39242611E+02 0.16366398E+03 0.20315426E+03 0.80419002E+02 0.0000E+00 0.9000E+01
#aMCatNLO 1  0  0  2  1 0.12069260D+04 0.00000000D+00  -5  7  0 0.00000000D+00 0.00000000D+00 0.00000000D+00 0.00000000D+00 0.00000000D+00
  <mgrwgt>
 0.1134690003D-02    5    2    0
 0.491157946912345D+03 0.000000000000000D+00 0.000000000000000D+00 0.491157946912345D+03
 0.491157946912345D+03 0.000000000000000D+00 0.000000000000000D+00 -.491157946912345D+03
 0.408535121369900D+03 0.295485062185261D+03 0.131775577587421D+03 -.236130270433977D+03
 0.707824719911129D+02 -.682669187307125D+02 0.133518065323817D+02 0.130963892164526D+02
 0.379459923144504D+03 -.307707620608866D+03 -.105884773612254D+03 0.195177529980131D+03
 0.123538377319172D+03 0.804894771543178D+02 -.392426105075485D+02 0.278563512373932D+02
 0.000000000000000D+00 0.000000000000000D+00 -.000000000000000D+00 -.000000000000000D+00
 0.121875011981933D+04 0.000000000000000D+00 0.000000000000000D+00 0.121875011981933D+04
 0.160446612106158D+04 0.000000000000000D+00 0.000000000000000D+00 -.160446612106158D+04
 0.341293441195708D+03 -.478002705340820D+02 0.227972863671278D+03 -.236130270433977D+03
 0.197323093027879D+03 -.191010586665340D+03 0.477477058437650D+02 0.130963892164526D+02
 0.930067265236733D+03 -.907233297558715D+03 0.621175776775800D+02 0.195177529980131D+03
 0.874700468490862D+02 -.161140675937483D+02 -.121718389216212D+02 0.278563512373932D+02
 0.126706239457151D+04 0.116215822235189D+04 -.325666308271001D+03 -.385716001242259D+03
0.479157359422D-04 0.000000000000D+00 0.000000000000D+00 0.198696690515D-06 0.000000000000D+00  7 2 -2 24 -11 11 -24 21 0 0.18308298D+00 0.31186573D-01 0.18007926D+06 0.18007926D+06 0.18007926D+06 0.11013422D+01  1  2  2  2  7  2       -2 0.109052178438D-02 0.100000000000D+01
-.259281499235D-05 0.000000000000D+00 -.184009042521D-06 0.198696690515D-06 0.000000000000D+00  7 2 -2 24 -11 11 -24 21 2 0.18308298D+00 0.31186573D-01 0.18007926D+06 0.18007926D+06 0.18007926D+06 0.11013422D+01  1  2  3  2  7  2       -2 -.715768034095D-04 0.100000000000D+01
0.301640183983D-05 0.000000000000D+00 0.000000000000D+00 0.198696690515D-06 0.000000000000D+00  7 2 -2 24 -11 11 -24 21 2 0.18308298D+00 0.31186573D-01 0.18007926D+06 0.18007926D+06 0.18007926D+06 0.11013422D+01  1  2 15  2  7  2       -2 0.832702688508D-04 0.100000000000D+01
0.609790369225D-04 0.000000000000D+00 -.267368981593D-04 0.198696690515D-06 0.000000000000D+00  7 2 -2 24 -11 11 -24 21 2 0.18308298D+00 0.24011352D+00 0.18007926D+06 0.18007926D+06 0.18007926D+06 0.11013422D+01  1  2  5  2  7  2       -2 0.128500823018D-04 0.100000000000D+01
0.121395902107D-04 0.000000000000D+00 -.664019968126D-05 0.198696690515D-06 0.000000000000D+00  7 2 21 24 -11 11 -24 2 2 0.18308298D+00 0.24011352D+00 0.18007926D+06 0.18007926D+06 0.18007926D+06 0.11013422D+01  1  2  5  4  7  2       -2 0.196246707687D-04 0.100000000000D+01
  </mgrwgt>
  </event>
  <event>
  9     66 0.26993063E-05 0.15946514E+03 0.75467711E-02 0.10765125E+00
        2 -1    0    0  501    0 0.00000000E+00 0.00000000E+00 0.26095213E+04 0.26095213E+04 0.32000000E+00 0.0000E+00 0.9000E+01
       21 -1    0    0  502  501 0.00000000E+00 0.00000000E+00 -.16675942E+03 0.16676111E+03 0.75000000E+00 0.0000E+00 0.9000E+01
       25  2    1    2    0    0 -.14800152E+02 0.12640332E+02 0.24148148E+04 0.24333903E+04 0.29946467E+03 0.0000E+00 0.0000E+00
       23  2    1    2    0    0 0.56821049E+02 -.25383501E+02 -.13380081E+03 0.17528953E+03 0.94608721E+02 0.0000E+00 0.0000E+00
       24  1    3    3    0    0 -.31553272E+02 -.78609688E+02 0.45564595E+03 0.47037809E+03 0.80419002E+02 0.0000E+00 0.9000E+01
      -11  1    4    4    0    0 0.12408546E+02 0.16543123E+02 -.10632550E+03 0.10831786E+03 0.51099893E-03 0.0000E+00 0.9000E+01
       11  1    4    4    0    0 0.44412504E+02 -.41926624E+02 -.27475307E+02 0.66971672E+02 0.51099893E-03 0.0000E+00 0.9000E+01
      -24  1    3    3    0    0 0.16753121E+02 0.91250020E+02 0.19591688E+04 0.19630122E+04 0.80419002E+02 0.0000E+00 0.9000E+01
        2  1    1    2  502    0 -.42020898E+02 0.12743170E+02 0.16174791E+03 0.16760260E+03 0.32000000E+00 0.0000E+00 0.9000E+01
#aMCatNLO 2  0  0  2  2 0.43910639D+02 0.00000000D+00  -5  7  0 0.00000000D+00 0.00000000D+00 0.00000000D+00 0.00000000D+00 0.00000000D+00
  <mgrwgt>
 0.1412137479D-03    1    2    0
 0.632506434461908D+03 0.000000000000000D+00 0.000000000000000D+00 0.632506434461908D+03
 0.632506434461908D+03 0.000000000000000D+00 0.000000000000000D+00 -.632506434461908D+03
 0.148658721225243D+03 -.364841580474003D+02 -.771143580449222D+02 0.914028524546462D+02
 0.414846342428438D+03 -.136750194446839D+01 0.207208179763760D+02 -.414326278996487D+03
 0.185752006180647D+03 0.382144623804954D+02 -.400470189262584D+02 -.177312433123639D+03
 0.515755799089487D+03 -.362802388626740D+00 0.964405589948046D+02 0.500235859665480D+03
 0.000000000000000D+00 -.000000000000000D+00 0.000000000000000D+00 0.000000000000000D+00
 0.675515679018432D+03 0.000000000000000D+00 0.000000000000000D+00 0.675515679018432D+03
 0.644195258514889D+03 0.000000000000000D+00 0.000000000000000D+00 -.644195258514889D+03
 0.148313146616794D+03 -.315532723328877D+02 -.786096881640221D+02 0.914028524546462D+02
 0.414842033035785D+03 0.124085455572760D+02 0.165431225390470D+02 -.414326278996487D+03
 0.187536693019536D+03 0.444125037224255D+02 -.419266240184504D+02 -.177312433123639D+03
 0.515082871413866D+03 0.167531207837856D+02 0.912500198264396D+02 0.500235859665480D+03
 0.539361934473388D+02 -.420208977305994D+02 0.127431698169860D+02 0.313204205035423D+02
0.144037914965D-05 0.000000000000D+00 0.000000000000D+00 0.807696991154D-06 0.104660720786D-10  7 2 21 24 -11 11 -24 2 2 0.40146466D+00 0.25655408D-01 0.33350957D+05 0.33350957D+05 0.33350957D+05 0.11630931D+01  1  2  1  4  7  2       -2 0.141213747881D-03 0.100000000000D+01
  </mgrwgt>
  </event>
  <event>
  8     66 0.26993063E-05 0.28267184E+03 0.75467711E-02 0.99049685E-01
        2 -1    0    0  501    0 0.00000000E+00 0.00000000E+00 0.22487427E+04 0.22487427E+04 0.32000000E+00 0.0000E+00 0.9000E+01
       -2 -1    0    0    0  501 0.00000000E+00 0.00000000E+00 -.13182104E+03 0.13182143E+03 0.32000000E+00 0.0000E+00 0.9000E+01
       25  2    1    2    0    0 -.16842056E+03 -.11091924E+03 0.21257804E+04 0.21562998E+04 0.30003000E+03 0.0000E+00 0.0000E+00
       23  2    1    2    0    0 0.16842056E+03 0.11091924E+03 -.88587534E+01 0.22426433E+03 0.97711067E+02 0.0000E+00 0.0000E+00
       24  1    3    3    0    0 -.21696647E+03 -.34917080E+02 0.11938197E+04 0.12165386E+04 0.80419002E+02 0.0000E+00 0.9000E+01
      -13  1    4    4    0    0 0.17094263E+03 0.97389143E+02 0.14371640E+02 0.19726273E+03 0.10565837E+00 0.0000E+00 0.9000E+01
       13  1    4    4    0    0 -.25220756E+01 0.13530097E+02 -.23230394E+02 0.27001606E+02 0.10565837E+00 0.0000E+00 0.9000E+01
      -24  1    3    3    0    0 0.48545910E+02 -.76002159E+02 0.93196073E+03 0.93976116E+03 0.80419002E+02 0.0000E+00 0.9000E+01
#aMCatNLO 1  0  0  2  2 0.12000694D+03 0.00000000D+00  -5  7  0 0.00000000D+00 0.00000000D+00 0.00000000D+00 0.00000000D+00 0.00000000D+00
  <mgrwgt>
 0.5953857229D-03    4    2    0
 0.544455780241851D+03 0.000000000000000D+00 0.000000000000000D+00 0.544455780241851D+03
 0.544455780241851D+03 0.000000000000000D+00 0.000000000000000D+00 -.544455780241851D+03
 0.338710310195365D+03 -.216966466594152D+03 -.349170802733316D+02 0.244875086844506D+03
 0.403314038885418D+03 0.170942832668913D+03 0.973892402365733D+02 -.352073994789929D+03
 0.104191747146960D+03 -.252227583827796D+01 0.135299996002386D+02 -.103278736480213D+03
 0.242695464255959D+03 0.485459097635166D+02 -.760021595634803D+02 0.210477644425636D+03
 0.000000000000000D+00 -.000000000000000D+00 0.000000000000000D+00 0.000000000000000D+00
 0.617601404080131D+03 0.000000000000000D+00 0.000000000000000D+00 0.617601404080131D+03
 0.599297824865942D+03 0.000000000000000D+00 0.000000000000000D+00 -.599297824865942D+03
 0.336879877270681D+03 -.205273172997703D+03 -.701423698337104D+02 0.244875086844506D+03
 0.401504802092230D+03 0.184872849969495D+03 0.554259653947360D+02 -.352073994789929D+03
 0.103319828443942D+03 0.106938937987323D+01 0.271034077017705D+01 -.103278736480213D+03
 0.253799965994857D+03 0.571393839479083D+02 -.101889443926782D+03 0.210477644425636D+03
 0.121394755144364D+03 -.378084502995728D+02 0.113895507595579D+03 0.183035792141891D+02
0.966842280575D-04 0.000000000000D+00 0.000000000000D+00 0.393252835185D-06 0.000000000000D+00  7 2 -2 24 -13 13 -24 21 0 0.34596044D+00 0.20280192D-01 0.79903370D+05 0.79903370D+05 0.79903370D+05 0.11298065D+01  1  2  2  2  7  2       -2 0.125474035071D-02 0.100000000000D+01
-.256520095515D-05 0.000000000000D+00 -.371292893283D-06 0.393252835185D-06 0.000000000000D+00  7 2 -2 24 -13 13 -24 21 2 0.34596044D+00 0.20280192D-01 0.79903370D+05 0.79903370D+05 0.79903370D+05 0.11298065D+01  1  2  3  2  7  2       -2 -.424940137386D-04 0.100000000000D+01
0.586694956715D-05 0.000000000000D+00 0.000000000000D+00 0.393252835185D-06 0.000000000000D+00  7 2 -2 24 -13 13 -24 21 2 0.34596044D+00 0.20280192D-01 0.79903370D+05 0.79903370D+05 0.79903370D+05 0.11298065D+01  1  2 15  2  7  2       -2 0.971893585996D-04 0.100000000000D+01
-.431044636851D-04 0.000000000000D+00 0.000000000000D+00 0.393252835185D-06 0.000000000000D+00  7 2 -2 24 -13 13 -24 21 2 0.34596044D+00 0.20280192D-01 0.79903370D+05 0.79903370D+05 0.79903370D+05 0.11298065D+01  1  2  4  2  7  2       -2 -.714049972713D-03 0.100000000000D+01
  </mgrwgt>
  </event>
  <event>
  8     66 0.26993063E-05 0.13878760E+03 0.75467711E-02 0.10003878E+00
        2 -1    0    0  501    0 0.00000000E+00 0.00000000E+00 0.13497522E+04 0.13497522E+04 0.32000000E+00 0.0000E+00 0.9000E+01
       -2 -1    0    0    0  501 0.00000000E+00 0.00000000E+00 -.15055078E+03 0.15055112E+03 0.32000000E+00 0.0000E+00 0.9000E+01
       25  2    1    2    0    0 -.46605782E+02 -.25370275E+03 0.16275620E+03 0.42835112E+03 0.30076223E+03 0.0000E+00 0.0000E+00
       23  2    1    2    0    0 0.46605782E+02 0.25370275E+03 0.10364452E+04 0.10719522E+04 0.91245300E+02 0.0000E+00 0.0000E+00
       24  1    3    3    0    0 -.87339625E+02 -.10241023E+03 0.19405243E+03 0.24947871E+03 0.80419002E+02 0.0000E+00 0.9000E+01
      -13  1    4    4    0    0 0.75056336E+01 0.26346448E+02 0.27411677E+03 0.27548228E+03 0.10565837E+00 0.0000E+00 0.9000E+01
       13  1    4    4    0    0 0.39100149E+02 0.22735630E+03 0.76232845E+03 0.79646995E+03 0.10565837E+00 0.0000E+00 0.9000E+01
      -24  1    3    3    0    0 0.40733842E+02 -.15129252E+03 -.31296226E+02 0.17887242E+03 0.80419002E+02 0.0000E+00 0.9000E+01
#aMCatNLO 1  0  0  2  1 0.42124456D+02 0.00000000D+00  -5  7  0 0.00000000D+00 0.00000000D+00 0.00000000D+00 0.00000000D+00 0.00000000D+00
  <mgrwgt>
 0.1295457078D-02    9    2    0
 0.450784346571931D+03 0.000000000000000D+00 0.000000000000000D+00 0.450784346571931D+03
 0.450784346571931D+03 0.000000000000000D+00 0.000000000000000D+00 -.450784346571931D+03
 0.157043828203554D+03 -.873396248444993D+02 -.102410234625468D+03 -.891525649859429D+01
 0.938203610867428D+02 0.750559120862882D+01 0.263461783649093D+02 0.897318513161304D+02
 0.311414369379678D+03 0.391001911680707D+02 0.227356573156152D+03 0.209186694484745D+03
 0.339290134473887D+03 0.407338424677998D+02 -.151292516895593D+03 -.290003289302282D+03
 0.000000000000000D+00 -.000000000000000D+00 0.000000000000000D+00 -.000000000000000D+00
 0.468984482952882D+03 0.000000000000000D+00 0.000000000000000D+00 0.468984482952882D+03
 0.476327437356197D+03 0.000000000000000D+00 0.000000000000000D+00 -.476327437356197D+03
 0.156859389622217D+03 -.815028199300802D+02 -.106843159365929D+03 -.891525649859429D+01
 0.934574640622067D+02 0.109878878788013D+02 0.237014507632212D+02 0.897318513161304D+02
 0.306784041564081D+03 0.505951466772092D+02 0.218626407695066D+03 0.209186694484745D+03
 0.345451362633888D+03 0.534661188780522D+02 -.160962400321364D+03 -.290003289302282D+03
 0.427596624266852D+02 -.335463335039827D+02 0.254777012290056D+02 -.734295440331531D+01
0.279614876651D-04 0.000000000000D+00 0.000000000000D+00 0.195572494160D-05 0.000000000000D+00  7 2 -2 24 -13 13 -24 21 0 0.20765421D+00 0.23161687D-01 0.87318043D+05 0.87318043D+05 0.87318043D+05 0.11265874D+01  1  2  2  2  7  2       -2 0.881666713056D-03 0.100000000000D+01
-.121653304424D-05 0.000000000000D+00 -.107379475063D-06 0.195572494160D-05 0.000000000000D+00  7 2 -2 24 -13 13 -24 21 2 0.20765421D+00 0.23161687D-01 0.87318043D+05 0.87318043D+05 0.87318043D+05 0.11265874D+01  1  2  3  2  7  2       -2 -.486853029601D-04 0.100000000000D+01
0.171415568649D-05 0.000000000000D+00 0.000000000000D+00 0.195572494160D-05 0.000000000000D+00  7 2 -2 24 -13 13 -24 21 2 0.20765421D+00 0.23161687D-01 0.87318043D+05 0.87318043D+05 0.87318043D+05 0.11265874D+01  1  2 15  2  7  2       -2 0.686000181519D-04 0.100000000000D+01
0.559990299707D-04 0.000000000000D+00 0.000000000000D+00 0.195572494160D-05 0.000000000000D+00  7 2 -2 24 -13 13 -24 21 2 0.20765421D+00 0.24919058D-01 0.10143222D+06 0.10143222D+06 0.10143222D+06 0.11212156D+01  1  2 12  2  7  2       -2 0.195407048950D-02 0.100000000000D+01
-.484796993563D-04 0.000000000000D+00 0.000000000000D+00 0.195572494160D-05 0.000000000000D+00  7 2 -2 24 -13 13 -24 21 2 0.20765421D+00 0.23161687D-01 0.87318043D+05 0.87318043D+05 0.87318043D+05 0.11265874D+01  1  2  4  2  7  2       -2 -.194014364159D-02 0.100000000000D+01
-.167632028004D-03 0.000000000000D+00 -.385428744764D-04 0.195572494160D-05 0.000000000000D+00  7 2 -2 24 -13 13 -24 21 2 0.20765421D+00 0.25484307D-01 0.87318043D+05 0.87318043D+05 0.87318043D+05 0.11265874D+01  1  2  5  2  7  2       -2 -.570526801230D-02 0.100000000000D+01
0.170710552623D-03 0.000000000000D+00 0.383675480928D-04 0.195572494160D-05 0.000000000000D+00  7 2 -2 24 -13 13 -24 21 2 0.20765421D+00 0.23161687D-01 0.87318043D+05 0.87318043D+05 0.87318043D+05 0.11265874D+01  1  2  6  2  7  2       -2 0.683178727635D-02 0.100000000000D+01
0.698247264717D-06 0.000000000000D+00 0.000000000000D+00 0.195572494160D-05 0.000000000000D+00  7 2 21 24 -13 13 -24 2 2 0.20765421D+00 0.24919058D-01 0.10143222D+06 0.10143222D+06 0.10143222D+06 0.11212156D+01  1  2 12  4  7  2       -2 0.299603794965D-03 0.100000000000D+01
-.250096577982D-05 0.000000000000D+00 -.601884744458D-06 0.195572494160D-05 0.000000000000D+00  7 2 21 24 -13 13 -24 2 2 0.20765421D+00 0.25484307D-01 0.87318043D+05 0.87318043D+05 0.87318043D+05 0.11265874D+01  1  2  5  4  7  2       -2 -.104617425681D-02 0.100000000000D+01
  </mgrwgt>
  </event>
  <event>
  8     66 0.26993063E-05 0.63138719E+03 0.75467711E-02 0.89817357E-01
        2 -1    0    0  501    0 0.00000000E+00 0.00000000E+00 0.11611733E+04 0.11611733E+04 0.32000000E+00 0.0000E+00 0.9000E+01
       -2 -1    0    0    0  501 0.00000000E+00 0.00000000E+00 -.35937092E+03 0.35937106E+03 0.32000000E+00 0.0000E+00 0.9000E+01
       25  2    1    2    0    0 0.58517744E+03 0.12209040E+03 0.29313598E+03 0.73033941E+03 0.30021366E+03 0.0000E+00 0.0000E+00
       23  2    1    2    0    0 -.58517744E+03 -.12209040E+03 0.50866640E+03 0.79020499E+03 0.91343933E+02 0.0000E+00 0.0000E+00
       24  1    3    3    0    0 0.11601970E+03 0.12349187E+03 0.12553647E+03 0.22569323E+03 0.80419002E+02 0.0000E+00 0.9000E+01
      -11  1    4    4    0    0 -.23438090E+03 -.28209572E+02 0.14938360E+03 0.27936651E+03 0.51099893E-03 0.0000E+00 0.9000E+01
       11  1    4    4    0    0 -.35079655E+03 -.93880832E+02 0.35928280E+03 0.51083849E+03 0.51099893E-03 0.0000E+00 0.9000E+01
      -24  1    3    3    0    0 0.46915775E+03 -.14014657E+01 0.16759951E+03 0.50464618E+03 0.80419002E+02 0.0000E+00 0.9000E+01
#aMCatNLO 1  0  0  1  2 0.27319561D+03 0.00000000D+00  -5  7  0 0.00000000D+00 0.00000000D+00 0.00000000D+00 0.00000000D+00 0.00000000D+00
  <mgrwgt>
 0.9812863834D-03    4    2    0
 0.645981467210512D+03 0.000000000000000D+00 0.000000000000000D+00 0.645981467210512D+03
 0.645981467210512D+03 0.000000000000000D+00 0.000000000000000D+00 -.645981467210512D+03
 0.187715240484156D+03 0.116019695139015D+03 0.123491869685493D+03 0.768010527824983D+01
 0.236084985521376D+03 -.234380896493223D+03 -.282095720861643D+02 0.243634775368736D+01
 0.378245214158109D+03 -.350796548106968D+03 -.938808319032765D+02 0.105818775606685D+03
 0.489917494257383D+03 0.469157749461176D+03 -.140146569605265D+01 -.115935228638622D+03
 0.000000000000000D+00 -.000000000000000D+00 -.000000000000000D+00 -.000000000000000D+00
 0.708126313797651D+03 0.000000000000000D+00 0.000000000000000D+00 0.708126313797651D+03
 0.105012768443349D+04 0.000000000000000D+00 0.000000000000000D+00 -.105012768443349D+04
 0.216576479862449D+03 0.158296591874784D+03 0.123779483998692D+03 0.768010527824983D+01
 0.191704367277960D+03 -.189646845849164D+03 -.279052414884618D+02 0.243634775368736D+01
 0.312297247994345D+03 -.278586332327495D+03 -.933895779745132D+02 0.105818775606685D+03
 0.599953640714688D+03 0.583125874727276D+03 -.626128180627566D+00 -.115935228638622D+03
 0.437722262381697D+03 -.273189288425400D+03 -.185853635508999D+01 -.342001370635838D+03
0.139118101503D-03 0.000000000000D+00 0.000000000000D+00 0.862241304250D-05 0.000000000000D+00  7 2 -2 24 -11 11 -24 21 0 0.17864206D+00 0.55287848D-01 0.39864978D+06 0.39864978D+06 0.39864978D+06 0.10755335D+01  1  2  2  1  7  1        2 0.108143572628D-02 0.100000000000D+01
-.772387633440D-05 0.000000000000D+00 -.534250140407D-06 0.862241304250D-05 0.000000000000D+00  7 2 -2 24 -11 11 -24 21 2 0.17864206D+00 0.55287848D-01 0.39864978D+06 0.39864978D+06 0.39864978D+06 0.10755335D+01  1  2  3  1  7  1        2 -.694544801630D-04 0.100000000000D+01
0.893059952537D-05 0.000000000000D+00 0.000000000000D+00 0.862241304250D-05 0.000000000000D+00  7 2 -2 24 -11 11 -24 21 2 0.17864206D+00 0.55287848D-01 0.39864978D+06 0.39864978D+06 0.39864978D+06 0.10755335D+01  1  2 15  1  7  1        2 0.803055513481D-04 0.100000000000D+01
-.123441060901D-04 0.000000000000D+00 0.000000000000D+00 0.862241304250D-05 0.000000000000D+00  7 2 -2 24 -11 11 -24 21 2 0.17864206D+00 0.55287848D-01 0.39864978D+06 0.39864978D+06 0.39864978D+06 0.10755335D+01  1  2  4  1  7  1        2 -.111000414099D-03 0.100000000000D+01
  </mgrwgt>
  </event>
  <event>
  8     66 0.26993063E-05 0.20055414E+03 0.75467711E-02 0.10188573E+00
        2 -1    0    0  501    0 0.00000000E+00 0.00000000E+00 0.15293782E+03 0.15293815E+03 0.32000000E+00 0.0000E+00 0.9000E+01
       -2 -1    0    0    0  501 0.00000000E+00 0.00000000E+00 -.57946049E+03 0.57946058E+03 0.32000000E+00 0.0000E+00 0.9000E+01
       25  2    1    2    0    0 0.19785577E+03 -.36750317E+02 -.33684160E+03 0.49394242E+03 0.30003228E+03 0.0000E+00 0.0000E+00
       23  2    1    2    0    0 -.19785577E+03 0.36750317E+02 -.89681071E+02 0.23845631E+03 0.91220750E+02 0.0000E+00 0.0000E+00
       24  1    3    3    0    0 -.45247283E+02 -.47036046E+00 -.40929016E+02 0.10094522E+03 0.80419002E+02 0.0000E+00 0.9000E+01
      -11  1    4    4    0    0 -.95854196E+02 0.21271720E+02 -.92992908E+02 0.13523385E+03 0.51099893E-03 0.0000E+00 0.9000E+01
       11  1    4    4    0    0 -.10200157E+03 0.15478598E+02 0.33118373E+01 0.10322246E+03 0.51099893E-03 0.0000E+00 0.9000E+01
      -24  1    3    3    0    0 0.24310305E+03 -.36279957E+02 -.29591258E+03 0.39299720E+03 0.80419002E+02 0.0000E+00 0.9000E+01
#aMCatNLO 1  0  0  1  2 0.27319561D+03 0.00000000D+00  -5  7  0 0.00000000D+00 0.00000000D+00 0.00000000D+00 0.00000000D+00 0.00000000D+00
  <mgrwgt>
 0.4976718588D-05    1    2    0
 0.297693766040717D+03 0.000000000000000D+00 0.000000000000000D+00 0.297693766040717D+03
 0.297693766040717D+03 0.000000000000000D+00 0.000000000000000D+00 -.297693766040717D+03
 0.948541872356903D+02 -.452472828725171D+02 -.470360457215795D+00 0.219673174390404D+02
 0.997359075135554D+02 -.958541957417172D+02 0.212717195802654D+02 -.175139473665876D+02
 0.129348644513033D+03 -.102001570720153D+03 0.154785977199675D+02 0.780202821105135D+02
 0.271448792819154D+03 0.243103049334387D+03 -.362799568430171D+02 -.824736521829664D+02
 0.000000000000000D+00 0.000000000000000D+00 -.000000000000000D+00 -.000000000000000D+00
 0.357717194616573D+03 0.000000000000000D+00 0.000000000000000D+00 0.357717194616573D+03
 0.400494456155645D+03 0.000000000000000D+00 0.000000000000000D+00 -.400494456155645D+03
 0.988616864258713D+02 -.484656805707373D+02 0.217929314215519D+02 0.219673174390404D+02
 0.110647250374847D+03 -.993495038870645D+02 0.454505416969775D+02 -.175139473665876D+02
 0.139926799095891D+03 -.106475315961146D+03 0.464257662897660D+02 0.780202821105135D+02
 0.262228121863485D+03 0.234236535086780D+03 0.250542265460925D+02 -.824736521829664D+02
 0.146547793012123D+03 0.200539653321671D+02 -.138723465954388D+03 -.427772615390717D+02
0.121941175744D-06 0.000000000000D+00 0.000000000000D+00 0.202990398075D-05 0.000000000000D+00  7 2 -2 24 -11 11 -24 21 2 0.23528928D-01 0.89147800D-01 0.76244311D+05 0.76244311D+05 0.76244311D+05 0.11315184D+01  1  2 14  1  7  1        2 0.497671858801D-05 0.100000000000D+01
  </mgrwgt>
  </event>
  <event>
  9     66 -.26993063E-05 0.24051737E+03 0.75467711E-02 0.10218857E+00
        2 -1    0    0  501    0 0.00000000E+00 0.00000000E+00 0.20646145E+04 0.20646145E+04 0.32000000E+00 0.0000E+00 0.9000E+01
       -2 -1    0    0    0  502 0.00000000E+00 0.00000000E+00 -.45008719E+02 0.45009856E+02 0.32000000E+00 0.0000E+00 0.9000E+01
       25  2    1    2    0    0 -.74613207E+02 -.13574705E+03 0.16562370E+04 0.16905651E+04 0.30148777E+03 0.0000E+00 0.0000E+00
       23  2    1    2    0    0 0.22054370E+02 0.11339446E+03 0.21742529E+03 0.26233619E+03 0.90563902E+02 0.0000E+00 0.0000E+00
       24  1    3    3    0    0 -.10036190E+03 -.19514417E+03 0.12296926E+04 0.12517048E+04 0.80419002E+02 0.0000E+00 0.9000E+01
      -11  1    4    4    0    0 -.28522249E+02 0.93864525E+01 0.58835221E+02 0.66054579E+02 0.51099893E-03 0.0000E+00 0.9000E+01
       11  1    4    4    0    0 0.50576619E+02 0.10400801E+03 0.15859006E+03 0.19628161E+03 0.51099893E-03 0.0000E+00 0.9000E+01
      -24  1    3    3    0    0 0.25748694E+02 0.59397123E+02 0.42654443E+03 0.43886032E+03 0.80419002E+02 0.0000E+00 0.9000E+01
       21  1    1    2  501  502 0.52558838E+02 0.22352586E+02 0.14594346E+03 0.15672309E+03 0.75000000E+00 0.0000E+00 0.9000E+01
#aMCatNLO 2  0  0  2  1 0.57114530D+02 0.00000000D+00  -5  7  0 0.00000000D+00 0.00000000D+00 0.00000000D+00 0.00000000D+00 0.00000000D+00
  <mgrwgt>
 -.1477681029D-03    2    2    0
 0.273838868161934D+03 0.000000000000000D+00 0.000000000000000D+00 0.273838868161934D+03
 0.273838868161934D+03 0.000000000000000D+00 0.000000000000000D+00 -.273838868161934D+03
 0.238808902935027D+03 -.767303197985177D+02 -.185093969824861D+03 0.102054674193549D+03
 0.319009707642973D+02 -.253652859323527D+02 0.107290677119869D+02 -.160984878577505D+02
 0.166443631946049D+03 0.660304629997752D+02 0.110580328450216D+03 -.105429841749238D+03
 0.110524230678495D+03 0.360651427310952D+02 0.637845736626577D+02 0.194736554134392D+02
 0.000000000000000D+00 0.000000000000000D+00 0.000000000000000D+00 -.000000000000000D+00
 0.297098625822267D+03 0.000000000000000D+00 0.000000000000000D+00 0.297098625822267D+03
 0.312776341357289D+03 0.000000000000000D+00 0.000000000000000D+00 -.312776341357289D+03
 0.255021826005942D+03 -.100361901502210D+03 -.195144172311509D+03 0.102054674193549D+03
 0.340703024366282D+02 -.285222493236095D+02 0.938645248957426D+01 -.160984878577505D+02
 0.156496365068263D+03 0.505766192480915D+02 0.104008010911388D+03 -.105429841749238D+03
 0.105059281719921D+03 0.257486940197371D+02 0.593971230132555D+02 0.194736554134392D+02
 0.592271919488012D+02 0.525588375579910D+02 0.223525858972913D+02 -.156777155350219D+02
-.653214491653D-05 0.000000000000D+00 0.000000000000D+00 0.987824042728D-07 0.000000000000D+00  7 2 -2 24 -11 11 -24 21 2 0.29276340D+00 0.71522051D-02 0.72831109D+05 0.72831109D+05 0.72831109D+05 0.11331987D+01  1  2 13  2  7  2       -2 -.858097172884D-03 0.100000000000D+01
0.628452726976D-05 0.000000000000D+00 0.000000000000D+00 0.987824042728D-07 0.211396947945D-09  7 2 -2 24 -11 11 -24 21 2 0.31763059D+00 0.69244534D-02 0.72831109D+05 0.72831109D+05 0.72831109D+05 0.11331987D+01  1  2  1  2  7  2       -2 0.710329069950D-03 0.100000000000D+01
  </mgrwgt>
  </event>
  <event>
  9     66 -.26993063E-05 0.44047909E+03 0.75467711E-02 0.96008539E-01
        2 -1    0    0  502    0 0.00000000E+00 0.00000000E+00 0.32700221E+04 0.32700221E+04 0.32000000E+00 0.0000E+00 0.9000E+01
       -2 -1    0    0    0  501 0.00000000E+00 0.00000000E+00 -.10594329E+03 0.10594377E+03 0.32000000E+00 0.0000E+00 0.9000E+01
       25  2    1    2    0    0 0.14024595E+02 -.40506136E+03 0.63019394E+03 0.80715792E+03 0.30014683E+03 0.0000E+00 0.0000E+00
       23  2    1    2    0    0 -.19993782E+02 0.40564468E+03 0.25020153E+04 0.25363703E+04 0.90256825E+02 0.0000E+00 0.0000E+00
       24  1    3    3    0    0 0.94260233E+02 -.27636134E+03 0.26023484E+03 0.39931187E+03 0.80419002E+02 0.0000E+00 0.9000E+01
      -13  1    4    4    0    0 -.11322076E+02 0.31352587E+03 0.21321186E+04 0.21550768E+04 0.10565837E+00 0.0000E+00 0.9000E+01
       13  1    4    4    0    0 -.86717055E+01 0.92118807E+02 0.36989674E+03 0.38129343E+03 0.10565837E+00 0.0000E+00 0.9000E+01
      -24  1    3    3    0    0 -.80235638E+02 -.12870002E+03 0.36995910E+03 0.40784605E+03 0.80419002E+02 0.0000E+00 0.9000E+01
       21  1    1    2  502  501 0.59691867E+01 -.58332177E+00 0.31869573E+02 0.32437688E+02 0.75000000E+00 0.0000E+00 0.9000E+01
#aMCatNLO 2  0  0  1  2 0.59976207D+01 0.00000000D+00  -5  7  0 0.00000000D+00 0.00000000D+00 0.00000000D+00 0.00000000D+00 0.00000000D+00
  <mgrwgt>
 -.2925584136D-03    3    2    0
 0.584895325809306D+03 0.000000000000000D+00 0.000000000000000D+00 0.584895325809306D+03
 0.584895325809306D+03 0.000000000000000D+00 0.000000000000000D+00 -.584895325809306D+03
 0.445143232466939D+03 0.965300936004397D+02 -.276583154267975D+03 -.325375139279898D+03
 0.450566834023869D+03 -.902241958761429D+01 0.313301446145240D+03 0.323683907092056D+03
 0.993043508666624D+02 -.816474995331882D+01 0.920689626723188D+02 0.363042293912448D+02
 0.174776234261142D+03 -.793429240595066D+02 -.128787254549585D+03 -.346129972034032D+02
 0.000000000000000D+00 0.000000000000000D+00 -.000000000000000D+00 0.000000000000000D+00
 0.590692177510003D+03 0.000000000000000D+00 0.000000000000000D+00 0.590692177510003D+03
 0.586456409196709D+03 0.000000000000000D+00 0.000000000000000D+00 -.586456409196709D+03
 0.444518591622451D+03 0.942602333286308D+02 -.276361338640295D+03 -.325375139279898D+03
 0.450775024741213D+03 -.113220799991683D+02 0.313526173906669D+03 0.323683907092056D+03
 0.993932296397467D+02 -.867170184434516D+01 0.921185031014403D+02 0.363042293912448D+02
 0.175119180681683D+03 -.802356382124149D+02 -.128700016602551D+03 -.346129972034032D+02
 0.734256002161952D+01 0.596918672729767D+01 -.583321765263003D+00 0.423576831329441D+01
-.200972297602D-04 0.000000000000D+00 0.000000000000D+00 0.584745279009D-05 0.000000000000D+00  7 2 -2 24 -13 13 -24 21 2 0.50372454D+00 0.16255091D-01 0.19659660D+06 0.19659660D+06 0.19659660D+06 0.10983983D+01  1  2 13  1  7  1        2 -.104686846028D-03 0.100000000000D+01
-.990656745575D-03 0.000000000000D+00 0.000000000000D+00 0.584745279009D-05 0.000000000000D+00  7 2 -2 24 -13 13 -24 21 2 0.49812710D+00 0.16255091D-01 0.19402183D+06 0.19402183D+06 0.19402183D+06 0.10988390D+01  1  2  8  1  7  1        2 -.546471222043D-02 0.100000000000D+01
0.101072573750D-02 0.000000000000D+00 0.000000000000D+00 0.584745279009D-05 0.104602840463D-05  7 2 -2 24 -13 13 -24 21 2 0.50306400D+00 0.16298476D-01 0.19659660D+06 0.19659660D+06 0.19659660D+06 0.10983983D+01  1  2  1  1  7  1        2 0.527684065286D-02 0.100000000000D+01
  </mgrwgt>
  </event>
  <event>
  9     66 0.26993063E-05 0.26804110E+03 0.75467711E-02 0.10051111E+00
        2 -1    0    0  502    0 0.00000000E+00 0.00000000E+00 0.29257316E+04 0.29257316E+04 0.32000000E+00 0.0000E+00 0.9000E+01
       -2 -1    0    0    0  501 0.00000000E+00 0.00000000E+00 -.50033852E+02 0.50034875E+02 0.32000000E+00 0.0000E+00 0.9000E+01
       25  2    1    2    0    0 0.13866740E+03 -.61321717E+02 0.23129281E+04 0.23373457E+04 0.30093123E+03 0.0000E+00 0.0000E+00
       23  2    1    2    0    0 -.20069984E+03 0.30102456E+02 0.34700131E+03 0.41175096E+03 0.89119927E+02 0.0000E+00 0.0000E+00
       24  1    3    3    0    0 0.13228660E+03 0.76713737E+02 0.10139284E+04 0.10285440E+04 0.80419002E+02 0.0000E+00 0.9000E+01
      -13  1    4    4    0    0 -.20223361E+03 0.36189187E+02 0.34915497E+03 0.40511393E+03 0.10565837E+00 0.0000E+00 0.9000E+01
       13  1    4    4    0    0 0.15337754E+01 -.60867316E+01 -.21536596E+01 0.66370311E+01 0.10565837E+00 0.0000E+00 0.9000E+01
      -24  1    3    3    0    0 0.63807991E+01 -.13803545E+03 0.12989998E+04 0.13088018E+04 0.80419002E+02 0.0000E+00 0.9000E+01
       21  1    1    2  502  501 0.62032440E+02 0.31219261E+02 0.21576826E+03 0.22666974E+03 0.75000000E+00 0.0000E+00 0.9000E+01
#aMCatNLO 2  0  0  1  2 0.69445417D+02 0.00000000D+00  -5  7  0 0.00000000D+00 0.00000000D+00 0.00000000D+00 0.00000000D+00 0.00000000D+00
  <mgrwgt>
 0.4945853013D-03    1    2    0
 0.345501595282031D+03 0.000000000000000D+00 0.000000000000000D+00 0.345501595282031D+03
 0.345501595282031D+03 0.000000000000000D+00 0.000000000000000D+00 -.345501595282031D+03
 0.204326006508635D+03 0.149853886510773D+03 0.855548804664413D+02 0.742029386708207D+02
 0.251163455587856D+03 -.179063636390779D+03 0.478502178550566D+02 -.169498236558872D+03
 0.345574859436094D+02 0.462690809711521D+01 -.453024438986836D+01 -.339453743825529D+02
 0.200956242523962D+03 0.245828417828909D+02 -.128874853931630D+03 0.129240672270604D+03
 0.000000000000000D+00 0.000000000000000D+00 0.000000000000000D+00 -.000000000000000D+00
 0.375643153595221D+03 0.000000000000000D+00 0.000000000000000D+00 0.375643153595221D+03
 0.389693364493719D+03 0.000000000000000D+00 0.000000000000000D+00 -.389693364493719D+03
 0.188037318627236D+03 0.132286597532075D+03 0.767137357202171D+02 0.742029386708207D+02
 0.266341629852616D+03 -.202233899260608D+03 0.361892468259678D+02 -.169498236558872D+03
 0.345208750064077D+02 0.153406161722696D+01 -.608679096001361D+01 -.339453743825529D+02
 0.205584211796890D+03 0.638079998881586D+01 -.138035452722563D+03 0.129240672270604D+03
 0.708524828057904D+02 0.620324401224899D+02 0.312192611363920D+02 -.140502108984985D+02
0.162570073063D-04 0.000000000000D+00 0.000000000000D+00 0.215070785511D-06 0.302580043070D-09  7 2 -2 24 -13 13 -24 21 2 0.45011028D+00 0.76975557D-02 0.94195721D+05 0.94195721D+05 0.94195721D+05 0.11238593D+01  1  2  1  1  7  1        2 0.494585301260D-03 0.100000000000D+01
  </mgrwgt>
  </event>
  <event>
  8     66 0.26993063E-05 0.34827542E+03 0.75467711E-02 0.93369032E-01
        2 -1    0    0  501    0 0.00000000E+00 0.00000000E+00 0.17561638E+04 0.17561639E+04 0.32000000E+00 0.0000E+00 0.9000E+01
       -2 -1    0    0    0  501 0.00000000E+00 0.00000000E+00 -.79544330E+02 0.79544974E+02 0.32000000E+00 0.0000E+00 0.9000E+01
       25  2    1    2    0    0 -.11674797E+03 0.26478722E+03 0.71884393E+03 0.83094931E+03 0.29999633E+03 0.0000E+00 0.0000E+00
       23  2    1    2    0    0 0.11674797E+03 -.26478722E+03 0.95777556E+03 0.10047595E+04 0.92007048E+02 0.0000E+00 0.0000E+00
       24  1    3    3    0    0 -.18255255E+03 0.13822945E+03 0.51626287E+03 0.57046243E+03 0.80419002E+02 0.0000E+00 0.9000E+01
      -13  1    4    4    0    0 0.14760127E+02 -.53402273E+02 0.88973904E+02 0.10481427E+03 0.10565837E+00 0.0000E+00 0.9000E+01
       13  1    4    4    0    0 0.10198784E+03 -.21138495E+03 0.86880166E+03 0.89994525E+03 0.10565837E+00 0.0000E+00 0.9000E+01
      -24  1    3    3    0    0 0.65804580E+02 0.12655778E+03 0.20258106E+03 0.26048688E+03 0.80419002E+02 0.0000E+00 0.9000E+01
#aMCatNLO 1  0  0  1  2 0.35378019D+03 0.00000000D+00  -5  7  0 0.00000000D+00 0.00000000D+00 0.00000000D+00 0.00000000D+00 0.00000000D+00
  <mgrwgt>
 0.1010425244D-02    5    2    0
 0.373755926365379D+03 0.000000000000000D+00 0.000000000000000D+00 0.373755926365379D+03
 0.373755926365379D+03 0.000000000000000D+00 0.000000000000000D+00 -.373755926365379D+03
 0.242974771433195D+03 -.182552551097169D+03 0.138229447839791D+03 -.116922810633740D+02
 0.578357325450080D+02 0.147600123832750D+02 -.534020649783206D+02 -.165931747870770D+02
 0.261384270552110D+03 0.101987958846181D+03 -.211385158316587D+03 0.115050023841457D+03
 0.185317078200446D+03 0.658045798677129D+02 0.126557775455117D+03 -.867645679910060D+02
 0.000000000000000D+00 0.000000000000000D+00 -.000000000000000D+00 0.000000000000000D+00
 0.983227365322153D+03 0.000000000000000D+00 0.000000000000000D+00 0.983227365322153D+03
 0.468422978966058D+03 0.000000000000000D+00 0.000000000000000D+00 -.468422978966058D+03
 0.364263236499230D+03 -.239353873153979D+03 0.262285156805045D+03 -.116922810633740D+02
 0.380982103195980D+02 0.578630732257576D+01 -.338032369398338D+02 -.165931747870770D+02
 0.178123505500766D+03 0.608761996876036D+02 -.121595902634737D+03 0.115050023841457D+03
 0.246518308238610D+03 0.254104995561562D+02 0.214779600046411D+03 -.867645679910060D+02
 0.624647083730008D+03 0.147280866587644D+03 -.321665617276885D+03 0.514804386356095D+03
0.188565559392D-04 0.000000000000D+00 0.000000000000D+00 0.272664731505D-05 0.000000000000D+00  7 2 -2 24 -13 13 -24 21 0 0.27017910D+00 0.12237641D-01 0.12129577D+06 0.12129577D+06 0.12129577D+06 0.11149058D+01  1  2  2  1  7  1        2 0.100372138685D-02 0.100000000000D+01
-.104123611423D-05 0.000000000000D+00 -.724141398518D-07 0.272664731505D-05 0.000000000000D+00  7 2 -2 24 -13 13 -24 21 2 0.27017910D+00 0.12237641D-01 0.12129577D+06 0.12129577D+06 0.12129577D+06 0.11149058D+01  1  2  3  1  7  1        2 -.688932024979D-04 0.100000000000D+01
0.120689635625D-05 0.000000000000D+00 0.000000000000D+00 0.272664731505D-05 0.000000000000D+00  7 2 -2 24 -13 13 -24 21 2 0.27017910D+00 0.12237641D-01 0.12129577D+06 0.12129577D+06 0.12129577D+06 0.11149058D+01  1  2 15  1  7  1        2 0.798540829781D-04 0.100000000000D+01
-.825877057954D-05 0.000000000000D+00 -.479773531315D-05 0.272664731505D-05 0.000000000000D+00  7 2 -2 24 -13 13 -24 21 2 0.72911830D+00 0.12237641D-01 0.12129577D+06 0.12129577D+06 0.12129577D+06 0.11149058D+01  1  2  5  1  7  1        2 -.425406087213D-05 0.100000000000D+01
-.635031592840D-06 0.000000000000D+00 -.531237861361D-06 0.272664731505D-05 0.000000000000D+00  7 21 -2 24 -13 13 -24 -2 2 0.72911830D+00 0.12237641D-01 0.12129577D+06 0.12129577D+06 0.12129577D+06 0.11149058D+01  1  2  5  3  7  1        2 -.296227451001D-08 0.100000000000D+01
  </mgrwgt>
  </event>
  <event>
  8     66 0.26993063E-05 0.29897122E+03 0.75467711E-02 0.90752490E-01
        2 -1    0    0  501    0 0.00000000E+00 0.00000000E+00 0.25837293E+03 0.25837313E+03 0.32000000E+00 0.0000E+00 0.9000E+01
       -2 -1    0    0    0  501 0.00000000E+00 0.00000000E+00 -.37415598E+03 0.37415612E+03 0.32000000E+00 0.0000E+00 0.9000E+01
       25  2    1    2    0    0 -.17169205E+03 -.13864941E+03 -.13332475E+02 0.37270949E+03 0.30005464E+03 0.0000E+00 0.0000E+00
       23  2    1    2    0    0 0.17169205E+03 0.13864941E+03 -.10245057E+03 0.25981975E+03 0.91150228E+02 0.0000E+00 0.0000E+00
       24  1    3    3    0    0 -.21763355E+03 -.64934964E+02 0.37596394E+02 0.24384752E+03 0.80419002E+02 0.0000E+00 0.9000E+01
      -13  1    4    4    0    0 0.17323295E+03 0.10012949E+03 -.88998063E+02 0.21898912E+03 0.10565837E+00 0.0000E+00 0.9000E+01
       13  1    4    4    0    0 -.15409020E+01 0.38519926E+02 -.13452512E+02 0.40830629E+02 0.10565837E+00 0.0000E+00 0.9000E+01
      -24  1    3    3    0    0 0.45941494E+02 -.73714448E+02 -.50928869E+02 0.12886197E+03 0.80419002E+02 0.0000E+00 0.9000E+01
#aMCatNLO 1  0  0  2  2 0.58948750D+03 0.00000000D+00  -5  7  0 0.00000000D+00 0.00000000D+00 0.00000000D+00 0.00000000D+00 0.00000000D+00
  <mgrwgt>
 0.9490846587D-03    3    2    0
 0.310921022529237D+03 0.000000000000000D+00 0.000000000000000D+00 0.310921022529237D+03
 0.310921022529237D+03 0.000000000000000D+00 0.000000000000000D+00 -.310921022529237D+03
 0.255038584050636D+03 -.217633545877334D+03 -.649349644978252D+02 0.836454033088908D+02
 0.206182098767583D+03 0.173233188495603D+03 0.100129569863543D+03 -.497532862713023D+02
 0.390273614393272D+02 -.154113613445962D+01 0.385198424496013D+02 -.608124806177448D+01
 0.121594000800927D+03 0.459414935161904D+02 -.737144478153187D+02 -.278108689758141D+02
 0.000000000000000D+00 0.000000000000000D+00 -.000000000000000D+00 0.000000000000000D+00
 0.247346167251586D+04 0.000000000000000D+00 0.000000000000000D+00 0.247346167251586D+04
 0.470902705284208D+03 0.000000000000000D+00 0.000000000000000D+00 -.470902705284208D+03
 0.388935453588991D+03 -.332776742995999D+03 0.164519472799944D+03 0.836454033088908D+02
 0.295284297111883D+03 0.835704991723299D+02 0.278807098715496D+03 -.497532862713023D+02
 0.870684824726565D+02 -.240871981847545D+02 0.834490619822105D+02 -.608124806177448D+01
 0.855565817998434D+02 0.890276373591518D+01 0.953916943355892D-01 -.278108689758141D+02
 0.208751956282670D+04 0.264390678272509D+03 -.526871025191986D+03 0.200255896723166D+04
0.207466278347D-04 0.000000000000D+00 0.000000000000D+00 0.128339779547D-05 0.000000000000D+00  7 2 -2 24 -13 13 -24 21 0 0.39749707D-01 0.57562484D-01 0.89383791D+05 0.89383791D+05 0.89383791D+05 0.11257439D+01  1  2  2  2  7  2       -2 0.938048356830D-03 0.100000000000D+01
-.115043793668D-05 0.000000000000D+00 -.796725135977D-07 0.128339779547D-05 0.000000000000D+00  7 2 -2 24 -13 13 -24 21 2 0.39749707D-01 0.57562484D-01 0.89383791D+05 0.89383791D+05 0.89383791D+05 0.11257439D+01  1  2  3  2  7  2       -2 -.659204424200D-04 0.100000000000D+01
0.134304253491D-05 0.000000000000D+00 0.000000000000D+00 0.128339779547D-05 0.000000000000D+00  7 2 -2 24 -13 13 -24 21 2 0.39749707D-01 0.57562484D-01 0.89383791D+05 0.89383791D+05 0.89383791D+05 0.11257439D+01  1  2 15  2  7  2       -2 0.769567442686D-04 0.100000000000D+01
  </mgrwgt>
  </event>
  <event>
  9     66 0.26993063E-05 0.30124951E+03 0.75467711E-02 0.97407176E-01
        2 -1    0    0  501    0 0.00000000E+00 0.00000000E+00 0.20192305E+04 0.20192305E+04 0.32000000E+00 0.0000E+00 0.9000E+01
       -2 -1    0    0    0  502 0.00000000E+00 0.00000000E+00 -.11276588E+03 0.11276634E+03 0.32000000E+00 0.0000E+00 0.9000E+01
       25  2    1    2    0    0 0.24365653E+03 0.15244618E+03 0.13161035E+04 0.13801094E+04 0.29994226E+03 0.0000E+00 0.0000E+00
       23  2    1    2    0    0 -.10569424E+03 -.24053051E+03 0.25003763E+03 0.37424593E+03 0.92276770E+02 0.0000E+00 0.0000E+00
       24  1    3    3    0    0 0.74629256E+02 0.81079795E+01 0.12826084E+03 0.16897729E+03 0.80419002E+02 0.0000E+00 0.9000E+01
      -11  1    4    4    0    0 -.70524411E+02 -.23108760E+03 0.20991252E+03 0.32006005E+03 0.51099893E-03 0.0000E+00 0.9000E+01
       11  1    4    4    0    0 -.35169826E+02 -.94429158E+01 0.40125109E+02 0.54185881E+02 0.51099893E-03 0.0000E+00 0.9000E+01
      -24  1    3    3    0    0 0.16902727E+03 0.14433820E+03 0.11878426E+04 0.12111321E+04 0.80419002E+02 0.0000E+00 0.9000E+01
       21  1    1    2  501  502 -.13796229E+03 0.88084334E+02 0.34032353E+03 0.37764151E+03 0.75000000E+00 0.0000E+00 0.9000E+01
#aMCatNLO 2  0  0  2  2 0.16368398D+03 0.00000000D+00  -5  7  0 0.00000000D+00 0.00000000D+00 0.00000000D+00 0.00000000D+00 0.00000000D+00
  <mgrwgt>
 0.1925955713D-03    1    2    0
 0.386708014414607D+03 0.000000000000000D+00 0.000000000000000D+00 0.386708014414607D+03
 0.386708014414607D+03 0.000000000000000D+00 0.000000000000000D+00 -.386708014414607D+03
 0.111181822859773D+03 0.541571763349646D+02 0.211787213364016D+02 -.501262784777608D+02
 0.287194660498404D+03 -.121829816469591D+03 -.198330802393642D+03 -.168235435208143D+03
 0.468571171280794D+02 -.428984837140403D+02 -.450842498850417D+01 -.183025578735269D+02
 0.328182428342957D+03 0.110571123848667D+03 0.181660506045745D+03 0.236664271559431D+03
 0.000000000000000D+00 -.000000000000000D+00 0.000000000000000D+00 0.000000000000000D+00
 0.480739631297879D+03 0.000000000000000D+00 0.000000000000000D+00 0.480739631297879D+03
 0.473645168026537D+03 0.000000000000000D+00 0.000000000000000D+00 -.473645168026537D+03
 0.120893030841513D+03 0.746292558331919D+02 0.810797949124981D+01 -.501262784777608D+02
 0.294411840603997D+03 -.705244107465745D+02 -.231087597497158D+03 -.168235435208143D+03
 0.407562136928055D+02 -.351698261491915D+02 -.944291578356319D+01 -.183025578735269D+02
 0.334486065492388D+03 0.169027272243914D+03 0.144338199584287D+03 0.236664271559431D+03
 0.163837648693711D+03 -.137962291181340D+03 0.880843342051844D+02 0.709446327134261D+01
0.721158979779D-05 0.000000000000D+00 0.000000000000D+00 0.203823589235D-05 0.519344846726D-09  7 2 -2 24 -11 11 -24 21 2 0.31065033D+00 0.17348603D-01 0.15527170D+06 0.15527170D+06 0.15527170D+06 0.11063700D+01  1  2  1  2  7  2       -2 0.192595571264D-03 0.100000000000D+01
  </mgrwgt>
  </event>
  <event>
  9     66 0.26993063E-05 0.18474824E+03 0.75467711E-02 0.92780341E-01
        2 -1    0    0  502    0 0.00000000E+00 0.00000000E+00 0.22061218E+04 0.22061219E+04 0.32000000E+00 0.0000E+00 0.9000E+01
       -2 -1    0    0    0  501 0.00000000E+00 0.00000000E+00 -.19846458E+03 0.19846484E+03 0.32000000E+00 0.0000E+00 0.9000E+01
       25  2    1    2    0    0 -.23204732E+03 0.24767429E+03 0.43203972E+03 0.62708646E+03 0.30230876E+03 0.0000E+00 0.0000E+00
       23  2    1    2    0    0 -.17737982E+03 0.89042918E+02 0.17315322E+03 0.27819515E+03 0.89544741E+02 0.0000E+00 0.0000E+00
       24  1    3    3    0    0 0.29214139E+02 0.72299180E+01 0.50001246E+02 0.99363364E+02 0.80419002E+02 0.0000E+00 0.9000E+01
      -13  1    4    4    0    0 -.13132800E+03 0.79553779E+02 0.78365592E+02 0.17238627E+03 0.10565837E+00 0.0000E+00 0.9000E+01
       13  1    4    4    0    0 -.46051817E+02 0.94891393E+01 0.94787626E+02 0.10580888E+03 0.10565837E+00 0.0000E+00 0.9000E+01
      -24  1    3    3    0    0 -.26126146E+03 0.24044438E+03 0.38203848E+03 0.52772310E+03 0.80419002E+02 0.0000E+00 0.9000E+01
       21  1    1    2  502  501 0.40942714E+03 -.33671721E+03 0.14024643E+04 0.14993051E+04 0.75000000E+00 0.0000E+00 0.9000E+01
#aMCatNLO 2  0  0  1  2 0.53010288D+03 0.00000000D+00  -5  7  0 0.00000000D+00 0.00000000D+00 0.00000000D+00 0.00000000D+00 0.00000000D+00
  <mgrwgt>
 0.5718768664D-04    1    2    0
 0.207525432388721D+03 0.000000000000000D+00 0.000000000000000D+00 0.207525432388721D+03
 0.207525432388721D+03 0.000000000000000D+00 0.000000000000000D+00 -.207525432388721D+03
 0.166770169160363D+03 0.125308598405854D+03 -.717989625576666D+02 -.220847800217394D+02
 0.676434662207574D+02 -.451789055986296D+02 0.870356473134214D+01 -.495858142237898D+02
 0.394456094883493D+02 -.974268877592268D+01 -.203719905355081D+02 0.323422034645760D+02
 0.141191619907972D+03 -.703870040313017D+02 0.834673883618326D+02 0.393283907809533D+02
 0.000000000000000D+00 0.000000000000000D+00 -.000000000000000D+00 0.000000000000000D+00
 0.983325850998372D+03 0.000000000000000D+00 0.000000000000000D+00 0.983325850998372D+03
 0.445261433876464D+03 0.000000000000000D+00 0.000000000000000D+00 -.445261433876464D+03
 0.886605952195656D+02 0.292142867568349D+02 0.723001597494257D+01 -.220847800217394D+02
 0.161352784152416D+03 -.131328422878724D+03 0.795538391637181D+02 -.495858142237898D+02
 0.570686489064676D+02 -.460518281518305D+02 0.948902982079330D+01 0.323422034645760D+02
 0.366175935813803D+03 -.261261177463327D+03 0.240444327950983D+03 0.393283907809533D+02
 0.755329320782584D+03 0.409427141737048D+03 -.336717212910437D+03 0.538064417121909D+03
0.771982668527D-05 0.000000000000D+00 0.000000000000D+00 0.108401777132D-07 0.808582917320D-12  7 2 -2 24 -13 13 -24 21 2 0.33940326D+00 0.30533023D-01 0.34844855D+06 0.34844855D+06 0.34844855D+06 0.10797741D+01  1  2  1  1  7  1        2 0.571876866384D-04 0.100000000000D+01
  </mgrwgt>
  </event>
  <event>
  8     66 0.26993063E-05 0.22352835E+03 0.75467711E-02 0.94913569E-01
        2 -1    0    0  501    0 0.00000000E+00 0.00000000E+00 0.10203700E+04 0.10203700E+04 0.32000000E+00 0.0000E+00 0.9000E+01
       -2 -1    0    0    0  501 0.00000000E+00 0.00000000E+00 -.28646360E+03 0.28646378E+03 0.32000000E+00 0.0000E+00 0.9000E+01
       25  2    1    2    0    0 -.36003805E+01 -.42334221E+03 0.70019610E+03 0.87277393E+03 0.30369090E+03 0.0000E+00 0.0000E+00
       23  2    1    2    0    0 0.36003805E+01 0.42334221E+03 0.33710270E+02 0.43405987E+03 0.89666052E+02 0.0000E+00 0.0000E+00
       24  1    3    3    0    0 -.28357693E+00 -.22625795E+03 0.15073995E+03 0.28351806E+03 0.80419002E+02 0.0000E+00 0.9000E+01
      -13  1    4    4    0    0 -.25472501E+02 0.22387224E+03 0.53292372E+02 0.23153341E+03 0.10565837E+00 0.0000E+00 0.9000E+01
       13  1    4    4    0    0 0.29072881E+02 0.19946997E+03 -.19582101E+02 0.20252647E+03 0.10565837E+00 0.0000E+00 0.9000E+01
      -24  1    3    3    0    0 -.33168036E+01 -.19708426E+03 0.54945615E+03 0.58925588E+03 0.80419002E+02 0.0000E+00 0.9000E+01
#aMCatNLO 1  0  0  1  2 0.94453095D+02 0.00000000D+00  -5  7  0 0.00000000D+00 0.00000000D+00 0.00000000D+00 0.00000000D+00 0.00000000D+00
  <mgrwgt>
 0.9624408458D-03    9    2    0
 0.540646840989907D+03 0.000000000000000D+00 0.000000000000000D+00 0.540646840989907D+03
 0.540646840989907D+03 0.000000000000000D+00 0.000000000000000D+00 -.540646840989907D+03
 0.240343555729448D+03 -.283576929636288D+00 -.226257947093072D+03 -.102503554893187D+02
 0.243656328837315D+03 -.254725765692423D+02 0.223872278205600D+03 -.927402689042702D+02
 0.258061143080441D+03 0.290729570676120D+02 0.199469932695783D+03 -.161127473404347D+03
 0.339232654332610D+03 -.331680356873341D+01 -.197084263808311D+03 0.264118097797936D+03
 0.000000000000000D+00 0.000000000000000D+00 -.000000000000000D+00 0.000000000000000D+00
 0.599563983260383D+03 0.000000000000000D+00 0.000000000000000D+00 0.599563983260383D+03
 0.581931925941971D+03 0.000000000000000D+00 0.000000000000000D+00 -.581931925941971D+03
 0.224232955188338D+03 -.105465921060914D+02 -.208798711311672D+03 -.102503554893187D+02
 0.262570445358463D+03 -.366556926851119D+02 0.242896771269360D+03 -.927402689042702D+02
 0.272777960155357D+03 0.173461270520305D+02 0.219419380951510D+03 -.161127473404347D+03
 0.325829812002464D+03 -.180087779257741D+02 -.172090571410553D+03 0.264118097797936D+03
 0.960847364977318D+02 0.478649356649470D+02 -.814268694986445D+02 0.176320573184114D+02
0.354848108250D-04 0.000000000000D+00 0.000000000000D+00 0.438201031060D-07 0.000000000000D+00  7 2 -2 24 -13 13 -24 21 0 0.15698001D+00 0.44071341D-01 0.19355824D+06 0.19355824D+06 0.19355824D+06 0.10989191D+01  1  2  2  1  7  1        2 0.536852240146D-03 0.100000000000D+01
-.186956497791D-05 0.000000000000D+00 -.136271016933D-06 0.438201031060D-07 0.000000000000D+00  7 2 -2 24 -13 13 -24 21 2 0.15698001D+00 0.44071341D-01 0.19355824D+06 0.19355824D+06 0.19355824D+06 0.10989191D+01  1  2  3  1  7  1        2 -.341573563532D-04 0.100000000000D+01
0.221373860074D-05 0.000000000000D+00 0.000000000000D+00 0.438201031060D-07 0.000000000000D+00  7 2 -2 24 -13 13 -24 21 2 0.15698001D+00 0.44071341D-01 0.19355824D+06 0.19355824D+06 0.19355824D+06 0.10989191D+01  1  2 15  1  7  1        2 0.404454828541D-04 0.100000000000D+01
0.433563400326D-04 0.000000000000D+00 0.000000000000D+00 0.438201031060D-07 0.000000000000D+00  7 2 -2 24 -13 13 -24 21 2 0.17952734D+00 0.44071341D-01 0.23766018D+06 0.23766018D+06 0.23766018D+06 0.10921168D+01  1  2 12  1  7  1        2 0.635853189477D-03 0.100000000000D+01
-.388983593663D-04 0.000000000000D+00 0.000000000000D+00 0.438201031060D-07 0.000000000000D+00  7 2 -2 24 -13 13 -24 21 2 0.15698001D+00 0.44071341D-01 0.19355824D+06 0.19355824D+06 0.19355824D+06 0.10989191D+01  1  2  4  1  7  1        2 -.710681435591D-03 0.100000000000D+01
-.117499466422D-03 0.000000000000D+00 -.305682944006D-04 0.438201031060D-07 0.000000000000D+00  7 2 -2 24 -13 13 -24 21 2 0.18286856D+00 0.44071341D-01 0.19355824D+06 0.19355824D+06 0.19355824D+06 0.10989191D+01  1  2  5  1  7  1        2 -.170627299537D-02 0.100000000000D+01
0.121104693904D-03 0.000000000000D+00 0.302155723445D-04 0.438201031060D-07 0.000000000000D+00  7 2 -2 24 -13 13 -24 21 2 0.15698001D+00 0.44071341D-01 0.19355824D+06 0.19355824D+06 0.19355824D+06 0.10989191D+01  1  2  6  1  7  1        2 0.221260894090D-02 0.100000000000D+01
0.903027295748D-06 0.000000000000D+00 0.000000000000D+00 0.438201031060D-07 0.000000000000D+00  7 21 -2 24 -13 13 -24 -2 2 0.17952734D+00 0.44071341D-01 0.23766018D+06 0.23766018D+06 0.23766018D+06 0.10921168D+01  1  2 12  3  7  1        2 0.725298010290D-05 0.100000000000D+01
-.249954003366D-05 0.000000000000D+00 -.707228688907D-06 0.438201031060D-07 0.000000000000D+00  7 21 -2 24 -13 13 -24 -2 2 0.18286856D+00 0.44071341D-01 0.19355824D+06 0.19355824D+06 0.19355824D+06 0.10989191D+01  1  2  5  3  7  1        2 -.194602003290D-04 0.100000000000D+01
  </mgrwgt>
  </event>
  <event>
  8     66 0.26993063E-05 0.82036751E+03 0.75467711E-02 0.89060612E-01
        2 -1    0    0  501    0 0.00000000E+00 0.00000000E+00 0.43741649E+04 0.43741649E+04 0.32000000E+00 0.0000E+00 0.9000E+01
       -2 -1    0    0    0  501 0.00000000E+00 0.00000000E+00 -.16442405E+03 0.16442436E+03 0.32000000E+00 0.0000E+00 0.9000E+01
       25  2    1    2    0    0 0.53672197E+03 0.60702096E+03 0.18567473E+04 0.20481256E+04 0.30126882E+03 0.0000E+00 0.0000E+00
       23  2    1    2    0    0 -.53672197E+03 -.60702096E+03 0.23529935E+04 0.24904637E+04 0.96363185E+02 0.0000E+00 0.0000E+00
       24  1    3    3    0    0 0.18612966E+03 0.22330721E+03 0.41189242E+03 0.51052222E+03 0.80419002E+02 0.0000E+00 0.9000E+01
      -13  1    4    4    0    0 -.55219805E+02 -.98016609E+02 0.25971504E+03 0.28303427E+03 0.10565837E+00 0.0000E+00 0.9000E+01
       13  1    4    4    0    0 -.48150217E+03 -.50900435E+03 0.20932785E+04 0.22074294E+04 0.10565837E+00 0.0000E+00 0.9000E+01
      -24  1    3    3    0    0 0.35059231E+03 0.38371374E+03 0.14448549E+04 0.15376033E+04 0.80419002E+02 0.0000E+00 0.9000E+01
#aMCatNLO 1  0  0  2  2 0.44823752D+02 0.00000000D+00  -5  7  0 0.00000000D+00 0.00000000D+00 0.00000000D+00 0.00000000D+00 0.00000000D+00
  <mgrwgt>
 0.5973979237D-03    4    2    0
 0.848067584663044D+03 0.000000000000000D+00 0.000000000000000D+00 0.848067584663044D+03
 0.848067584663044D+03 0.000000000000000D+00 0.000000000000000D+00 -.848067584663044D+03
 0.343775870691358D+03 0.186129658275434D+03 0.223307212530009D+03 -.164937177305718D+03
 0.112751655082295D+03 -.552192921625850D+02 -.980161151283361D+02 -.752374055963456D+01
 0.711297490924330D+03 -.481502679813401D+03 -.509004840963067D+03 0.122529024332704D+03
 0.528310152628104D+03 0.350592313700551D+03 0.383713743561394D+03 0.499318935326483D+02
 0.000000000000000D+00 0.000000000000000D+00 0.000000000000000D+00 0.000000000000000D+00
 0.933293344443687D+03 0.000000000000000D+00 0.000000000000000D+00 0.933293344443687D+03
 0.854277885269786D+03 0.000000000000000D+00 0.000000000000000D+00 -.854277885269786D+03
 0.336579809608967D+03 0.182756095200088D+03 0.214976020736446D+03 -.164937177305718D+03
 0.115739630607394D+03 -.563522727296039D+02 -.100814070344053D+03 -.752374055963456D+01
 0.728789809338225D+03 -.488643393828307D+03 -.526639210522040D+03 0.122529024332704D+03
 0.515618094873537D+03 0.345415965665171D+03 0.370930479306415D+03 0.499318935326483D+02
 0.908438852853506D+02 0.168236056926525D+02 0.415467808232316D+02 0.790154591739012D+02
0.256142635017D-02 0.000000000000D+00 0.000000000000D+00 0.145180690562D-06 0.000000000000D+00  7 2 -2 24 -13 13 -24 21 0 0.67294847D+00 0.25296032D-01 0.67300286D+06 0.67300286D+06 0.67300286D+06 0.10595078D+01  1  2  2  2  7  2       -2 0.648496136094D-03 0.100000000000D+01
-.142110665884D-03 0.000000000000D+00 -.983655162372D-05 0.145180690562D-06 0.000000000000D+00  7 2 -2 24 -13 13 -24 21 2 0.67294847D+00 0.25296032D-01 0.67300286D+06 0.67300286D+06 0.67300286D+06 0.10595078D+01  1  2  3  2  7  2       -2 -.403887618677D-04 0.100000000000D+01
0.162927722632D-03 0.000000000000D+00 0.000000000000D+00 0.145180690562D-06 0.000000000000D+00  7 2 -2 24 -13 13 -24 21 2 0.67294847D+00 0.25296032D-01 0.67300286D+06 0.67300286D+06 0.67300286D+06 0.10595078D+01  1  2 15  2  7  2       -2 0.463051027880D-04 0.100000000000D+01
-.200609668807D-03 0.000000000000D+00 0.000000000000D+00 0.145180690562D-06 0.000000000000D+00  7 2 -2 24 -13 13 -24 21 2 0.67294847D+00 0.25296032D-01 0.67300286D+06 0.67300286D+06 0.67300286D+06 0.10595078D+01  1  2  4  2  7  2       -2 -.570145533511D-04 0.100000000000D+01
  </mgrwgt>
  </event>
  <event>
  8     66 0.26993063E-05 0.21094670E+03 0.75467711E-02 0.95166167E-01
        2 -1    0    0  501    0 0.00000000E+00 0.00000000E+00 0.20786503E+03 0.20786528E+03 0.32000000E+00 0.0000E+00 0.9000E+01
       -2 -1    0    0    0  501 0.00000000E+00 0.00000000E+00 -.25904197E+03 0.25904217E+03 0.32000000E+00 0.0000E+00 0.9000E+01
       25  2    1    2    0    0 0.70063617E+01 0.10257352E+03 -.78471016E+02 0.32595395E+03 0.29919536E+03 0.0000E+00 0.0000E+00
       23  2    1    2    0    0 -.70063617E+01 -.10257352E+03 0.27294079E+02 0.14095350E+03 0.92479760E+02 0.0000E+00 0.0000E+00
       24  1    3    3    0    0 -.94361305E+02 0.13448512E+03 -.39913940E+02 0.18721816E+03 0.80419002E+02 0.0000E+00 0.9000E+01
      -13  1    4    4    0    0 0.72020735E+01 -.11755273E+02 -.29735982E+02 0.32776456E+02 0.10565837E+00 0.0000E+00 0.9000E+01
       13  1    4    4    0    0 -.14208435E+02 -.90818243E+02 0.57030061E+02 0.10817704E+03 0.10565837E+00 0.0000E+00 0.9000E+01
      -24  1    3    3    0    0 0.10136767E+03 -.31911599E+02 -.38557076E+02 0.13873579E+03 0.80419002E+02 0.0000E+00 0.9000E+01
#aMCatNLO 1  0  0  2  2 0.40157502D+03 0.00000000D+00  -5  7  0 0.00000000D+00 0.00000000D+00 0.00000000D+00 0.00000000D+00 0.00000000D+00
  <mgrwgt>
 0.7046930143D-03    5    2    0
 0.232047130030076D+03 0.000000000000000D+00 0.000000000000000D+00 0.232047130030076D+03
 0.232047130030076D+03 0.000000000000000D+00 0.000000000000000D+00 -.232047130030076D+03
 0.183951616991502D+03 -.943613029402723D+02 0.134485140858768D+03 -.195108389114671D+02
 0.296959300687222D+02 0.720209287494467D+01 -.117551873474224D+02 -.263019712435040D+02
 0.115121753987511D+03 -.142084576472487D+02 -.908183730165955D+02 0.693048417866007D+02
 0.135324959012417D+03 0.101367667712576D+03 -.319115804947505D+02 -.234920316316296D+02
 0.000000000000000D+00 0.000000000000000D+00 -.000000000000000D+00 -.000000000000000D+00
 0.407901133963011D+03 0.000000000000000D+00 0.000000000000000D+00 0.407901133963011D+03
 0.705849477847738D+03 0.000000000000000D+00 0.000000000000000D+00 -.705849477847738D+03
 0.377455407107442D+03 -.151296669066909D+03 0.335758862123554D+03 -.195108389114671D+02
 0.277858386721560D+02 0.137255136872413D+01 0.885297928164222D+01 -.263019712435040D+02
 0.799657888606291D+02 -.339933555947442D+02 -.208762560926578D+02 0.693048417866007D+02
 0.128507865899031D+03 0.746109335825262D+02 0.626768592330159D+02 -.234920316316296D+02
 0.500035711271490D+03 0.109306539710403D+03 -.386412444545554D+03 -.297948343884727D+03
0.576119375259D-05 0.000000000000D+00 0.000000000000D+00 0.148269324075D-06 0.000000000000D+00  7 2 -2 24 -13 13 -24 21 0 0.31979270D-01 0.39852645D-01 0.44498510D+05 0.44498510D+05 0.44498510D+05 0.11517751D+01  1  2  2  2  7  2       -2 0.674201906441D-03 0.100000000000D+01
-.316529391282D-06 0.000000000000D+00 -.221245009671D-07 0.148269324075D-06 0.000000000000D+00  7 2 -2 24 -13 13 -24 21 2 0.31979270D-01 0.39852645D-01 0.44498510D+05 0.44498510D+05 0.44498510D+05 0.11517751D+01  1  2  3  2  7  2       -2 -.491390670283D-04 0.100000000000D+01
0.372365642209D-06 0.000000000000D+00 0.000000000000D+00 0.148269324075D-06 0.000000000000D+00  7 2 -2 24 -13 13 -24 21 2 0.31979270D-01 0.39852645D-01 0.44498510D+05 0.44498510D+05 0.44498510D+05 0.11517751D+01  1  2 15  2  7  2       -2 0.578072708428D-04 0.100000000000D+01
0.190189187894D-05 0.000000000000D+00 -.218463658214D-05 0.148269324075D-06 0.000000000000D+00  7 2 -2 24 -13 13 -24 21 2 0.31979270D-01 0.18399377D+00 0.44498510D+05 0.44498510D+05 0.44498510D+05 0.11517751D+01  1  2  5  2  7  2       -2 0.879790127984D-05 0.100000000000D+01
0.323205499955D-06 0.000000000000D+00 -.404990354454D-06 0.148269324075D-06 0.000000000000D+00  7 2 21 24 -13 13 -24 2 2 0.31979270D-01 0.18399377D+00 0.44498510D+05 0.44498510D+05 0.44498510D+05 0.11517751D+01  1  2  5  4  7  2       -2 0.130250028136D-04 0.100000000000D+01
  </mgrwgt>
  </event>
  <event>
  8     66 0.26993063E-05 0.25703911E+03 0.75467711E-02 0.96870943E-01
        2 -1    0    0  501    0 0.00000000E+00 0.00000000E+00 0.12091876E+04 0.12091877E+04 0.32000000E+00 0.0000E+00 0.9000E+01
       -2 -1    0    0    0  501 0.00000000E+00 0.00000000E+00 -.17191530E+03 0.17191559E+03 0.32000000E+00 0.0000E+00 0.9000E+01
       25  2    1    2    0    0 0.22365671E+03 0.22394185E+03 0.94182663E+03 0.10379177E+04 0.30010585E+03 0.0000E+00 0.0000E+00
       23  2    1    2    0    0 -.22365671E+03 -.22394185E+03 0.95445708E+02 0.34318555E+03 0.92163788E+02 0.0000E+00 0.0000E+00
       24  1    3    3    0    0 0.25283592E+03 0.22098797E+03 0.81250367E+03 0.88283131E+03 0.80419002E+02 0.0000E+00 0.9000E+01
      -13  1    4    4    0    0 -.76055969E+02 -.64716266E+02 0.75431381E+02 0.12515035E+03 0.10565837E+00 0.0000E+00 0.9000E+01
       13  1    4    4    0    0 -.14760074E+03 -.15922558E+03 0.20014327E+02 0.21803520E+03 0.10565837E+00 0.0000E+00 0.9000E+01
      -24  1    3    3    0    0 -.29179215E+02 0.29538810E+01 0.12932296E+03 0.15508641E+03 0.80419002E+02 0.0000E+00 0.9000E+01
#aMCatNLO 1  0  0  2  1 0.74840062D+02 0.00000000D+00  -5  7  0 0.00000000D+00 0.00000000D+00 0.00000000D+00 0.00000000D+00 0.00000000D+00
  <mgrwgt>
 0.7290243436D-03    9    2    0
 0.455936491934637D+03 0.000000000000000D+00 0.000000000000000D+00 0.455936491934637D+03
 0.455936491934637D+03 0.000000000000000D+00 0.000000000000000D+00 -.455936491934637D+03
 0.412879457684574D+03 0.252835924549341D+03 0.220987965429131D+03 0.226363744924646D+03
 0.103745180457839D+03 -.760558746883809D+02 -.647161419113836D+02 -.281138287986644D+02
 0.307465040470618D+03 -.147600835027694D+03 -.159225704533929D+03 -.217706039480764D+03
 0.877833052562427D+02 -.291792148332656D+02 0.295388101618074D+01 0.194561233547827D+02
 0.000000000000000D+00 -.000000000000000D+00 -.000000000000000D+00 -.000000000000000D+00
 0.475863061496058D+03 0.000000000000000D+00 0.000000000000000D+00 0.475863061496058D+03
 0.533597155011727D+03 0.000000000000000D+00 0.000000000000000D+00 -.533597155011727D+03
 0.437062018869363D+03 0.287399795263443D+03 0.225203918815844D+03 0.226363744924646D+03
 0.972547024951517D+02 -.678819778265585D+02 -.637191248688687D+02 -.281138287986644D+02
 0.294891667567903D+03 -.123105290387575D+03 -.156237842577173D+03 -.217706039480764D+03
 0.857306109713366D+02 -.221230671654243D+02 0.381455978400298D+01 0.194561233547827D+02
 0.945212166040301D+02 -.742894598838853D+02 -.906151115380542D+01 -.577340935156691D+02
0.192882873854D-04 0.000000000000D+00 0.000000000000D+00 0.321501380088D-05 0.000000000000D+00  7 2 -2 24 -13 13 -24 21 0 0.18602889D+00 0.26448533D-01 0.13982869D+06 0.13982869D+06 0.13982869D+06 0.11099665D+01  1  2  2  2  7  2       -2 0.574958197748D-03 0.100000000000D+01
-.102035584303D-05 0.000000000000D+00 -.740721022827D-07 0.321501380088D-05 0.000000000000D+00  7 2 -2 24 -13 13 -24 21 2 0.18602889D+00 0.26448533D-01 0.13982869D+06 0.13982869D+06 0.13982869D+06 0.11099665D+01  1  2  3  2  7  2       -2 -.374726116756D-04 0.100000000000D+01
0.122215954048D-05 0.000000000000D+00 0.000000000000D+00 0.321501380088D-05 0.000000000000D+00  7 2 -2 24 -13 13 -24 21 2 0.18602889D+00 0.26448533D-01 0.13982869D+06 0.13982869D+06 0.13982869D+06 0.11099665D+01  1  2 15  2  7  2       -2 0.448838610360D-04 0.100000000000D+01
0.346006706826D-04 0.000000000000D+00 0.000000000000D+00 0.321501380088D-05 0.000000000000D+00  7 2 -2 24 -13 13 -24 21 2 0.18602889D+00 0.31462063D-01 0.16983527D+06 0.16983527D+06 0.16983527D+06 0.11033205D+01  1  2 12  2  7  2       -2 0.921524369381D-03 0.100000000000D+01
-.352344062344D-04 0.000000000000D+00 0.000000000000D+00 0.321501380088D-05 0.000000000000D+00  7 2 -2 24 -13 13 -24 21 2 0.18602889D+00 0.26448533D-01 0.13982869D+06 0.13982869D+06 0.13982869D+06 0.11099665D+01  1  2  4  2  7  2       -2 -.129398506556D-02 0.100000000000D+01
-.617206961854D-04 0.000000000000D+00 -.137473549412D-04 0.321501380088D-05 0.000000000000D+00  7 2 -2 24 -13 13 -24 21 2 0.18602889D+00 0.32185724D-01 0.13982869D+06 0.13982869D+06 0.13982869D+06 0.11099665D+01  1  2  5  2  7  2       -2 -.160582344516D-02 0.100000000000D+01
0.634535870749D-04 0.000000000000D+00 0.134866155523D-04 0.321501380088D-05 0.000000000000D+00  7 2 -2 24 -13 13 -24 21 2 0.18602889D+00 0.26448533D-01 0.13982869D+06 0.13982869D+06 0.13982869D+06 0.11099665D+01  1  2  6  2  7  2       -2 0.233033568056D-02 0.100000000000D+01
0.886906333226D-06 0.000000000000D+00 0.000000000000D+00 0.321501380088D-05 0.000000000000D+00  7 2 21 24 -13 13 -24 2 2 0.18602889D+00 0.31462063D-01 0.16983527D+06 0.16983527D+06 0.16983527D+06 0.11033205D+01  1  2 12  4  7  2       -2 0.273833093160D-03 0.100000000000D+01
-.158790191614D-05 0.000000000000D+00 -.387835516391D-06 0.321501380088D-05 0.000000000000D+00  7 2 21 24 -13 13 -24 2 2 0.18602889D+00 0.32185724D-01 0.13982869D+06 0.13982869D+06 0.13982869D+06 0.11099665D+01  1  2  5  4  7  2       -2 -.479229735902D-03 0.100000000000D+01
  </mgrwgt>
  </event>
  <event>
  8     66 0.26993063E-05 0.23347636E+03 0.75467711E-02 0.97844999E-01
        2 -1    0    0  501    0 0.00000000E+00 0.00000000E+00 0.39302856E+03 0.39302869E+03 0.32000000E+00 0.0000E+00 0.9000E+01
       -2 -1    0    0    0  501 0.00000000E+00 0.00000000E+00 -.21484458E+03 0.21484482E+03 0.32000000E+00 0.0000E+00 0.9000E+01
       25  2    1    2    0    0 0.11271603E+03 0.10436558E+03 0.24139607E+03 0.41774541E+03 0.30437163E+03 0.0000E+00 0.0000E+00
       23  2    1    2    0    0 -.11271603E+03 -.10436558E+03 -.63212089E+02 0.19012811E+03 0.92497844E+02 0.0000E+00 0.0000E+00
       24  1    3    3    0    0 0.16681849E+03 0.70291949E+02 0.24485854E+03 0.31494807E+03 0.80419002E+02 0.0000E+00 0.9000E+01
      -11  1    4    4    0    0 -.10112098E+03 -.54374037E+02 -.85188590E+01 0.11512845E+03 0.51099893E-03 0.0000E+00 0.9000E+01
       11  1    4    4    0    0 -.11595050E+02 -.49991544E+02 -.54693230E+02 0.74999660E+02 0.51099893E-03 0.0000E+00 0.9000E+01
      -24  1    3    3    0    0 -.54102460E+02 0.34073632E+02 -.34624679E+01 0.10279734E+03 0.80419002E+02 0.0000E+00 0.9000E+01
#aMCatNLO 1  0  0  2  1 0.23771010D+03 0.00000000D+00  -5  7  0 0.00000000D+00 0.00000000D+00 0.00000000D+00 0.00000000D+00 0.00000000D+00
  <mgrwgt>
 0.5404197708D-03    3    2    0
 0.290585907686851D+03 0.000000000000000D+00 0.000000000000000D+00 0.290585907686851D+03
 0.290585907686851D+03 0.000000000000000D+00 0.000000000000000D+00 -.290585907686851D+03
 0.254345988741435D+03 0.166818488258500D+03 0.702919486266188D+02 0.159547171607363D+03
 0.123029808954468D+03 -.101120978206658D+03 -.543740372996908D+02 -.442079826008073D+02
 0.952141229925021D+02 -.115950504430678D+02 -.499915435675811D+02 -.802005585652910D+02
 0.108581894685295D+03 -.541024596087738D+02 0.340736322406531D+02 -.351386304412647D+02
 0.000000000000000D+00 -.000000000000000D+00 -.000000000000000D+00 0.000000000000000D+00
 0.438884744707587D+03 0.000000000000000D+00 0.000000000000000D+00 0.438884744707587D+03
 0.427027554746610D+03 0.000000000000000D+00 0.000000000000000D+00 -.427027554746610D+03
 0.348840978590353D+03 0.276061596583782D+03 0.116436709474325D+03 0.159547171607363D+03
 0.861685993831789D+02 -.632330833726585D+02 -.383700268596716D+02 -.442079826008073D+02
 0.905455206832714D+02 0.220478529610039D+02 -.357806358444064D+02 -.802005585652910D+02
 0.102351559478481D+03 -.159003308648942D+02 0.502103764415835D+02 -.351386304412647D+02
 0.238005641318913D+03 -.218976035307233D+03 -.924964232118303D+02 0.118571899609764D+02
0.649496884386D-05 0.000000000000D+00 0.000000000000D+00 0.823303634523D-08 0.000000000000D+00  7 2 -2 24 -11 11 -24 21 0 0.60465961D-01 0.33053041D-01 0.54511211D+05 0.54511211D+05 0.54511211D+05 0.11440101D+01  1  2  2  2  7  2       -2 0.532746110257D-03 0.100000000000D+01
-.339825095635D-06 0.000000000000D+00 -.249423905250D-07 0.823303634523D-08 0.000000000000D+00  7 2 -2 24 -11 11 -24 21 2 0.60465961D-01 0.33053041D-01 0.54511211D+05 0.54511211D+05 0.54511211D+05 0.11440101D+01  1  2  3  2  7  2       -2 -.364802959026D-04 0.100000000000D+01
0.411307587154D-06 0.000000000000D+00 0.000000000000D+00 0.823303634523D-08 0.000000000000D+00  7 2 -2 24 -11 11 -24 21 2 0.60465961D-01 0.33053041D-01 0.54511211D+05 0.54511211D+05 0.54511211D+05 0.11440101D+01  1  2 15  2  7  2       -2 0.441539564885D-04 0.100000000000D+01
  </mgrwgt>
  </event>
  <event>
  8     66 0.26993063E-05 0.14630568E+03 0.75467711E-02 0.10125955E+00
        2 -1    0    0  501    0 0.00000000E+00 0.00000000E+00 0.14782125E+04 0.14782125E+04 0.32000000E+00 0.0000E+00 0.9000E+01
       -2 -1    0    0    0  501 0.00000000E+00 0.00000000E+00 -.13001003E+03 0.13001043E+03 0.32000000E+00 0.0000E+00 0.9000E+01
       25  2    1    2    0    0 0.15758947E+02 0.20990664E+03 0.13284928E+04 0.13779492E+04 0.29923533E+03 0.0000E+00 0.0000E+00
       23  2    1    2    0    0 -.15758947E+02 -.20990664E+03 0.19709707E+02 0.23027379E+03 0.91260085E+02 0.0000E+00 0.0000E+00
       24  1    3    3    0    0 0.12903986E+03 0.94056683E+02 0.53440822E+03 0.56352224E+03 0.80419002E+02 0.0000E+00 0.9000E+01
      -11  1    4    4    0    0 -.74642662E+01 -.63427958E+02 -.36031086E+02 0.73328441E+02 0.51099893E-03 0.0000E+00 0.9000E+01
       11  1    4    4    0    0 -.82946805E+01 -.14647868E+03 0.55740793E+02 0.15694534E+03 0.51099893E-03 0.0000E+00 0.9000E+01
      -24  1    3    3    0    0 -.11328091E+03 0.11584995E+03 0.79408454E+03 0.81442695E+03 0.80419002E+02 0.0000E+00 0.9000E+01
#aMCatNLO 1  0  0  1  2 0.95052282D+01 0.00000000D+00  -5  7  0 0.00000000D+00 0.00000000D+00 0.00000000D+00 0.00000000D+00 0.00000000D+00
  <mgrwgt>
 0.1616412962D-02   11    2    0
 0.438386590227286D+03 0.000000000000000D+00 0.000000000000000D+00 0.438386590227286D+03
 0.438386590227286D+03 0.000000000000000D+00 0.000000000000000D+00 -.438386590227286D+03
 0.211889367193452D+03 0.129039858490783D+03 0.940566831409389D+02 0.113718702298586D+03
 0.189907362911146D+03 -.746426623560192D+01 -.634279580135650D+02 -.178846261799511D+03
 0.202165436621075D+03 -.829468048102260D+01 -.146478678865762D+03 -.139090109920326D+03
 0.272811013728899D+03 -.113280911774159D+03 0.115849953738388D+03 0.204217669421251D+03
 0.000000000000000D+00 0.000000000000000D+00 -.000000000000000D+00 0.000000000000000D+00
 0.444855113827100D+03 0.000000000000000D+00 0.000000000000000D+00 0.444855113827100D+03
 0.441918198567597D+03 0.000000000000000D+00 0.000000000000000D+00 -.441918198567597D+03
 0.211831709909534D+03 0.127612951237586D+03 0.958563967233558D+02 0.113718702298586D+03
 0.189429972929306D+03 -.874170846155924D+01 -.618167600049656D+02 -.178846261799511D+03
 0.200988839816383D+03 -.965232774544344D+01 -.144766320745475D+03 -.139090109920326D+03
 0.274574180080354D+03 -.115124265682064D+03 0.118174918488426D+03 0.204217669421251D+03
 0.994860965912073D+01 0.590535065148098D+01 -.744823446134072D+01 0.293691525950272D+01
0.148999405494D-04 0.000000000000D+00 0.000000000000D+00 0.155568244789D-05 0.000000000000D+00  7 2 -2 24 -11 11 -24 21 0 0.22741734D+00 0.20001577D-01 0.81298112D+05 0.81298112D+05 0.81298112D+05 0.11291765D+01  1  2  2  1  7  1        2 0.511706190301D-03 0.100000000000D+01
-.641540957398D-06 0.000000000000D+00 -.572196949543D-07 0.155568244789D-05 0.000000000000D+00  7 2 -2 24 -11 11 -24 21 2 0.22741734D+00 0.20001577D-01 0.81298112D+05 0.81298112D+05 0.81298112D+05 0.11291765D+01  1  2  3  1  7  1        2 -.280921000223D-04 0.100000000000D+01
0.917237504694D-06 0.000000000000D+00 0.000000000000D+00 0.155568244789D-05 0.000000000000D+00  7 2 -2 24 -11 11 -24 21 2 0.22741734D+00 0.20001577D-01 0.81298112D+05 0.81298112D+05 0.81298112D+05 0.11291765D+01  1  2 15  1  7  1        2 0.401644313257D-04 0.100000000000D+01
0.114421501812D-04 0.000000000000D+00 0.000000000000D+00 0.155568244789D-05 0.000000000000D+00  7 2 -2 24 -11 11 -24 21 2 0.23167850D+00 0.20001577D-01 0.83891987D+05 0.83891987D+05 0.83891987D+05 0.11280359D+01  1  2 12  1  7  1        2 0.482806495521D-03 0.100000000000D+01
-.104211179342D-04 0.000000000000D+00 0.000000000000D+00 0.155568244789D-05 0.000000000000D+00  7 2 -2 24 -11 11 -24 21 2 0.22741734D+00 0.20001577D-01 0.81298112D+05 0.81298112D+05 0.81298112D+05 0.11291765D+01  1  2  4  1  7  1        2 -.456324859659D-03 0.100000000000D+01
-.675791518361D-03 0.000000000000D+00 -.869379575930D-04 0.155568244789D-05 0.000000000000D+00  7 2 -2 24 -11 11 -24 21 2 0.23180715D+00 0.20001577D-01 0.81298112D+05 0.81298112D+05 0.81298112D+05 0.11291765D+01  1  2  5  1  7  1        2 -.285649903622D-01 0.100000000000D+01
0.677345765548D-03 0.000000000000D+00 0.869220706550D-04 0.155568244789D-05 0.000000000000D+00  7 2 -2 24 -11 11 -24 21 2 0.22741734D+00 0.20001577D-01 0.81298112D+05 0.81298112D+05 0.81298112D+05 0.11291765D+01  1  2  6  1  7  1        2 0.296599379603D-01 0.100000000000D+01
0.123251692009D-08 0.000000000000D+00 0.000000000000D+00 0.155568244789D-05 0.116865172009D-06  7 2 -2 24 -11 11 -24 21 2 0.23077295D+00 0.20162708D-01 0.83891987D+05 0.83891987D+05 0.83891987D+05 0.11280359D+01  1  2 11  1  7  1        2 0.516974476981D-07 0.100000000000D+01
0.502817263062D-06 0.000000000000D+00 0.000000000000D+00 0.155568244789D-05 0.000000000000D+00  7 21 -2 24 -11 11 -24 -2 2 0.23167850D+00 0.20001577D-01 0.83891987D+05 0.83891987D+05 0.83891987D+05 0.11280359D+01  1  2 12  3  7  1        2 0.785861256245D-05 0.100000000000D+01
-.234293591432D-05 0.000000000000D+00 -.302906313487D-06 0.155568244789D-05 0.000000000000D+00  7 21 -2 24 -11 11 -24 -2 2 0.23180715D+00 0.20001577D-01 0.81298112D+05 0.81298112D+05 0.81298112D+05 0.11291765D+01  1  2  5  3  7  1        2 -.367051769787D-04 0.100000000000D+01
0.466887451664D-11 0.000000000000D+00 0.000000000000D+00 0.155568244789D-05 0.314992946982D-09  7 21 -2 24 -11 11 -24 -2 2 0.23077295D+00 0.20162708D-01 0.83891987D+05 0.83891987D+05 0.83891987D+05 0.11280359D+01  1  2 11  3  7  1        2 0.730547137301D-10 0.100000000000D+01
  </mgrwgt>
  </event>
  <event>
  8     66 0.26993063E-05 0.15376052E+03 0.75467711E-02 0.90113555E-01
        2 -1    0    0  501    0 0.00000000E+00 0.00000000E+00 0.91326278E+03 0.91326284E+03 0.32000000E+00 0.0000E+00 0.9000E+01
       -2 -1    0    0    0  501 0.00000000E+00 0.00000000E+00 -.42726572E+03 0.42726584E+03 0.32000000E+00 0.0000E+00 0.9000E+01
       25  2    1    2    0    0 -.49684120E+03 -.12645189E+03 -.46781948E+02 0.59553313E+03 0.29938254E+03 0.0000E+00 0.0000E+00
       23  2    1    2    0    0 0.49684120E+03 0.12645189E+03 0.53277901E+03 0.74499555E+03 0.91234002E+02 0.0000E+00 0.0000E+00
       24  1    3    3    0    0 -.38709181E+03 -.74532486E+02 0.70622655E+02 0.40847269E+03 0.80419002E+02 0.0000E+00 0.9000E+01
      -11  1    4    4    0    0 0.35838041E+03 0.13034076E+03 0.37133284E+03 0.53227184E+03 0.51099893E-03 0.0000E+00 0.9000E+01
       11  1    4    4    0    0 0.13846079E+03 -.38888660E+01 0.16144617E+03 0.21272371E+03 0.51099893E-03 0.0000E+00 0.9000E+01
      -24  1    3    3    0    0 -.10974938E+03 -.51919406E+02 -.11740460E+03 0.18706044E+03 0.80419002E+02 0.0000E+00 0.9000E+01
#aMCatNLO 1  0  0  2  1 0.38123382D+03 0.00000000D+00  -5  7  0 0.00000000D+00 0.00000000D+00 0.00000000D+00 0.00000000D+00 0.00000000D+00
  <mgrwgt>
 0.6924850237D-03    9    2    0
 0.624664711253577D+03 0.000000000000000D+00 0.000000000000000D+00 0.624664711253577D+03
 0.624664711253577D+03 0.000000000000000D+00 0.000000000000000D+00 -.624664711253577D+03
 0.410817953225712D+03 -.387091814616888D+03 -.745324855043596D+02 -.831204571651286D+02
 0.426676090954036D+03 0.358380407086076D+03 0.130340757434400D+03 0.191382489690312D+03
 0.165448659056647D+03 0.138460789222297D+03 -.388886603487736D+01 0.904806352350818D+02
 0.246386719270759D+03 -.109749381691485D+03 -.519194058951626D+02 -.198742667760265D+03
 0.000000000000000D+00 0.000000000000000D+00 0.000000000000000D+00 -.000000000000000D+00
 0.792469534444796D+03 0.000000000000000D+00 0.000000000000000D+00 0.792469534444796D+03
 0.913811014002269D+03 0.000000000000000D+00 0.000000000000000D+00 -.913811014002269D+03
 0.479161714991680D+03 -.418029390646204D+03 -.203644669255105D+03 -.831204571651286D+02
 0.381937469725604D+03 0.330271289085696D+03 0.130326139361010D+02 0.191382489690312D+03
 0.164288805863838D+03 0.126998417378315D+03 -.517249298020322D+02 0.904806352350818D+02
 0.280813842800431D+03 -.128075988527847D+03 -.128402069796879D+03 -.198742667760265D+03
 0.400078715065512D+03 0.888356727100403D+02 0.370739054917915D+03 -.121341479557474D+03
0.821896281844D-04 0.000000000000D+00 0.000000000000D+00 0.204431258470D-05 0.000000000000D+00  7 2 -2 24 -11 11 -24 21 0 0.14050198D+00 0.65733202D-01 0.28505567D+06 0.28505567D+06 0.28505567D+06 0.10861975D+01  1  2  2  2  7  2       -2 0.640645167343D-03 0.100000000000D+01
-.442925503678D-05 0.000000000000D+00 -.315629813254D-06 0.204431258470D-05 0.000000000000D+00  7 2 -2 24 -11 11 -24 21 2 0.14050198D+00 0.65733202D-01 0.28505567D+06 0.28505567D+06 0.28505567D+06 0.10861975D+01  1  2  3  2  7  2       -2 -.407332293608D-04 0.100000000000D+01
0.522169569115D-05 0.000000000000D+00 0.000000000000D+00 0.204431258470D-05 0.000000000000D+00  7 2 -2 24 -11 11 -24 21 2 0.14050198D+00 0.65733202D-01 0.28505567D+06 0.28505567D+06 0.28505567D+06 0.10861975D+01  1  2 15  2  7  2       -2 0.480208356650D-04 0.100000000000D+01
0.622065066623D-05 0.000000000000D+00 0.000000000000D+00 0.204431258470D-05 0.000000000000D+00  7 2 -2 24 -11 11 -24 21 2 0.14050198D+00 0.10167648D+00 0.57697328D+06 0.57697328D+06 0.57697328D+06 0.10641430D+01  1  2 12  2  7  2       -2 0.197984994426D-04 0.100000000000D+01
-.321838272270D-04 0.000000000000D+00 0.000000000000D+00 0.204431258470D-05 0.000000000000D+00  7 2 -2 24 -11 11 -24 21 2 0.14050198D+00 0.65733202D-01 0.28505567D+06 0.28505567D+06 0.28505567D+06 0.10861975D+01  1  2  4  2  7  2       -2 -.295975554638D-03 0.100000000000D+01
-.328093976103D-04 0.000000000000D+00 -.263384957430D-04 0.204431258470D-05 0.000000000000D+00  7 2 -2 24 -11 11 -24 21 2 0.14050198D+00 0.11659489D+00 0.28505567D+06 0.28505567D+06 0.28505567D+06 0.10861975D+01  1  2  5  2  7  2       -2 -.798559056455D-04 0.100000000000D+01
0.442408438136D-04 0.000000000000D+00 0.225352860395D-04 0.204431258470D-05 0.000000000000D+00  7 2 -2 24 -11 11 -24 21 2 0.14050198D+00 0.65733202D-01 0.28505567D+06 0.28505567D+06 0.28505567D+06 0.10861975D+01  1  2  6  2  7  2       -2 0.406856779122D-03 0.100000000000D+01
0.315746532753D-06 0.000000000000D+00 0.000000000000D+00 0.204431258470D-05 0.000000000000D+00  7 2 21 24 -11 11 -24 2 2 0.14050198D+00 0.10167648D+00 0.57697328D+06 0.57697328D+06 0.57697328D+06 0.10641430D+01  1  2 12  4  7  2       -2 0.904207064098D-05 0.100000000000D+01
-.701229497030D-06 0.000000000000D+00 -.166130294746D-05 0.204431258470D-05 0.000000000000D+00  7 2 21 24 -11 11 -24 2 2 0.14050198D+00 0.11659489D+00 0.28505567D+06 0.28505567D+06 0.28505567D+06 0.10861975D+01  1  2  5  4  7  2       -2 -.153136388313D-04 0.100000000000D+01
  </mgrwgt>
  </event>
  <event>
  8     66 0.26993063E-05 0.32497679E+03 0.75467711E-02 0.93936022E-01
        2 -1    0    0  501    0 0.00000000E+00 0.00000000E+00 0.18452933E+04 0.18452934E+04 0.32000000E+00 0.0000E+00 0.9000E+01
       -2 -1    0    0    0  501 0.00000000E+00 0.00000000E+00 -.80336043E+02 0.80336681E+02 0.32000000E+00 0.0000E+00 0.9000E+01
       25  2    1    2    0    0 -.67510380E+02 -.23850428E+03 0.49829889E+03 0.63183782E+03 0.29912423E+03 0.0000E+00 0.0000E+00
       23  2    1    2    0    0 0.67510380E+02 0.23850428E+03 0.12666584E+04 0.12937922E+04 0.89626259E+02 0.0000E+00 0.0000E+00
       24  1    3    3    0    0 -.15705577E+03 -.95976156E+02 0.23486190E+03 0.30903926E+03 0.80419002E+02 0.0000E+00 0.9000E+01
      -11  1    4    4    0    0 0.80128562E+02 0.12589844E+03 0.66256022E+03 0.67915908E+03 0.51099893E-03 0.0000E+00 0.9000E+01
       11  1    4    4    0    0 -.12618182E+02 0.11260584E+03 0.60409817E+03 0.61463313E+03 0.51099893E-03 0.0000E+00 0.9000E+01
      -24  1    3    3    0    0 0.89545393E+02 -.14252813E+03 0.26343700E+03 0.32279856E+03 0.80419002E+02 0.0000E+00 0.9000E+01
#aMCatNLO 1  0  0  1  1 0.35419903D+03 0.00000000D+00  -5  7  0 0.00000000D+00 0.00000000D+00 0.00000000D+00 0.00000000D+00 0.00000000D+00
  <mgrwgt>
 0.5290275353D-03    5    2    0
 0.385024940397302D+03 0.000000000000000D+00 0.000000000000000D+00 0.385024940397302D+03
 0.385024940397302D+03 0.000000000000000D+00 0.000000000000000D+00 -.385024940397302D+03
 0.234496585419944D+03 -.157055773502603D+03 -.959761557930609D+02 -.121010305957500D+03
 0.179752808287542D+03 0.801285620795751D+02 0.125898443749197D+03 0.100200137164815D+03
 0.152390858445249D+03 -.126181820563170D+02 0.112605838813165D+03 0.101900344869176D+03
 0.203409628641870D+03 0.895453934793450D+02 -.142528126769301D+03 -.810901760764913D+02
 0.000000000000000D+00 -.000000000000000D+00 0.000000000000000D+00 0.000000000000000D+00
 0.892772991981659D+03 0.000000000000000D+00 0.000000000000000D+00 0.892772991981659D+03
 0.490681260535622D+03 0.000000000000000D+00 0.000000000000000D+00 -.490681260535622D+03
 0.292077868161121D+03 -.141453382565991D+03 -.210213490356557D+03 -.121010305957500D+03
 0.145467272468877D+03 0.897648268202785D+02 0.553437958366798D+02 0.100200137164815D+03
 0.115634595345617D+03 -.467659301307970D+01 0.544592401166019D+02 0.101900344869176D+03
 0.294424990727614D+03 0.104296223680770D+03 -.250530517662818D+03 -.810901760764913D+02
 0.535849525814051D+03 -.479310749219779D+02 0.350940972066094D+03 0.402091731446038D+03
0.111779073395D-04 0.000000000000D+00 0.000000000000D+00 0.160250210314D-06 0.000000000000D+00  7 2 -2 24 -11 11 -24 21 0 0.28389133D+00 0.12359442D-01 0.10560991D+06 0.10560991D+06 0.10560991D+06 0.11197820D+01  1  2  2  1  7  1        2 0.526474093841D-03 0.100000000000D+01
-.599288472296D-06 0.000000000000D+00 -.429261073942D-07 0.160250210314D-06 0.000000000000D+00  7 2 -2 24 -11 11 -24 21 2 0.28389133D+00 0.12359442D-01 0.10560991D+06 0.10560991D+06 0.10560991D+06 0.11197820D+01  1  2  3  1  7  1        2 -.353931625405D-04 0.100000000000D+01
0.707349876752D-06 0.000000000000D+00 0.000000000000D+00 0.160250210314D-06 0.000000000000D+00  7 2 -2 24 -11 11 -24 21 2 0.28389133D+00 0.12359442D-01 0.10560991D+06 0.10560991D+06 0.10560991D+06 0.11197820D+01  1  2 15  1  7  1        2 0.417751221962D-04 0.100000000000D+01
-.360101271378D-05 0.000000000000D+00 -.276338591025D-05 0.160250210314D-06 0.000000000000D+00  7 2 -2 24 -11 11 -24 21 2 0.68232367D+00 0.12359442D-01 0.10560991D+06 0.10560991D+06 0.10560991D+06 0.11197820D+01  1  2  5  1  7  1        2 -.382622831092D-05 0.100000000000D+01
-.171992786653D-06 0.000000000000D+00 -.265177815525D-06 0.160250210314D-06 0.000000000000D+00  7 21 -2 24 -11 11 -24 -2 2 0.68232367D+00 0.12359442D-01 0.10560991D+06 0.10560991D+06 0.10560991D+06 0.11197820D+01  1  2  5  3  7  1        2 -.228990566766D-08 0.100000000000D+01
  </mgrwgt>
  </event>
  <event>
  8     66 0.26993063E-05 0.24384204E+03 0.75467711E-02 0.10268147E+00
        2 -1    0    0  501    0 0.00000000E+00 0.00000000E+00 0.22220150E+04 0.22220150E+04 0.32000000E+00 0.0000E+00 0.9000E+01
       -2 -1    0    0    0  501 0.00000000E+00 0.00000000E+00 -.30235502E+02 0.30237195E+02 0.32000000E+00 0.0000E+00 0.9000E+01
       25  2    1    2    0    0 -.12655136E+03 -.91109097E+02 0.13943763E+04 0.14350561E+04 0.30130526E+03 0.0000E+00 0.0000E+00
       23  2    1    2    0    0 0.12655136E+03 0.91109097E+02 0.79740323E+03 0.81719607E+03 0.87415033E+02 0.0000E+00 0.0000E+00
       24  1    3    3    0    0 0.66129906E+02 -.55818683E+02 0.67116037E+03 0.68147806E+03 0.80419002E+02 0.0000E+00 0.9000E+01
      -11  1    4    4    0    0 0.24916538E+02 0.30795111E+02 0.41649858E+03 0.41837810E+03 0.51099893E-03 0.0000E+00 0.9000E+01
       11  1    4    4    0    0 0.10163482E+03 0.60313986E+02 0.38090465E+03 0.39881796E+03 0.51099893E-03 0.0000E+00 0.9000E+01
      -24  1    3    3    0    0 -.19268127E+03 -.35290413E+02 0.72321590E+03 0.75357809E+03 0.80419002E+02 0.0000E+00 0.9000E+01
#aMCatNLO 1  0  0  2  2 0.31026958D+02 0.00000000D+00  -5  7  0 0.00000000D+00 0.00000000D+00 0.00000000D+00 0.00000000D+00 0.00000000D+00
  <mgrwgt>
 0.7433232820D-03    4    2    0
 0.259201989922030D+03 0.000000000000000D+00 0.000000000000000D+00 0.259201989922030D+03
 0.259201989922030D+03 0.000000000000000D+00 0.000000000000000D+00 -.259201989922030D+03
 0.123118145110690D+03 0.661299060324796D+02 -.558186834907672D+02 0.346694649889418D+02
 0.567510482157578D+02 0.249165377669249D+02 0.307951107725576D+02 0.406387594766693D+02
 0.122259163758850D+03 0.101634824640782D+03 0.603139860338607D+02 -.313031728736549D+02
 0.216275622758761D+03 -.192681268440187D+03 -.352904133156511D+02 -.440050515919562D+02
 0.000000000000000D+00 0.000000000000000D+00 -.000000000000000D+00 0.000000000000000D+00
 0.293948700720598D+03 0.000000000000000D+00 0.000000000000000D+00 0.293948700720598D+03
 0.266685887829919D+03 0.000000000000000D+00 0.000000000000000D+00 -.266685887829919D+03
 0.118985151556749D+03 0.640103507271273D+02 -.488973775757226D+02 0.346694649889418D+02
 0.581782666153975D+02 0.239103596506248D+02 0.340807370217762D+02 0.406387594766693D+02
 0.124148400199706D+03 0.994775865252487D+02 0.673583433532934D+02 -.313031728736549D+02
 0.218019827519082D+03 -.196483419168399D+03 -.228746729673732D+02 -.440050515919562D+02
 0.413029426595813D+02 0.908512226539848D+01 -.296670298319739D+02 0.272628128906794D+02
0.771905520845D-05 0.000000000000D+00 0.000000000000D+00 0.125435454839D-07 0.000000000000D+00  7 2 -2 24 -11 11 -24 21 0 0.34184859D+00 0.46517477D-02 0.59458938D+05 0.59458938D+05 0.59458938D+05 0.11407349D+01  1  2  2  2  7  2       -2 0.101314437327D-02 0.100000000000D+01
-.426890722119D-06 0.000000000000D+00 -.296432044744D-07 0.125435454839D-07 0.000000000000D+00  7 2 -2 24 -11 11 -24 21 2 0.34184859D+00 0.46517477D-02 0.59458938D+05 0.59458938D+05 0.59458938D+05 0.11407349D+01  1  2  3  2  7  2       -2 -.729110544209D-04 0.100000000000D+01
0.503863365906D-06 0.000000000000D+00 0.000000000000D+00 0.125435454839D-07 0.000000000000D+00  7 2 -2 24 -11 11 -24 21 2 0.34184859D+00 0.46517477D-02 0.59458938D+05 0.59458938D+05 0.59458938D+05 0.11407349D+01  1  2 15  2  7  2       -2 0.860576428317D-04 0.100000000000D+01
-.165676217545D-05 0.000000000000D+00 0.000000000000D+00 0.125435454839D-07 0.000000000000D+00  7 2 -2 24 -11 11 -24 21 2 0.34184859D+00 0.46517477D-02 0.59458938D+05 0.59458938D+05 0.59458938D+05 0.11407349D+01  1  2  4  2  7  2       -2 -.282967679731D-03 0.100000000000D+01
  </mgrwgt>
  </event>
  <event>
  8     66 0.26993063E-05 0.12152354E+04 0.75467711E-02 0.84143186E-01
        2 -1    0    0  501    0 0.00000000E+00 0.00000000E+00 0.12734948E+04 0.12734948E+04 0.32000000E+00 0.0000E+00 0.9000E+01
       -2 -1    0    0    0  501 0.00000000E+00 0.00000000E+00 -.17220421E+04 0.17220421E+04 0.32000000E+00 0.0000E+00 0.9000E+01
       25  2    1    2    0    0 0.61613934E+03 -.10371801E+04 -.10659569E+04 0.16373580E+04 0.29884255E+03 0.0000E+00 0.0000E+00
       23  2    1    2    0    0 -.61613934E+03 0.10371801E+04 0.61740959E+03 0.13581789E+04 0.89917949E+02 0.0000E+00 0.0000E+00
       24  1    3    3    0    0 0.40651661E+03 -.56448483E+03 -.46549804E+03 0.84086534E+03 0.80419002E+02 0.0000E+00 0.9000E+01
      -11  1    4    4    0    0 -.19305994E+03 0.29361277E+03 0.13815971E+03 0.37758271E+03 0.51099893E-03 0.0000E+00 0.9000E+01
       11  1    4    4    0    0 -.42307940E+03 0.74356732E+03 0.47924987E+03 0.98059624E+03 0.51099893E-03 0.0000E+00 0.9000E+01
      -24  1    3    3    0    0 0.20962273E+03 -.47269526E+03 -.60045884E+03 0.79649265E+03 0.80419002E+02 0.0000E+00 0.9000E+01
#aMCatNLO 1  0  0  1  2 0.37675360D+03 0.00000000D+00  -5  7  0 0.00000000D+00 0.00000000D+00 0.00000000D+00 0.00000000D+00 0.00000000D+00
  <mgrwgt>
 0.7290317493D-03    4    2    0
 0.148088207330261D+04 0.000000000000000D+00 0.000000000000000D+00 0.148088207330261D+04
 0.148088207330261D+04 0.000000000000000D+00 0.000000000000000D+00 -.148088207330261D+04
 0.779955855694299D+03 0.406516611656567D+03 -.564484825340538D+03 -.343460401334682D+03
 0.402811995054203D+03 -.193059941282013D+03 0.293612767204038D+03 0.196918524691102D+03
 0.106435838003885D+04 -.423079402529978D+03 0.743567320459979D+03 0.633222093943160D+03
 0.714637915817867D+03 0.209622732155423D+03 -.472695262323479D+03 -.486680217299580D+03
 0.000000000000000D+00 -.000000000000000D+00 -.000000000000000D+00 -.000000000000000D+00
 0.156418316122708D+04 0.000000000000000D+00 0.000000000000000D+00 0.156418316122708D+04
 0.199003939731882D+04 0.000000000000000D+00 0.000000000000000D+00 -.199003939731882D+04
 0.775491633696571D+03 0.478887392417355D+03 -.497616193544515D+03 -.343460401334682D+03
 0.413366948602447D+03 -.155085334105734D+03 0.328700270726524D+03 0.196918524691102D+03
 0.109759652318798D+04 -.322489465946897D+03 0.836509684229583D+03 0.633222093943160D+03
 0.699175503230037D+03 0.275403661234967D+03 -.411915474132998D+03 -.486680217299580D+03
 0.568591949828860D+03 -.276716253599691D+03 -.255678287278594D+03 -.425856236091737D+03
0.893058369368D-02 0.000000000000D+00 0.000000000000D+00 0.570219259544D-05 0.000000000000D+00  7 2 -2 24 -11 11 -24 21 0 0.19592228D+00 0.26492956D+00 0.14767972D+07 0.14767972D+07 0.14767972D+07 0.10367754D+01  1  2  2  1  7  1        2 0.814748866613D-03 0.100000000000D+01
-.472565781030D-03 0.000000000000D+00 -.342957928604D-04 0.570219259544D-05 0.000000000000D+00  7 2 -2 24 -11 11 -24 21 2 0.19592228D+00 0.26492956D+00 0.14767972D+07 0.14767972D+07 0.14767972D+07 0.10367754D+01  1  2  3  1  7  1        2 -.463420852990D-04 0.100000000000D+01
0.564886133183D-03 0.000000000000D+00 0.000000000000D+00 0.570219259544D-05 0.000000000000D+00  7 2 -2 24 -11 11 -24 21 2 0.19592228D+00 0.26492956D+00 0.14767972D+07 0.14767972D+07 0.14767972D+07 0.10367754D+01  1  2 15  1  7  1        2 0.553954653913D-04 0.100000000000D+01
-.966406535777D-03 0.000000000000D+00 0.000000000000D+00 0.570219259544D-05 0.000000000000D+00  7 2 -2 24 -11 11 -24 21 2 0.19592228D+00 0.26492956D+00 0.14767972D+07 0.14767972D+07 0.14767972D+07 0.10367754D+01  1  2  4  1  7  1        2 -.947704973832D-04 0.100000000000D+01
  </mgrwgt>
  </event>
  <event>
  8     66 0.26993063E-05 0.61652824E+03 0.75467711E-02 0.87792047E-01
        2 -1    0    0  501    0 0.00000000E+00 0.00000000E+00 0.21138025E+04 0.21138025E+04 0.32000000E+00 0.0000E+00 0.9000E+01
       -2 -1    0    0    0  501 0.00000000E+00 0.00000000E+00 -.30219007E+03 0.30219024E+03 0.32000000E+00 0.0000E+00 0.9000E+01
       25  2    1    2    0    0 0.43454591E+03 0.38577714E+03 0.17382405E+03 0.67673543E+03 0.30016978E+03 0.0000E+00 0.0000E+00
       23  2    1    2    0    0 -.43454591E+03 -.38577714E+03 0.16377883E+04 0.17392573E+04 0.70789473E+02 0.0000E+00 0.0000E+00
       24  1    3    3    0    0 0.35424130E+02 0.16204627E+03 0.11763362E+02 0.18471452E+03 0.80419002E+02 0.0000E+00 0.9000E+01
      -11  1    4    4    0    0 -.13260417E+03 -.82373642E+02 0.48905657E+03 0.51336694E+03 0.51099893E-03 0.0000E+00 0.9000E+01
       11  1    4    4    0    0 -.30194174E+03 -.30340350E+03 0.11487318E+04 0.12258904E+04 0.51099893E-03 0.0000E+00 0.9000E+01
      -24  1    3    3    0    0 0.39912178E+03 0.22373087E+03 0.16206068E+03 0.49202091E+03 0.80419002E+02 0.0000E+00 0.9000E+01
#aMCatNLO 1  0  0  2  2 0.56090276D+03 0.00000000D+00  -5  7  0 0.00000000D+00 0.00000000D+00 0.00000000D+00 0.00000000D+00 0.00000000D+00
  <mgrwgt>
 0.8201277518D-02    3    2    0
 0.799231101795978D+03 0.000000000000000D+00 0.000000000000000D+00 0.799231101795978D+03
 0.799231101795978D+03 0.000000000000000D+00 0.000000000000000D+00 -.799231101795978D+03
 0.265854447342564D+03 0.354241302397681D+02 0.162046267063558D+03 -.191565940461690D+03
 0.221656692487843D+03 -.132604168926384D+03 -.823736423004527D+02 0.157360753563746D+03
 0.550957968254624D+03 -.301941736970172D+03 -.303403498551002D+03 0.346889301255763D+03
 0.559993095506925D+03 0.399121775656788D+03 0.223730873787897D+03 -.312684114357819D+03
 0.000000000000000D+00 0.000000000000000D+00 -.000000000000000D+00 0.000000000000000D+00
 0.120245379941501D+04 0.000000000000000D+00 0.000000000000000D+00 0.120245379941501D+04
 0.106828854519630D+04 0.000000000000000D+00 0.000000000000000D+00 -.106828854519630D+04
 0.285910262070931D+03 -.547341871414369D+02 0.188637539254763D+03 -.191565940461690D+03
 0.271360429703425D+03 -.213163134403058D+03 -.586136006242674D+02 0.157360753563746D+03
 0.655399606374760D+03 -.499060485656125D+03 -.245265342776250D+03 0.346889301255763D+03
 0.481346619873403D+03 0.228966934364546D+03 0.273916301276771D+03 -.312684114357819D+03
 0.576725426588797D+03 0.537990872836074D+03 -.158674897131018D+03 0.134165254218706D+03
0.248785006959D-02 0.000000000000D+00 0.000000000000D+00 0.369335119432D-07 0.000000000000D+00  7 2 -2 24 -11 11 -24 21 0 0.32520039D+00 0.46490796D-01 0.38010707D+06 0.38010707D+06 0.38010707D+06 0.10770283D+01  1  2  2  2  7  2       -2 0.808950654905D-02 0.100000000000D+01
-.126893488164D-03 0.000000000000D+00 -.955399933318D-05 0.369335119432D-07 0.000000000000D+00  7 2 -2 24 -11 11 -24 21 2 0.32520039D+00 0.46490796D-01 0.38010707D+06 0.38010707D+06 0.38010707D+06 0.10770283D+01  1  2  3  2  7  2       -2 -.478620639030D-03 0.100000000000D+01
0.156526577362D-03 0.000000000000D+00 0.000000000000D+00 0.369335119432D-07 0.000000000000D+00  7 2 -2 24 -11 11 -24 21 2 0.32520039D+00 0.46490796D-01 0.38010707D+06 0.38010707D+06 0.38010707D+06 0.10770283D+01  1  2 15  2  7  2       -2 0.590391607686D-03 0.100000000000D+01
  </mgrwgt>
  </event>
  <event>
  8     66 0.26993063E-05 0.17007874E+03 0.75467711E-02 0.10105913E+00
        4 -1    0    0  501    0 0.00000000E+00 0.00000000E+00 0.72766892E+03 0.72767057E+03 0.15500000E+01 0.0000E+00 0.9000E+01
       -4 -1    0    0    0  501 0.00000000E+00 0.00000000E+00 -.28777645E+03 0.28778063E+03 0.15500000E+01 0.0000E+00 0.9000E+01
       25  2    1    2    0    0 -.20555135E+03 0.30533428E+02 -.14174372E+03 0.39095441E+03 0.29928318E+03 0.0000E+00 0.0000E+00
       23  2    1    2    0    0 0.20555135E+03 -.30533428E+02 0.58163618E+03 0.62449678E+03 0.92260142E+02 0.0000E+00 0.0000E+00
       24  1    3    3    0    0 -.30506179E+02 -.14879865E+02 0.61878259E+02 0.10699613E+03 0.80419002E+02 0.0000E+00 0.9000E+01
      -11  1    4    4    0    0 0.16455857E+03 0.13363472E+02 0.38539198E+03 0.41926732E+03 0.51099893E-03 0.0000E+00 0.9000E+01
       11  1    4    4    0    0 0.40992780E+02 -.43896900E+02 0.19624421E+03 0.20522947E+03 0.51099893E-03 0.0000E+00 0.9000E+01
      -24  1    3    3    0    0 -.17504517E+03 0.45413293E+02 -.20362198E+03 0.28395828E+03 0.80419002E+02 0.0000E+00 0.9000E+01
#aMCatNLO 1  0  0  2  1 0.75374303D+02 0.00000000D+00  -5  7  0 0.00000000D+00 0.00000000D+00 0.00000000D+00 0.00000000D+00 0.00000000D+00
  <mgrwgt>
 0.1723766236D-04    9    2    0
 0.457612213431518D+03 0.000000000000000D+00 0.000000000000000D+00 0.457612213431518D+03
 0.457612213431518D+03 0.000000000000000D+00 0.000000000000000D+00 -.457612213431518D+03
 0.889722431323583D+02 -.305061790084449D+02 -.148798652236702D+02 0.172280801850664D+02
 0.279947150834453D+03 0.164558570300453D+03 0.133634720298864D+02 0.226080299487384D+03
 0.133381667913408D+03 0.409927795432696D+02 -.438969002872273D+02 0.119093759306913D+03
 0.412923364982816D+03 -.175045170835277D+03 0.454132934810110D+02 -.362402138979363D+03
 0.000000000000000D+00 -.000000000000000D+00 0.000000000000000D+00 -.000000000000000D+00
 0.482551456224016D+03 0.000000000000000D+00 0.000000000000000D+00 0.482551456224016D+03
 0.519884966676874D+03 0.000000000000000D+00 0.000000000000000D+00 -.519884966676874D+03
 0.890259133084054D+02 -.267285307166482D+02 -.211465407310814D+02 0.172280801850664D+02
 0.286949032904729D+03 0.176589787044212D+03 -.659490563491532D+01 0.226080299487384D+03
 0.138672294076587D+03 0.467665707180678D+02 -.534749427478202D+02 0.119093759306913D+03
 0.403675707890106D+03 -.157714518909409D+03 0.166637743192748D+02 -.362402138979363D+03
 0.841134747210627D+02 -.389133081362227D+02 0.645526147945421D+02 -.373335104528584D+02
0.256775476128D-04 0.000000000000D+00 0.000000000000D+00 0.861440647028D-06 0.000000000000D+00  7 4 -4 24 -11 11 -24 21 0 0.11194951D+00 0.44273749D-01 0.65118090D+05 0.65118090D+05 0.65118090D+05 0.11373383D+01  1  2  2  2  7  2       -4 0.155133472309D-04 0.100000000000D+01
-.834897103970D-06 0.000000000000D+00 -.986085438868D-07 0.861440647028D-06 0.000000000000D+00  7 4 -4 24 -11 11 -24 21 2 0.11194951D+00 0.44273749D-01 0.65118090D+05 0.65118090D+05 0.65118090D+05 0.11373383D+01  1  2  3  2  7  2       -4 -.652475601286D-06 0.100000000000D+01
0.155796485273D-05 0.000000000000D+00 0.000000000000D+00 0.861440647028D-06 0.000000000000D+00  7 4 -4 24 -11 11 -24 21 2 0.11194951D+00 0.44273749D-01 0.65118090D+05 0.65118090D+05 0.65118090D+05 0.11373383D+01  1  2 15  2  7  2       -4 0.121755609072D-05 0.100000000000D+01
0.360297469195D-04 0.000000000000D+00 0.000000000000D+00 0.861440647028D-06 0.000000000000D+00  7 4 -4 24 -11 11 -24 21 2 0.11194951D+00 0.51382978D-01 0.86520369D+05 0.86520369D+05 0.86520369D+05 0.11269190D+01  1  2 12  2  7  2       -4 0.199924562940D-04 0.100000000000D+01
-.376614570466D-04 0.000000000000D+00 0.000000000000D+00 0.861440647028D-06 0.000000000000D+00  7 4 -4 24 -11 11 -24 21 2 0.11194951D+00 0.44273749D-01 0.65118090D+05 0.65118090D+05 0.65118090D+05 0.11373383D+01  1  2  4  2  7  2       -4 -.294325872194D-04 0.100000000000D+01
-.669994712066D-04 0.000000000000D+00 -.200821137376D-04 0.861440647028D-06 0.000000000000D+00  7 4 -4 24 -11 11 -24 21 2 0.11194951D+00 0.52631061D-01 0.65118090D+05 0.65118090D+05 0.65118090D+05 0.11373383D+01  1  2  5  2  7  2       -4 -.357472265906D-04 0.100000000000D+01
0.697235402366D-04 0.000000000000D+00 0.197855870599D-04 0.861440647028D-06 0.000000000000D+00  7 4 -4 24 -11 11 -24 21 2 0.11194951D+00 0.44273749D-01 0.65118090D+05 0.65118090D+05 0.65118090D+05 0.11373383D+01  1  2  6  2  7  2       -4 0.544892401990D-04 0.100000000000D+01
0.817054541262D-06 0.000000000000D+00 0.000000000000D+00 0.861440647028D-06 0.000000000000D+00  7 4 21 24 -11 11 -24 4 2 0.11194951D+00 0.51382978D-01 0.86520369D+05 0.86520369D+05 0.86520369D+05 0.11269190D+01  1  2 12  4  7  2       -4 0.975017566020D-05 0.100000000000D+01
-.153266468119D-05 0.000000000000D+00 -.513197297606D-06 0.861440647028D-06 0.000000000000D+00  7 4 21 24 -11 11 -24 4 2 0.11194951D+00 0.52631061D-01 0.65118090D+05 0.65118090D+05 0.65118090D+05 0.11373383D+01  1  2  5  4  7  2       -4 -.178928237009D-04 0.100000000000D+01
  </mgrwgt>
  </event>
  <event>
  8     66 0.26993063E-05 0.21605827E+03 0.75467711E-02 0.10218376E+00
        4 -1    0    0  501    0 0.00000000E+00 0.00000000E+00 0.10464611E+04 0.10464623E+04 0.15500000E+01 0.0000E+00 0.9000E+01
       -4 -1    0    0    0  501 0.00000000E+00 0.00000000E+00 -.12663556E+03 0.12664505E+03 0.15500000E+01 0.0000E+00 0.9000E+01
       25  2    1    2    0    0 0.16817995E+03 -.29224379E+02 0.92009524E+03 0.98228207E+03 0.29860384E+03 0.0000E+00 0.0000E+00
       23  2    1    2    0    0 -.16817995E+03 0.29224379E+02 -.26967526E+00 0.19082525E+03 0.85297386E+02 0.0000E+00 0.0000E+00
       24  1    3    3    0    0 0.80379088E+02 -.11434921E+03 0.69735605E+03 0.71575779E+03 0.80419002E+02 0.0000E+00 0.9000E+01
      -13  1    4    4    0    0 -.52955350E+02 0.31341059E+02 -.34575654E+02 0.70583412E+02 0.10565837E+00 0.0000E+00 0.9000E+01
       13  1    4    4    0    0 -.11522460E+03 -.21166799E+01 0.34305978E+02 0.12024184E+03 0.10565837E+00 0.0000E+00 0.9000E+01
      -24  1    3    3    0    0 0.87800859E+02 0.85124830E+02 0.22273919E+03 0.26652428E+03 0.80419002E+02 0.0000E+00 0.9000E+01
#aMCatNLO 1  0  0  2  1 0.53850526D+02 0.00000000D+00  -5  7  0 0.00000000D+00 0.00000000D+00 0.00000000D+00 0.00000000D+00 0.00000000D+00
  <mgrwgt>
 0.1771992774D-04    6    2    0
 0.364040419434312D+03 0.000000000000000D+00 0.000000000000000D+00 0.364040419434312D+03
 0.364040419434312D+03 0.000000000000000D+00 0.000000000000000D+00 -.364040419434312D+03
 0.272242818910523D+03 0.803790882612568D+02 -.114349208309005D+03 0.219345383410206D+03
 0.157407652144718D+03 -.529552553440752D+02 0.313411099676700D+02 -.144881485052959D+03
 0.150396836067548D+03 -.115224691844884D+03 -.211673101659373D+01 -.966333179508179D+02
 0.148033531745835D+03 0.878008589277023D+02 0.851248293579288D+02 0.221694195935716D+02
 0.000000000000000D+00 0.000000000000000D+00 -.000000000000000D+00 0.000000000000000D+00
 0.394745058923288D+03 0.000000000000000D+00 0.000000000000000D+00 0.394745058923288D+03
 0.389436107607346D+03 0.000000000000000D+00 0.000000000000000D+00 -.389436107607346D+03
 0.262955964733898D+03 0.732650597462532D+02 -.959085878937465D+02 0.219345383410206D+03
 0.161410032159321D+03 -.571930790584378D+02 0.423261795858935D+02 -.144881485052959D+03
 0.153728964427965D+03 -.119267226474990D+03 0.836212023795334D+01 -.966333179508179D+02
 0.151974615566685D+03 0.838130574230325D+02 0.954618042075405D+02 0.221694195935716D+02
 0.541115896427648D+02 0.193821883641424D+02 -.502415161376409D+02 0.530895131594212D+01
0.117174238315D-04 0.000000000000D+00 0.000000000000D+00 0.135368474581D-07 0.000000000000D+00  7 4 -4 24 -13 13 -24 21 0 0.16099484D+00 0.19483212D-01 0.58660779D+05 0.58660779D+05 0.58660779D+05 0.11412425D+01  1  2  2  2  7  2       -4 0.116967769032D-04 0.100000000000D+01
-.519536405112D-06 0.000000000000D+00 -.449979927813D-07 0.135368474581D-07 0.000000000000D+00  7 4 -4 24 -13 13 -24 21 2 0.16099484D+00 0.19483212D-01 0.58660779D+05 0.58660779D+05 0.58660779D+05 0.11412425D+01  1  2  3  2  7  2       -4 -.675469772160D-06 0.100000000000D+01
0.723592012444D-06 0.000000000000D+00 0.000000000000D+00 0.135368474581D-07 0.000000000000D+00  7 4 -4 24 -13 13 -24 21 2 0.16099484D+00 0.19483212D-01 0.58660779D+05 0.58660779D+05 0.58660779D+05 0.11412425D+01  1  2 15  2  7  2       -4 0.940770515738D-06 0.100000000000D+01
0.123421338156D-04 0.000000000000D+00 0.000000000000D+00 0.135368474581D-07 0.000000000000D+00  7 4 -4 24 -13 13 -24 21 2 0.16099484D+00 0.21603883D-01 0.72883855D+05 0.72883855D+05 0.72883855D+05 0.11331721D+01  1  2 12  2  7  2       -4 0.131359283418D-04 0.100000000000D+01
-.917786801856D-05 0.000000000000D+00 0.000000000000D+00 0.135368474581D-07 0.000000000000D+00  7 4 -4 24 -13 13 -24 21 2 0.16099484D+00 0.19483212D-01 0.58660779D+05 0.58660779D+05 0.58660779D+05 0.11412425D+01  1  2  4  2  7  2       -4 -.119325082100D-04 0.100000000000D+01
0.206187763396D-06 0.000000000000D+00 0.000000000000D+00 0.135368474581D-07 0.000000000000D+00  7 4 21 24 -13 13 -24 4 2 0.16099484D+00 0.21603883D-01 0.72883855D+05 0.72883855D+05 0.72883855D+05 0.11331721D+01  1  2 12  4  7  2       -4 0.455442996527D-05 0.100000000000D+01
  </mgrwgt>
  </event>
  <event>
  8     66 0.26993063E-05 0.17766838E+03 0.75467711E-02 0.10552826E+00
        2 -1    0    0  501    0 0.00000000E+00 0.00000000E+00 0.16117969E+03 0.16118001E+03 0.32000000E+00 0.0000E+00 0.9000E+01
       -2 -1    0    0    0  501 0.00000000E+00 0.00000000E+00 -.30419348E+03 0.30419365E+03 0.32000000E+00 0.0000E+00 0.9000E+01
       25  2    1    2    0    0 -.32673295E+02 -.66076982E+02 -.15608526E+03 0.34703222E+03 0.30105655E+03 0.0000E+00 0.0000E+00
       23  2    1    2    0    0 0.32673295E+02 0.66076982E+02 0.13071472E+02 0.11834143E+03 0.91652169E+02 0.0000E+00 0.0000E+00
       24  1    3    3    0    0 -.66454200E+02 0.62727135E+02 -.14748815E+03 0.19123499E+03 0.80419002E+02 0.0000E+00 0.9000E+01
      -11  1    4    4    0    0 0.22639633E+02 0.17968178E+02 -.37816620E+02 0.47597323E+02 0.51099893E-03 0.0000E+00 0.9000E+01
       11  1    4    4    0    0 0.10033662E+02 0.48108804E+02 0.50888092E+02 0.70744112E+02 0.51099893E-03 0.0000E+00 0.9000E+01
      -24  1    3    3    0    0 0.33780905E+02 -.12880412E+03 -.85971133E+01 0.15579723E+03 0.80419002E+02 0.0000E+00 0.9000E+01
#aMCatNLO 1  0  0  1  2 0.60676109D+02 0.00000000D+00  -5  7  0 0.00000000D+00 0.00000000D+00 0.00000000D+00 0.00000000D+00 0.00000000D+00
  <mgrwgt>
 0.9255822371D-03    4    2    0
 0.221427018519104D+03 0.000000000000000D+00 0.000000000000000D+00 0.221427018519104D+03
 0.221427018519104D+03 0.000000000000000D+00 0.000000000000000D+00 -.221427018519104D+03
 0.153330183342396D+03 -.664542000474856D+02 0.627271345184970D+02 -.932312987177015D+02
 0.378053283228405D+02 0.226396329691330D+02 0.179681782912734D+02 -.243687184216512D+02
 0.907751571994630D+02 0.100336625000613D+02 0.481088042676437D+02 0.763216727631125D+02
 0.160943368173510D+03 0.337809045782912D+02 -.128804117077414D+03 0.412783443762402D+02
 0.000000000000000D+00 0.000000000000000D+00 -.000000000000000D+00 -.000000000000000D+00
 0.229203677392670D+03 0.000000000000000D+00 0.000000000000000D+00 0.229203677392670D+03
 0.384742896578422D+03 0.000000000000000D+00 0.000000000000000D+00 -.384742896578422D+03
 0.165715121655550D+03 -.875289456365836D+02 0.681241088462958D+02 -.932312987177015D+02
 0.357643389623028D+02 0.177799406407379D+02 0.192126836935553D+02 -.243687184216512D+02
 0.919266875621911D+02 -.203482694859408D+01 0.511993909347205D+02 0.763216727631125D+02
 0.153585225643316D+03 0.130045132904488D+02 -.123483547491853D+03 0.412783443762402D+02
 0.166955200147732D+03 0.587793186539910D+02 -.150526359827182D+02 -.155539219185753D+03
0.838485838203D-05 0.000000000000D+00 0.000000000000D+00 0.163376767374D-06 0.000000000000D+00  7 2 -2 24 -11 11 -24 21 0 0.24796913D-01 0.46799034D-01 0.31566054D+05 0.31566054D+05 0.31566054D+05 0.11652911D+01  1  2  2  1  7  1        2 0.964756541573D-03 0.100000000000D+01
-.438369429900D-06 0.000000000000D+00 -.322000639709D-07 0.163376767374D-06 0.000000000000D+00  7 2 -2 24 -11 11 -24 21 2 0.24796913D-01 0.46799034D-01 0.31566054D+05 0.31566054D+05 0.31566054D+05 0.11652911D+01  1  2  3  1  7  1        2 -.684906201443D-04 0.100000000000D+01
0.542389377797D-06 0.000000000000D+00 0.000000000000D+00 0.163376767374D-06 0.000000000000D+00  7 2 -2 24 -11 11 -24 21 2 0.24796913D-01 0.46799034D-01 0.31566054D+05 0.31566054D+05 0.31566054D+05 0.11652911D+01  1  2 15  1  7  1        2 0.847426446991D-04 0.100000000000D+01
-.354752347318D-06 0.000000000000D+00 0.000000000000D+00 0.163376767374D-06 0.000000000000D+00  7 2 -2 24 -11 11 -24 21 2 0.24796913D-01 0.46799034D-01 0.31566054D+05 0.31566054D+05 0.31566054D+05 0.11652911D+01  1  2  4  1  7  1        2 -.554263290462D-04 0.100000000000D+01
  </mgrwgt>
  </event>
  <event>
  8     66 0.26993063E-05 0.62261479E+02 0.75467711E-02 0.10325229E+00
        2 -1    0    0  501    0 0.00000000E+00 0.00000000E+00 0.96143284E+03 0.96143289E+03 0.32000000E+00 0.0000E+00 0.9000E+01
       -2 -1    0    0    0  501 0.00000000E+00 0.00000000E+00 -.48939569E+02 0.48940615E+02 0.32000000E+00 0.0000E+00 0.9000E+01
       25  2    1    2    0    0 0.28778243E+02 -.17415697E+02 0.47630963E+03 0.56328907E+03 0.29881804E+03 0.0000E+00 0.0000E+00
       23  2    1    2    0    0 -.28778243E+02 0.17415697E+02 0.43618365E+03 0.44708444E+03 0.92178250E+02 0.0000E+00 0.0000E+00
       24  1    3    3    0    0 0.10519927E+03 -.96774590E+02 0.27239767E+03 0.31796213E+03 0.80419002E+02 0.0000E+00 0.9000E+01
      -13  1    4    4    0    0 -.13729177E+02 -.29366951E+02 0.30965338E+03 0.31134568E+03 0.10565837E+00 0.0000E+00 0.9000E+01
       13  1    4    4    0    0 -.15049067E+02 0.46782648E+02 0.12653027E+03 0.13573876E+03 0.10565837E+00 0.0000E+00 0.9000E+01
      -24  1    3    3    0    0 -.76421025E+02 0.79358893E+02 0.20391195E+03 0.24532694E+03 0.80419002E+02 0.0000E+00 0.9000E+01
#aMCatNLO 1  0  0  1  2 0.11330057D+03 0.00000000D+00  -5  7  0 0.00000000D+00 0.00000000D+00 0.00000000D+00 0.00000000D+00 0.00000000D+00
  <mgrwgt>
 0.7519531833D-03    9    2    0
 0.216916261013271D+03 0.000000000000000D+00 0.000000000000000D+00 0.216916261013271D+03
 0.216916261013271D+03 0.000000000000000D+00 0.000000000000000D+00 -.216916261013271D+03
 0.167575003907521D+03 0.105199296329269D+03 -.967746067515424D+02 -.343794927267134D+02
 0.738045628156930D+02 -.137292124700408D+02 -.293669523805942D+02 0.663038786591249D+02
 0.499934759687384D+02 -.150490822172521D+02 0.467826805583425D+02 0.917897399665620D+01
 0.142459479334589D+03 -.764210016419764D+02 0.793588785737940D+02 -.411033599290678D+02
 0.000000000000000D+00 -.000000000000000D+00 -.000000000000000D+00 0.000000000000000D+00
 0.291312188123584D+03 0.000000000000000D+00 0.000000000000000D+00 0.291312188123584D+03
 0.272005040379464D+03 0.000000000000000D+00 0.000000000000000D+00 -.272005040379464D+03
 0.157228362289903D+03 0.117595878553444D+03 -.569456037029360D+02 -.343794927267134D+02
 0.678914004123453D+02 -.832118459288399D+01 -.119914891350734D+02 0.663038786591249D+02
 0.621681304123927D+02 -.107682750563617D+02 0.605364941803828D+02 0.917897399665620D+01
 0.161095509328658D+03 -.648353939539231D+02 0.116582299963889D+03 -.411033599290678D+02
 0.114933826059750D+03 -.336710249502755D+02 -.108181701306263D+03 0.193071477441206D+02
0.203621674962D-05 0.000000000000D+00 0.000000000000D+00 0.488467213119D-07 0.000000000000D+00  7 2 -2 24 -13 13 -24 21 0 0.14791283D+00 0.75292490D-02 0.36475794D+05 0.36475794D+05 0.36475794D+05 0.11595413D+01  1  2  2  1  7  1        2 0.631655832588D-03 0.100000000000D+01
-.110893930557D-06 0.000000000000D+00 -.781960846673D-08 0.488467213119D-07 0.000000000000D+00  7 2 -2 24 -13 13 -24 21 2 0.14791283D+00 0.75292490D-02 0.36475794D+05 0.36475794D+05 0.36475794D+05 0.11595413D+01  1  2  3  1  7  1        2 -.462526585457D-04 0.100000000000D+01
0.128057957273D-06 0.000000000000D+00 0.000000000000D+00 0.488467213119D-07 0.000000000000D+00  7 2 -2 24 -13 13 -24 21 2 0.14791283D+00 0.75292490D-02 0.36475794D+05 0.36475794D+05 0.36475794D+05 0.11595413D+01  1  2 15  1  7  1        2 0.534115883714D-04 0.100000000000D+01
0.386440306739D-06 0.000000000000D+00 0.000000000000D+00 0.488467213119D-07 0.000000000000D+00  7 2 -2 24 -13 13 -24 21 2 0.21204014D+00 0.75292490D-02 0.62143088D+05 0.62143088D+05 0.62143088D+05 0.11390815D+01  1  2 12  1  7  1        2 0.904701699296D-04 0.100000000000D+01
-.851444443276D-06 0.000000000000D+00 0.000000000000D+00 0.488467213119D-07 0.000000000000D+00  7 2 -2 24 -13 13 -24 21 2 0.14791283D+00 0.75292490D-02 0.36475794D+05 0.36475794D+05 0.36475794D+05 0.11595413D+01  1  2  4  1  7  1        2 -.355128264529D-03 0.100000000000D+01
-.133322337787D-05 0.000000000000D+00 -.765203898510D-06 0.488467213119D-07 0.000000000000D+00  7 2 -2 24 -13 13 -24 21 2 0.22973877D+00 0.75292490D-02 0.36475794D+05 0.36475794D+05 0.36475794D+05 0.11595413D+01  1  2  5  1  7  1        2 -.280954665730D-03 0.100000000000D+01
0.158284533708D-05 0.000000000000D+00 0.696578918995D-06 0.488467213119D-07 0.000000000000D+00  7 2 -2 24 -13 13 -24 21 2 0.14791283D+00 0.75292490D-02 0.36475794D+05 0.36475794D+05 0.36475794D+05 0.11595413D+01  1  2  6  1  7  1        2 0.660187663464D-03 0.100000000000D+01
0.170420618070D-07 0.000000000000D+00 0.000000000000D+00 0.488467213119D-07 0.000000000000D+00  7 21 -2 24 -13 13 -24 -2 2 0.21204014D+00 0.75292490D-02 0.62143088D+05 0.62143088D+05 0.62143088D+05 0.11390815D+01  1  2 12  3  7  1        2 0.175768935814D-05 0.100000000000D+01
-.385231176586D-07 0.000000000000D+00 -.391160065584D-07 0.488467213119D-07 0.000000000000D+00  7 21 -2 24 -13 13 -24 -2 2 0.22973877D+00 0.75292490D-02 0.36475794D+05 0.36475794D+05 0.36475794D+05 0.11595413D+01  1  2  5  3  7  1        2 -.319417162250D-05 0.100000000000D+01
  </mgrwgt>
  </event>
  <event>
  8     66 0.26993063E-05 0.23859694E+03 0.75467711E-02 0.97523459E-01
        2 -1    0    0  501    0 0.00000000E+00 0.00000000E+00 0.38096822E+04 0.38096823E+04 0.32000000E+00 0.0000E+00 0.9000E+01
       -2 -1    0    0    0  501 0.00000000E+00 0.00000000E+00 -.47514568E+02 0.47515646E+02 0.32000000E+00 0.0000E+00 0.9000E+01
       25  2    1    2    0    0 0.17730727E+03 0.27858271E+03 0.28245199E+04 0.28594456E+04 0.29911531E+03 0.0000E+00 0.0000E+00
       23  2    1    2    0    0 -.17730727E+03 -.27858271E+03 0.93764774E+03 0.99775232E+03 0.85324193E+02 0.0000E+00 0.0000E+00
       24  1    3    3    0    0 -.39709798E+02 0.10111518E+03 0.55292854E+03 0.56920852E+03 0.80419002E+02 0.0000E+00 0.9000E+01
      -11  1    4    4    0    0 -.48576186E+02 -.12919012E+03 0.29832853E+03 0.32870905E+03 0.51099893E-03 0.0000E+00 0.9000E+01
       11  1    4    4    0    0 -.12873108E+03 -.14939259E+03 0.63931921E+03 0.66904327E+03 0.51099893E-03 0.0000E+00 0.9000E+01
      -24  1    3    3    0    0 0.21701707E+03 0.17746753E+03 0.22715914E+04 0.22902371E+04 0.80419002E+02 0.0000E+00 0.9000E+01
#aMCatNLO 1  0  0  1  2 0.18637438D+02 0.00000000D+00  -5  7  0 0.00000000D+00 0.00000000D+00 0.00000000D+00 0.00000000D+00 0.00000000D+00
  <mgrwgt>
 0.2124165846D-02    9    2    0
 0.425461527423562D+03 0.000000000000000D+00 0.000000000000000D+00 0.425461527423562D+03
 0.425461527423562D+03 0.000000000000000D+00 0.000000000000000D+00 -.425461527423562D+03
 0.135546937987546D+03 -.397097976932936D+02 0.101115184011393D+03 -.102278039152529D+02
 0.171030659863719D+03 -.485761860539626D+02 -.129190115902795D+03 -.101003736143235D+03
 0.206136399078000D+03 -.128731083699424D+03 -.149392593357390D+03 -.600197981033741D+02
 0.338209057917860D+03 0.217017067446680D+03 0.177467525248792D+03 0.171251338161862D+03
 0.000000000000000D+00 0.000000000000000D+00 -.000000000000000D+00 0.000000000000000D+00
 0.442311525171776D+03 0.000000000000000D+00 0.000000000000000D+00 0.442311525171776D+03
 0.430748588988865D+03 0.000000000000000D+00 0.000000000000000D+00 -.430748588988865D+03
 0.137895485439734D+03 -.414138005186885D+02 0.103577208419414D+03 -.102278039152529D+02
 0.169350486589698D+03 -.506973288817580D+02 -.126125387759682D+03 -.101003736143235D+03
 0.205099920524152D+03 -.131293772552617D+03 -.145689898495213D+03 -.600197981033741D+02
 0.338781242113532D+03 0.212798287604257D+03 0.183563019217065D+03 0.171251338161862D+03
 0.219329794935242D+02 0.106066143488064D+02 -.153249413815835D+02 0.115629361829111D+02
0.827225475667D-04 0.000000000000D+00 0.000000000000D+00 0.304223185398D-07 0.000000000000D+00  7 2 -2 24 -11 11 -24 21 0 0.58610505D+00 0.73100175D-02 0.14517395D+06 0.14517395D+06 0.14517395D+06 0.11086744D+01  1  2  2  1  7  1        2 0.526629187365D-03 0.100000000000D+01
-.452767899379D-05 0.000000000000D+00 -.317676364003D-06 0.304223185398D-07 0.000000000000D+00  7 2 -2 24 -11 11 -24 21 2 0.58610505D+00 0.73100175D-02 0.14517395D+06 0.14517395D+06 0.14517395D+06 0.11086744D+01  1  2  3  1  7  1        2 -.354294747207D-04 0.100000000000D+01
0.529691817161D-05 0.000000000000D+00 0.000000000000D+00 0.304223185398D-07 0.000000000000D+00  7 2 -2 24 -11 11 -24 21 2 0.58610505D+00 0.73100175D-02 0.14517395D+06 0.14517395D+06 0.14517395D+06 0.11086744D+01  1  2 15  1  7  1        2 0.414488369683D-04 0.100000000000D+01
0.140812277908D-03 0.000000000000D+00 0.000000000000D+00 0.304223185398D-07 0.000000000000D+00  7 2 -2 24 -11 11 -24 21 2 0.61286154D+00 0.73100175D-02 0.15230235D+06 0.15230235D+06 0.15230235D+06 0.11070302D+01  1  2 12  1  7  1        2 0.798709949942D-03 0.100000000000D+01
-.139209436260D-03 0.000000000000D+00 0.000000000000D+00 0.304223185398D-07 0.000000000000D+00  7 2 -2 24 -11 11 -24 21 2 0.58610505D+00 0.73100175D-02 0.14517395D+06 0.14517395D+06 0.14517395D+06 0.11086744D+01  1  2  4  1  7  1        2 -.108932572508D-02 0.100000000000D+01
-.908861113864D-03 0.000000000000D+00 -.120764508370D-03 0.304223185398D-07 0.000000000000D+00  7 2 -2 24 -11 11 -24 21 2 0.61089244D+00 0.73100175D-02 0.14517395D+06 0.14517395D+06 0.14517395D+06 0.11086744D+01  1  2  5  1  7  1        2 -.531090988249D-02 0.100000000000D+01
0.919296220445D-03 0.000000000000D+00 0.122896586251D-03 0.304223185398D-07 0.000000000000D+00  7 2 -2 24 -11 11 -24 21 2 0.58610505D+00 0.73100175D-02 0.14517395D+06 0.14517395D+06 0.14517395D+06 0.11086744D+01  1  2  6  1  7  1        2 0.719357141876D-02 0.100000000000D+01
0.221580525455D-05 0.000000000000D+00 0.000000000000D+00 0.304223185398D-07 0.000000000000D+00  7 21 -2 24 -11 11 -24 -2 2 0.61286154D+00 0.73100175D-02 0.15230235D+06 0.15230235D+06 0.15230235D+06 0.11070302D+01  1  2 12  3  7  1        2 0.251429368701D-06 0.100000000000D+01
-.656643258227D-05 0.000000000000D+00 -.882309814752D-06 0.304223185398D-07 0.000000000000D+00  7 21 -2 24 -11 11 -24 -2 2 0.61089244D+00 0.73100175D-02 0.14517395D+06 0.14517395D+06 0.14517395D+06 0.11086744D+01  1  2  5  3  7  1        2 -.779894158006D-06 0.100000000000D+01
  </mgrwgt>
  </event>
  <event>
  8     66 0.26993063E-05 0.31532214E+03 0.75467711E-02 0.98227345E-01
        2 -1    0    0  501    0 0.00000000E+00 0.00000000E+00 0.93691863E+03 0.93691869E+03 0.32000000E+00 0.0000E+00 0.9000E+01
       -2 -1    0    0    0  501 0.00000000E+00 0.00000000E+00 -.30938056E+03 0.30938072E+03 0.32000000E+00 0.0000E+00 0.9000E+01
       25  2    1    2    0    0 -.25202163E+03 -.82381052E+02 0.81578755E+03 0.90934314E+03 0.30181796E+03 0.0000E+00 0.0000E+00
       23  2    1    2    0    0 0.25202163E+03 0.82381052E+02 -.18824947E+03 0.33695627E+03 0.88318319E+02 0.0000E+00 0.0000E+00
       24  1    3    3    0    0 -.36840926E+02 -.88646681E+02 0.51950846E+03 0.53438914E+03 0.80419002E+02 0.0000E+00 0.9000E+01
      -13  1    4    4    0    0 0.12096055E+03 0.79063978E+02 -.12643438E+03 0.19201101E+03 0.10565837E+00 0.0000E+00 0.9000E+01
       13  1    4    4    0    0 0.13106108E+03 0.33170735E+01 -.61815095E+02 0.14494526E+03 0.10565837E+00 0.0000E+00 0.9000E+01
      -24  1    3    3    0    0 -.21518070E+03 0.62656290E+01 0.29627908E+03 0.37495400E+03 0.80419002E+02 0.0000E+00 0.9000E+01
#aMCatNLO 1  0  0  1  2 0.10305546D+03 0.00000000D+00  -5  7  0 0.00000000D+00 0.00000000D+00 0.00000000D+00 0.00000000D+00 0.00000000D+00
  <mgrwgt>
 0.7394278263D-03    4    2    0
 0.538390700761423D+03 0.000000000000000D+00 0.000000000000000D+00 0.538390700761423D+03
 0.538390700761423D+03 0.000000000000000D+00 0.000000000000000D+00 -.538390700761423D+03
 0.315753525513190D+03 -.368409261902619D+02 -.886466807803284D+02 0.289857870453283D+03
 0.295924262034163D+03 0.120960531926291D+03 0.790640868965012D+02 -.258241338169929D+03
 0.203789156304430D+03 0.131061098642466D+03 0.331696510285990D+01 -.156019250070007D+03
 0.261314457671064D+03 -.215180704378495D+03 0.626562878096732D+01 0.124402717786653D+03
 0.000000000000000D+00 -.000000000000000D+00 -.000000000000000D+00 -.000000000000000D+00
 0.556364488656184D+03 0.000000000000000D+00 0.000000000000000D+00 0.556364488656184D+03
 0.711997597586599D+03 0.000000000000000D+00 0.000000000000000D+00 -.711997597586599D+03
 0.308529835040482D+03 -.351886325533926D+02 -.588864859797742D+02 0.289857870453283D+03
 0.305473581831113D+03 0.122552254361059D+03 0.107733306864483D+03 -.258241338169929D+03
 0.205732678165004D+03 0.132144981962138D+03 0.228392691381328D+02 -.156019250070007D+03
 0.261965626282066D+03 -.213795736577576D+03 0.312108991785061D+02 0.124402717786653D+03
 0.186660364924117D+03 -.571286719222809D+01 -.102896989201348D+03 -.155633108930415D+03
0.550499074817D-04 0.000000000000D+00 0.000000000000D+00 0.803645052990D-07 0.000000000000D+00  7 2 -2 24 -13 13 -24 21 0 0.14414135D+00 0.47597026D-01 0.99428051D+05 0.99428051D+05 0.99428051D+05 0.11219265D+01  1  2  2  1  7  1        2 0.824098700456D-03 0.100000000000D+01
-.199404677476D-05 0.000000000000D+00 -.211406139703D-06 0.803645052990D-07 0.000000000000D+00  7 2 -2 24 -13 13 -24 21 2 0.14414135D+00 0.47597026D-01 0.99428051D+05 0.99428051D+05 0.99428051D+05 0.11219265D+01  1  2  3  1  7  1        2 -.375739460525D-04 0.100000000000D+01
0.338563381844D-05 0.000000000000D+00 0.000000000000D+00 0.803645052990D-07 0.000000000000D+00  7 2 -2 24 -13 13 -24 21 2 0.14414135D+00 0.47597026D-01 0.99428051D+05 0.99428051D+05 0.99428051D+05 0.11219265D+01  1  2 15  1  7  1        2 0.637957063284D-04 0.100000000000D+01
-.588506460878D-05 0.000000000000D+00 0.000000000000D+00 0.803645052990D-07 0.000000000000D+00  7 2 -2 24 -13 13 -24 21 2 0.14414135D+00 0.47597026D-01 0.99428051D+05 0.99428051D+05 0.99428051D+05 0.11219265D+01  1  2  4  1  7  1        2 -.110892634478D-03 0.100000000000D+01
  </mgrwgt>
  </event>
  <event>
  8     66 0.26993063E-05 0.65337065E+02 0.75467711E-02 0.10397491E+00
        2 -1    0    0  501    0 0.00000000E+00 0.00000000E+00 0.13079812E+04 0.13079812E+04 0.32000000E+00 0.0000E+00 0.9000E+01
       -2 -1    0    0    0  501 0.00000000E+00 0.00000000E+00 -.65689606E+02 0.65690385E+02 0.32000000E+00 0.0000E+00 0.9000E+01
       25  2    1    2    0    0 -.15535190E+03 -.67035466E+02 0.51028865E+03 0.61661303E+03 0.30197543E+03 0.0000E+00 0.0000E+00
       23  2    1    2    0    0 0.15535190E+03 0.67035466E+02 0.73200292E+03 0.75705857E+03 0.93174209E+02 0.0000E+00 0.0000E+00
       24  1    3    3    0    0 -.77544350E+02 0.12169694E+02 0.45519824E+03 0.46886446E+03 0.80419002E+02 0.0000E+00 0.9000E+01
      -13  1    4    4    0    0 0.39196422E+01 0.20522972E+02 0.22293429E+03 0.22391129E+03 0.10565837E+00 0.0000E+00 0.9000E+01
       13  1    4    4    0    0 0.15143226E+03 0.46512493E+02 0.50906863E+03 0.53314728E+03 0.10565837E+00 0.0000E+00 0.9000E+01
      -24  1    3    3    0    0 -.77807548E+02 -.79205160E+02 0.55090410E+02 0.14774857E+03 0.80419002E+02 0.0000E+00 0.9000E+01
#aMCatNLO 1  0  0  2  1 0.41086147D+02 0.00000000D+00  -5  7  0 0.00000000D+00 0.00000000D+00 0.00000000D+00 0.00000000D+00 0.00000000D+00
  <mgrwgt>
 0.6826691190D-03    7    2    0
 0.293123404906419D+03 0.000000000000000D+00 0.000000000000000D+00 0.293123404906419D+03
 0.293123404906419D+03 0.000000000000000D+00 0.000000000000000D+00 -.293123404906419D+03
 0.134033746790739D+03 -.775443518499639D+02 0.121696936354793D+02 0.730520456755391D+02
 0.522494904203321D+02 0.391945996070067D+01 0.205229383973365D+02 0.478900415779729D+02
 0.170504464685083D+03 0.151432442847527D+03 0.465125289308184D+02 0.630600696418665D+02
 0.229459107916683D+03 -.778075509582635D+02 -.792051609636342D+02 -.184002156895379D+03
 0.000000000000000D+00 0.000000000000000D+00 -.000000000000000D+00 -.000000000000000D+00
 0.294993950490028D+03 0.000000000000000D+00 0.000000000000000D+00 0.294993950490028D+03
 0.660316189127319D+03 0.000000000000000D+00 0.000000000000000D+00 -.660316189127319D+03
 0.138198946727425D+03 -.830499740676183D+02 0.199457602559015D+02 0.730520456755391D+02
 0.533927952839469D+02 0.178295494441959D+01 0.235405092884511D+02 0.478900415779729D+02
 0.167450475589299D+03 0.144597656754443D+03 0.561658886956294D+02 0.630600696418665D+02
 0.228642556308586D+03 -.870721791993047D+02 -.661199248962613D+02 -.184002156895379D+03
 0.367625365708090D+03 0.237415415680604D+02 -.335322333437207D+02 -.365322238637290D+03
0.600595237404D-05 0.000000000000D+00 0.000000000000D+00 0.281291989566D-07 0.000000000000D+00  7 2 -2 24 -13 13 -24 21 0 0.20122794D+00 0.10106156D-01 0.45962766D+05 0.45962766D+05 0.45962766D+05 0.11505255D+01  1  2  2  2  7  2       -2 0.757873709672D-03 0.100000000000D+01
-.293970004716D-06 0.000000000000D+00 -.230644385199D-07 0.281291989566D-07 0.000000000000D+00  7 2 -2 24 -13 13 -24 21 2 0.20122794D+00 0.10106156D-01 0.45962766D+05 0.45962766D+05 0.45962766D+05 0.11505255D+01  1  2  3  2  7  2       -2 -.491032750743D-04 0.100000000000D+01
0.383664459663D-06 0.000000000000D+00 0.000000000000D+00 0.281291989566D-07 0.000000000000D+00  7 2 -2 24 -13 13 -24 21 2 0.20122794D+00 0.10106156D-01 0.45962766D+05 0.45962766D+05 0.45962766D+05 0.11505255D+01  1  2 15  2  7  2       -2 0.640853869335D-04 0.100000000000D+01
0.130313486441D-03 0.000000000000D+00 0.000000000000D+00 0.281291989566D-07 0.000000000000D+00  7 2 -2 24 -13 13 -24 21 2 0.20122794D+00 0.22754965D-01 0.55897380D+05 0.55897380D+05 0.55897380D+05 0.11430605D+01  1  2 12  2  7  2       -2 0.588784692451D-02 0.100000000000D+01
-.129807842832D-03 0.000000000000D+00 -.184483997754D-05 0.281291989566D-07 0.000000000000D+00  7 2 -2 24 -13 13 -24 21 2 0.20122794D+00 0.22826190D-01 0.45962766D+05 0.45962766D+05 0.45962766D+05 0.11505255D+01  1  2  5  2  7  2       -2 -.593529382658D-02 0.100000000000D+01
0.114859735702D-04 0.000000000000D+00 0.000000000000D+00 0.281291989566D-07 0.000000000000D+00  7 2 21 24 -13 13 -24 2 2 0.20122794D+00 0.22754965D-01 0.55897380D+05 0.55897380D+05 0.55897380D+05 0.11430605D+01  1  2 12  4  7  2       -2 0.659350964422D-02 0.100000000000D+01
-.113721686590D-04 0.000000000000D+00 -.163280191256D-06 0.281291989566D-07 0.000000000000D+00  7 2 21 24 -13 13 -24 2 2 0.20122794D+00 0.22826190D-01 0.45962766D+05 0.45962766D+05 0.45962766D+05 0.11505255D+01  1  2  5  4  7  2       -2 -.663624944464D-02 0.100000000000D+01
  </mgrwgt>
  </event>
  <event>
  8     66 0.26993063E-05 0.66118889E+02 0.75467711E-02 0.10435399E+00
        2 -1    0    0  501    0 0.00000000E+00 0.00000000E+00 0.28207933E+04 0.28207933E+04 0.32000000E+00 0.0000E+00 0.9000E+01
       -2 -1    0    0    0  501 0.00000000E+00 0.00000000E+00 -.33177691E+02 0.33179235E+02 0.32000000E+00 0.0000E+00 0.9000E+01
       25  2    1    2    0    0 0.19096431E+02 0.57284351E+02 0.70952271E+03 0.77300506E+03 0.30077930E+03 0.0000E+00 0.0000E+00
       23  2    1    2    0    0 -.19096431E+02 -.57284351E+02 0.20780929E+04 0.20809675E+04 0.91155997E+02 0.0000E+00 0.0000E+00
       24  1    3    3    0    0 -.61414998E+02 0.39942572E+02 0.61359698E+03 0.62316585E+03 0.80419002E+02 0.0000E+00 0.9000E+01
      -13  1    4    4    0    0 -.37679964E+02 -.65626257E+02 0.10716818E+04 0.10743503E+04 0.10565837E+00 0.0000E+00 0.9000E+01
       13  1    4    4    0    0 0.18583534E+02 0.83419063E+01 0.10064110E+04 0.10066172E+04 0.10565837E+00 0.0000E+00 0.9000E+01
      -24  1    3    3    0    0 0.80511429E+02 0.17341778E+02 0.95925725E+02 0.14983921E+03 0.80419002E+02 0.0000E+00 0.9000E+01
#aMCatNLO 1  0  0  1  2 0.13089730D+03 0.00000000D+00  -5  7  0 0.00000000D+00 0.00000000D+00 0.00000000D+00 0.00000000D+00 0.00000000D+00
  <mgrwgt>
 0.9623555007D-03    9    2    0
 0.305924234243329D+03 0.000000000000000D+00 0.000000000000000D+00 0.305924234243329D+03
 0.305924234243329D+03 0.000000000000000D+00 0.000000000000000D+00 -.305924234243329D+03
 0.111180670010318D+03 -.614149983305247D+02 0.399425725284183D+02 0.229502572849703D+02
 0.128674430794617D+03 -.376800392252964D+02 -.656263553821475D+02 0.104069713478778D+03
 0.110110001683912D+03 0.185836086408007D+02 0.834200472932459D+01 0.108209393851978D+03
 0.261883365997811D+03 0.805114289150205D+02 0.173417781244045D+02 -.235229364615726D+03
 0.000000000000000D+00 0.000000000000000D+00 0.000000000000000D+00 0.000000000000000D+00
 0.413721040608930D+03 0.000000000000000D+00 0.000000000000000D+00 0.413721040608930D+03
 0.355310915530224D+03 0.000000000000000D+00 0.000000000000000D+00 -.355310915530224D+03
 0.113247752056732D+03 -.737821569596190D+02 0.196803555982162D+02 0.229502572849703D+02
 0.147769911876779D+03 -.529135422123265D+02 -.905847594414225D+02 0.104069713478778D+03
 0.109007022318609D+03 0.650913532224452D+01 -.114406798012157D+02 0.108209393851978D+03
 0.255669049592348D+03 0.519916328770561D+02 -.293847426114803D+02 -.235229364615726D+03
 0.143338220294686D+03 0.681949309726449D+02 0.111729826255902D+03 0.584101250787057D+02
0.167576702809D-04 0.000000000000D+00 0.000000000000D+00 0.556259864588D-06 0.000000000000D+00  7 2 -2 24 -13 13 -24 21 0 0.43396832D+00 0.51043803D-02 0.25590302D+05 0.25590302D+05 0.25590302D+05 0.11737968D+01  1  2  2  1  7  1        2 0.897699213771D-03 0.100000000000D+01
-.455158233662D-06 0.000000000000D+00 -.643538662746D-07 0.556259864588D-06 0.000000000000D+00  7 2 -2 24 -13 13 -24 21 2 0.43396832D+00 0.51043803D-02 0.25590302D+05 0.25590302D+05 0.25590302D+05 0.11737968D+01  1  2  3  1  7  1        2 -.335942897595D-04 0.100000000000D+01
0.102902759325D-05 0.000000000000D+00 0.000000000000D+00 0.556259864588D-06 0.000000000000D+00  7 2 -2 24 -13 13 -24 21 2 0.43396832D+00 0.51043803D-02 0.25590302D+05 0.25590302D+05 0.25590302D+05 0.11737968D+01  1  2 15  1  7  1        2 0.759504026986D-04 0.100000000000D+01
0.508222570513D-06 0.000000000000D+00 0.000000000000D+00 0.556259864588D-06 0.000000000000D+00  7 2 -2 24 -13 13 -24 21 2 0.61208686D+00 0.51043803D-02 0.52907740D+05 0.52907740D+05 0.52907740D+05 0.11451423D+01  1  2 12  1  7  1        2 0.567241635170D-05 0.100000000000D+01
-.802510738957D-05 0.000000000000D+00 0.000000000000D+00 0.556259864588D-06 0.000000000000D+00  7 2 -2 24 -13 13 -24 21 2 0.43396832D+00 0.51043803D-02 0.25590302D+05 0.25590302D+05 0.25590302D+05 0.11737968D+01  1  2  4  1  7  1        2 -.592316612241D-03 0.100000000000D+01
-.830430544624D-05 0.000000000000D+00 -.502902533247D-05 0.556259864588D-06 0.000000000000D+00  7 2 -2 24 -13 13 -24 21 2 0.60697288D+00 0.51043803D-02 0.25590302D+05 0.25590302D+05 0.25590302D+05 0.11737968D+01  1  2  5  1  7  1        2 -.107693086599D-03 0.100000000000D+01
0.971028385004D-05 0.000000000000D+00 0.475866502584D-05 0.556259864588D-06 0.000000000000D+00  7 2 -2 24 -13 13 -24 21 2 0.43396832D+00 0.51043803D-02 0.25590302D+05 0.25590302D+05 0.25590302D+05 0.11737968D+01  1  2  6  1  7  1        2 0.716696008508D-03 0.100000000000D+01
0.216780347133D-07 0.000000000000D+00 0.000000000000D+00 0.556259864588D-06 0.000000000000D+00  7 21 -2 24 -13 13 -24 -2 2 0.61208686D+00 0.51043803D-02 0.52907740D+05 0.52907740D+05 0.52907740D+05 0.11451423D+01  1  2 12  3  7  1        2 0.512724040165D-08 0.100000000000D+01
-.214321619156D-06 0.000000000000D+00 -.210726755070D-06 0.556259864588D-06 0.000000000000D+00  7 21 -2 24 -13 13 -24 -2 2 0.60697288D+00 0.51043803D-02 0.25590302D+05 0.25590302D+05 0.25590302D+05 0.11737968D+01  1  2  5  3  7  1        2 -.636793056211D-07 0.100000000000D+01
  </mgrwgt>
  </event>
  <event>
  9     66 0.26993063E-05 0.30785606E+03 0.75467711E-02 0.98329739E-01
        2 -1    0    0  501    0 0.00000000E+00 0.00000000E+00 0.11754076E+04 0.11754076E+04 0.32000000E+00 0.0000E+00 0.9000E+01
       -2 -1    0    0    0  502 0.00000000E+00 0.00000000E+00 -.31740161E+03 0.31740177E+03 0.32000000E+00 0.0000E+00 0.9000E+01
       25  2    1    2    0    0 0.68462049E+02 -.26831393E+03 -.14702209E+03 0.43270838E+03 0.29823083E+03 0.0000E+00 0.0000E+00
       23  2    1    2    0    0 -.10270767E+03 0.15943281E+03 0.77862740E+03 0.80655480E+03 0.91117145E+02 0.0000E+00 0.0000E+00
       24  1    3    3    0    0 0.14377626E+03 -.69436228E+02 -.51015060E+02 0.18591061E+03 0.80419002E+02 0.0000E+00 0.9000E+01
      -11  1    4    4    0    0 -.29520215E+02 0.12653681E+03 0.49944950E+03 0.51607442E+03 0.51099893E-03 0.0000E+00 0.9000E+01
       11  1    4    4    0    0 -.73187453E+02 0.32895996E+02 0.27917790E+03 0.29048038E+03 0.51099893E-03 0.0000E+00 0.9000E+01
      -24  1    3    3    0    0 -.75314216E+02 -.19887770E+03 -.96007031E+02 0.24679777E+03 0.80419002E+02 0.0000E+00 0.9000E+01
       21  1    1    2  501  502 0.34245619E+02 0.10888112E+03 0.22640067E+03 0.25354622E+03 0.75000000E+00 0.0000E+00 0.9000E+01
#aMCatNLO 2  0  0  2  2 0.11413966D+03 0.00000000D+00  -5  7  0 0.00000000D+00 0.00000000D+00 0.00000000D+00 0.00000000D+00 0.00000000D+00
  <mgrwgt>
 0.1289107947D-03    1    2    0
 0.530051906990590D+03 0.000000000000000D+00 0.000000000000000D+00 0.530051906990590D+03
 0.530051906990590D+03 0.000000000000000D+00 0.000000000000000D+00 -.530051906990590D+03
 0.245237276845039D+03 0.151692717827717D+03 -.442665172020188D+02 -.169422255954888D+03
 0.317764733872403D+03 -.195069609437549D+02 0.158373127326022D+03 0.274794208652063D+03
 0.174253494629108D+03 -.676069545928203D+02 0.506387301846652D+02 0.152411610733649D+03
 0.322848308634630D+03 -.645788022911420D+02 -.164745340308669D+03 -.257783563430824D+03
 0.000000000000000D+00 0.000000000000000D+00 0.000000000000000D+00 0.000000000000000D+00
 0.669878125284241D+03 0.000000000000000D+00 0.000000000000000D+00 0.669878125284241D+03
 0.556930069687333D+03 0.000000000000000D+00 0.000000000000000D+00 -.556930069687333D+03
 0.246300874286898D+03 0.143776264365512D+03 -.694362276652056D+02 -.169422255954888D+03
 0.303965236680959D+03 -.295202149843809D+02 0.126536812466073D+03 0.274794208652063D+03
 0.172243574370308D+03 -.731874531059214D+02 0.328959957031717D+02 0.152411610733649D+03
 0.343721038880444D+03 -.753142156192499D+02 -.198877701025643D+03 -.257783563430824D+03
 0.160577470752965D+03 0.342456193440400D+02 0.108881120521604D+03 0.112948055596909D+03
0.102659261889D-04 0.000000000000D+00 0.000000000000D+00 0.471179540411D-06 0.248014963782D-09  7 2 -2 24 -11 11 -24 21 2 0.18083167D+00 0.48830958D-01 0.13338833D+06 0.13338833D+06 0.13338833D+06 0.11115970D+01  1  2  1  2  7  2       -2 0.128910794677D-03 0.100000000000D+01
  </mgrwgt>
  </event>
  <event>
  8     66 0.26993063E-05 0.18416924E+03 0.75467711E-02 0.10075341E+00
        2 -1    0    0  501    0 0.00000000E+00 0.00000000E+00 0.14491379E+04 0.14491380E+04 0.32000000E+00 0.0000E+00 0.9000E+01
       -2 -1    0    0    0  501 0.00000000E+00 0.00000000E+00 -.70989885E+02 0.70990607E+02 0.32000000E+00 0.0000E+00 0.9000E+01
       25  2    1    2    0    0 -.10112005E+02 0.44268627E+02 0.26678567E+03 0.40416192E+03 0.30018378E+03 0.0000E+00 0.0000E+00
       23  2    1    2    0    0 0.10112005E+02 -.44268627E+02 0.11113624E+04 0.11159667E+04 0.90516736E+02 0.0000E+00 0.0000E+00
       24  1    3    3    0    0 0.10187275E+03 0.80696683E+02 0.91234022E+02 0.17799122E+03 0.80419002E+02 0.0000E+00 0.9000E+01
      -11  1    4    4    0    0 -.17626596E+02 -.41430424E+02 0.24172618E+03 0.24588356E+03 0.51099893E-03 0.0000E+00 0.9000E+01
       11  1    4    4    0    0 0.27738602E+02 -.28382031E+01 0.86963621E+03 0.87008311E+03 0.51099893E-03 0.0000E+00 0.9000E+01
      -24  1    3    3    0    0 -.11198475E+03 -.36428056E+02 0.17555165E+03 0.22617070E+03 0.80419002E+02 0.0000E+00 0.9000E+01
#aMCatNLO 1  0  0  2  1 0.16735379D+03 0.00000000D+00  -5  7  0 0.00000000D+00 0.00000000D+00 0.00000000D+00 0.00000000D+00 0.00000000D+00
  <mgrwgt>
 0.9878983988D-03    3    2    0
 0.320740879389800D+03 0.000000000000000D+00 0.000000000000000D+00 0.320740879389800D+03
 0.320740879389800D+03 0.000000000000000D+00 0.000000000000000D+00 -.320740879389800D+03
 0.225782805502599D+03 0.101872749081852D+03 0.806966827683231D+02 -.166194607887707D+03
 0.633535652620862D+02 -.176265963598686D+02 -.414304237861593D+02 0.445701392984465D+02
 0.193537469924827D+03 0.277386015608696D+02 -.283820313118932D+01 0.191518319884383D+03
 0.158807918090087D+03 -.111984754282853D+03 -.364280558509745D+02 -.698938512951226D+02
 0.000000000000000D+00 -.000000000000000D+00 -.000000000000000D+00 0.000000000000000D+00
 0.790968666807673D+03 0.000000000000000D+00 0.000000000000000D+00 0.790968666807673D+03
 0.346714466480934D+03 0.000000000000000D+00 0.000000000000000D+00 -.346714466480934D+03
 0.264255815593124D+03 0.162836873953605D+03 0.960594863117922D+02 -.166194607887707D+03
 0.583737428741214D+02 -.248289442689665D+01 -.376142496311704D+02 0.445701392984465D+02
 0.206851609785303D+03 0.775497160362057D+02 0.971407031775498D+01 0.191518319884383D+03
 0.133471423717423D+03 -.756232237333934D+02 -.272650431521731D+02 -.698938512951226D+02
 0.474730541318635D+03 -.162280471829521D+03 -.408942638462036D+02 0.444254200326738D+03
0.101023274019D-04 0.000000000000D+00 0.000000000000D+00 0.204151994551D-05 0.000000000000D+00  7 2 -2 24 -11 11 -24 21 0 0.22294436D+00 0.10921579D-01 0.33918309D+05 0.33918309D+05 0.33918309D+05 0.11624215D+01  1  2  2  2  7  2       -2 0.952321650277D-03 0.100000000000D+01
-.351216080313D-06 0.000000000000D+00 -.387955972271D-07 0.204151994551D-05 0.000000000000D+00  7 2 -2 24 -11 11 -24 21 2 0.22294436D+00 0.10921579D-01 0.33918309D+05 0.33918309D+05 0.33918309D+05 0.11624215D+01  1  2  3  2  7  2       -2 -.447366962997D-04 0.100000000000D+01
0.630519811093D-06 0.000000000000D+00 0.000000000000D+00 0.204151994551D-05 0.000000000000D+00  7 2 -2 24 -11 11 -24 21 2 0.22294436D+00 0.10921579D-01 0.33918309D+05 0.33918309D+05 0.33918309D+05 0.11624215D+01  1  2 15  2  7  2       -2 0.803134448590D-04 0.100000000000D+01
  </mgrwgt>
  </event>
  <event>
  8     66 0.26993063E-05 0.19605107E+03 0.75467711E-02 0.93322911E-01
        2 -1    0    0  501    0 0.00000000E+00 0.00000000E+00 0.12641004E+04 0.12641004E+04 0.32000000E+00 0.0000E+00 0.9000E+01
       -2 -1    0    0    0  501 0.00000000E+00 0.00000000E+00 -.31680612E+02 0.31682228E+02 0.32000000E+00 0.0000E+00 0.9000E+01
       25  2    1    2    0    0 0.43295544E+02 0.47333552E+00 0.96589594E+03 0.10122643E+04 0.29974872E+03 0.0000E+00 0.0000E+00
       23  2    1    2    0    0 -.43295544E+02 -.47333552E+00 0.26652382E+03 0.28351835E+03 0.86446409E+02 0.0000E+00 0.0000E+00
       24  1    3    3    0    0 0.63503713E+02 -.11922968E+03 0.49428109E+03 0.51868049E+03 0.80419002E+02 0.0000E+00 0.9000E+01
      -13  1    4    4    0    0 -.21717322E+02 0.38798420E+02 0.18725039E+03 0.19245696E+03 0.10565837E+00 0.0000E+00 0.9000E+01
       13  1    4    4    0    0 -.21578222E+02 -.39271755E+02 0.79273428E+02 0.91061397E+02 0.10565837E+00 0.0000E+00 0.9000E+01
      -24  1    3    3    0    0 -.20208168E+02 0.11970302E+03 0.47161485E+03 0.49358380E+03 0.80419002E+02 0.0000E+00 0.9000E+01
#aMCatNLO 1  0  0  2  1 0.49519022D+03 0.00000000D+00  -5  7  0 0.00000000D+00 0.00000000D+00 0.00000000D+00 0.00000000D+00 0.00000000D+00
  <mgrwgt>
 0.2367988333D-02    5    2    0
 0.200121330313400D+03 0.000000000000000D+00 0.000000000000000D+00 0.200121330313400D+03
 0.200121330313400D+03 0.000000000000000D+00 0.000000000000000D+00 -.200121330313400D+03
 0.157243070902967D+03 0.635038083037604D+02 -.119229605891744D+03 0.312006449352253D+01
 0.465000715667970D+02 -.217174348512497D+02 0.387985293964581D+02 0.136118990545457D+02
 0.507133972866351D+02 -.215783447412570D+02 -.392718674893627D+02 -.237475077950822D+02
 0.145786120870400D+03 -.202080287112537D+02 0.119702943984648D+03 0.701554424701395D+01
 0.000000000000000D+00 -.000000000000000D+00 0.000000000000000D+00 -.000000000000000D+00
 0.492331102776271D+03 0.000000000000000D+00 0.000000000000000D+00 0.492331102776271D+03
 0.670730842632901D+03 0.000000000000000D+00 0.000000000000000D+00 -.670730842632901D+03
 0.416346879542366D+03 0.166053585588526D+03 -.373221087374555D+03 0.312006449352253D+01
 0.194025396223535D+02 -.993497929273656D+01 0.961618086241878D+01 0.136118990545457D+02
 0.115735422848414D+03 0.818035207849870D+01 -.112977103057636D+03 -.237475077950822D+02
 0.852313771486149D+02 0.210946352429184D+02 0.174060391578707D+02 0.701554424701395D+01
 0.526345726247422D+03 -.185393593617207D+03 0.459175970411901D+03 -.178399739856630D+03
0.499320708875D-05 0.000000000000D+00 0.000000000000D+00 0.115208126771D-07 0.000000000000D+00  7 2 -2 24 -13 13 -24 21 0 0.19447711D+00 0.48740678D-02 0.38436023D+05 0.38436023D+05 0.38436023D+05 0.11574808D+01  1  2  2  2  7  2       -2 0.198031149762D-02 0.100000000000D+01
-.277257979231D-06 0.000000000000D+00 -.191752299624D-07 0.115208126771D-07 0.000000000000D+00  7 2 -2 24 -13 13 -24 21 2 0.19447711D+00 0.48740678D-02 0.38436023D+05 0.38436023D+05 0.38436023D+05 0.11574808D+01  1  2  3  2  7  2       -2 -.147321305018D-03 0.100000000000D+01
0.326189331481D-06 0.000000000000D+00 0.000000000000D+00 0.115208126771D-07 0.000000000000D+00  7 2 -2 24 -13 13 -24 21 2 0.19447711D+00 0.48740678D-02 0.38436023D+05 0.38436023D+05 0.38436023D+05 0.11574808D+01  1  2 15  2  7  2       -2 0.173321028055D-03 0.100000000000D+01
0.823886095083D-05 0.000000000000D+00 -.350122517270D-05 0.115208126771D-07 0.000000000000D+00  7 2 -2 24 -13 13 -24 21 2 0.19447711D+00 0.47669129D-01 0.38436023D+05 0.38436023D+05 0.38436023D+05 0.11574808D+01  1  2  5  2  7  2       -2 0.109524288080D-03 0.100000000000D+01
0.169556826675D-05 0.000000000000D+00 -.952359888548D-06 0.115208126771D-07 0.000000000000D+00  7 2 21 24 -13 13 -24 2 2 0.19447711D+00 0.47669129D-01 0.38436023D+05 0.38436023D+05 0.38436023D+05 0.11574808D+01  1  2  5  4  7  2       -2 0.252152824040D-03 0.100000000000D+01
  </mgrwgt>
  </event>
  <event>
  8     66 0.26993063E-05 0.19421924E+03 0.75467711E-02 0.10336278E+00
        2 -1    0    0  501    0 0.00000000E+00 0.00000000E+00 0.15746820E+04 0.15746821E+04 0.32000000E+00 0.0000E+00 0.9000E+01
       -2 -1    0    0    0  501 0.00000000E+00 0.00000000E+00 -.27683338E+02 0.27685187E+02 0.32000000E+00 0.0000E+00 0.9000E+01
       25  2    1    2    0    0 0.50305802E+02 0.16477441E+02 0.99337535E+03 0.10389211E+04 0.29960006E+03 0.0000E+00 0.0000E+00
       23  2    1    2    0    0 -.50305802E+02 -.16477441E+02 0.55362336E+03 0.56344621E+03 0.90391531E+02 0.0000E+00 0.0000E+00
       24  1    3    3    0    0 -.69114844E+02 -.68595013E+02 0.56764206E+03 0.58152116E+03 0.80419002E+02 0.0000E+00 0.9000E+01
      -11  1    4    4    0    0 0.20374197E+02 -.12967322E+02 0.27190856E+03 0.27297898E+03 0.51099893E-03 0.0000E+00 0.9000E+01
       11  1    4    4    0    0 -.70679999E+02 -.35101195E+01 0.28171479E+03 0.29046722E+03 0.51099893E-03 0.0000E+00 0.9000E+01
      -24  1    3    3    0    0 0.11942065E+03 0.85072454E+02 0.42573330E+03 0.45739990E+03 0.80419002E+02 0.0000E+00 0.9000E+01
#aMCatNLO 1  0  0  1  1 0.99312722D+02 0.00000000D+00  -5  7  0 0.00000000D+00 0.00000000D+00 0.00000000D+00 0.00000000D+00 0.00000000D+00
  <mgrwgt>
 0.2254555510D-02    4    2    0
 0.208791673443320D+03 0.000000000000000D+00 0.000000000000000D+00 0.208791673443320D+03
 0.208791673443320D+03 0.000000000000000D+00 0.000000000000000D+00 -.208791673443320D+03
 0.128522703163924D+03 -.691148438791049D+02 -.685950130179325D+02 0.238480988514430D+02
 0.401605889077398D+02 0.203741962014867D+02 -.129673216565079D+02 0.320875926117317D+02
 0.709385318271405D+02 -.706799989848114D+02 -.351011976481217D+01 0.492870170876169D+01
 0.177961522987836D+03 0.119420646662430D+03 0.850724544392526D+02 -.608643931719363D+02
 0.000000000000000D+00 0.000000000000000D+00 -.000000000000000D+00 -.000000000000000D+00
 0.244415959728907D+03 0.000000000000000D+00 0.000000000000000D+00 0.244415959728907D+03
 0.297356810386325D+03 0.000000000000000D+00 0.000000000000000D+00 -.297356810386325D+03
 0.141911556585874D+03 -.988857555735356D+02 -.576589061991110D+02 0.238480988514430D+02
 0.356689774070158D+02 0.120264545925937D+02 -.990084539713786D+01 0.320875926117317D+02
 0.884080135617660D+02 -.882217554766654D+02 0.293370448732041D+01 0.492870170876169D+01
 0.163242006306631D+03 0.818590590520001D+02 0.988704038809227D+02 -.608643931719363D+02
 0.112542216253945D+03 0.932219974056072D+02 -.342443567719943D+02 -.529408506574179D+02
0.893248411074D-05 0.000000000000D+00 0.000000000000D+00 0.154588591204D-06 0.000000000000D+00  7 2 -2 24 -11 11 -24 21 0 0.24225892D+00 0.42591198D-02 0.37721114D+05 0.37721114D+05 0.37721114D+05 0.11582185D+01  1  2  2  1  7  1        2 0.294692236183D-02 0.100000000000D+01
-.493090839282D-06 0.000000000000D+00 -.343030909623D-07 0.154588591204D-06 0.000000000000D+00  7 2 -2 24 -11 11 -24 21 2 0.24225892D+00 0.42591198D-02 0.37721114D+05 0.37721114D+05 0.37721114D+05 0.11582185D+01  1  2  3  1  7  1        2 -.218224940491D-03 0.100000000000D+01
0.576691567733D-06 0.000000000000D+00 0.000000000000D+00 0.154588591204D-06 0.000000000000D+00  7 2 -2 24 -11 11 -24 21 2 0.24225892D+00 0.42591198D-02 0.37721114D+05 0.37721114D+05 0.37721114D+05 0.11582185D+01  1  2 15  1  7  1        2 0.255223729635D-03 0.100000000000D+01
-.164804038994D-05 0.000000000000D+00 0.000000000000D+00 0.154588591204D-06 0.000000000000D+00  7 2 -2 24 -11 11 -24 21 2 0.24225892D+00 0.42591198D-02 0.37721114D+05 0.37721114D+05 0.37721114D+05 0.11582185D+01  1  2  4  1  7  1        2 -.729365640915D-03 0.100000000000D+01
  </mgrwgt>
  </event>
  <event>
  8     66 0.26993063E-05 0.19753571E+03 0.75467711E-02 0.10213956E+00
        2 -1    0    0  501    0 0.00000000E+00 0.00000000E+00 0.10972201E+04 0.10972201E+04 0.32000000E+00 0.0000E+00 0.9000E+01
       -2 -1    0    0    0  501 0.00000000E+00 0.00000000E+00 -.10433222E+03 0.10433272E+03 0.32000000E+00 0.0000E+00 0.9000E+01
       25  2    1    2    0    0 0.11589065E+03 -.16784175E+03 0.30012997E+03 0.47660752E+03 0.30899067E+03 0.0000E+00 0.0000E+00
       23  2    1    2    0    0 -.11589065E+03 0.16784175E+03 0.69275787E+03 0.72494530E+03 0.63488097E+02 0.0000E+00 0.0000E+00
       24  1    3    3    0    0 -.41335271E+02 -.24994676E+02 -.76111196E+01 0.94119517E+02 0.80419002E+02 0.0000E+00 0.9000E+01
      -11  1    4    4    0    0 -.52997853E+02 0.85301878E+02 0.23474589E+03 0.25532492E+03 0.51099893E-03 0.0000E+00 0.9000E+01
       11  1    4    4    0    0 -.62892793E+02 0.82539876E+02 0.45801197E+03 0.46962038E+03 0.51099893E-03 0.0000E+00 0.9000E+01
      -24  1    3    3    0    0 0.15722592E+03 -.14284708E+03 0.30774109E+03 0.38248800E+03 0.80419002E+02 0.0000E+00 0.9000E+01
#aMCatNLO 1  0  0  1  2 0.16861421D+02 0.00000000D+00  -5  7  0 0.00000000D+00 0.00000000D+00 0.00000000D+00 0.00000000D+00 0.00000000D+00
  <mgrwgt>
 0.3946371895D-02    9    2    0
 0.338342626691872D+03 0.000000000000000D+00 0.000000000000000D+00 0.338342626691872D+03
 0.338342626691872D+03 0.000000000000000D+00 0.000000000000000D+00 -.338342626691872D+03
 0.178290511101876D+03 -.413352703277926D+02 -.249946765323268D+02 -.151614484685898D+03
 0.108928104827057D+03 -.529978529170581D+02 0.853018781977390D+02 0.421918141744850D+02
 0.161846556002674D+03 -.628927932127257D+02 0.825398760720727D+02 0.124201341014640D+03
 0.227620081452137D+03 0.157225916457577D+03 -.142847077737485D+03 -.147786705032268D+02
 0.000000000000000D+00 0.000000000000000D+00 0.000000000000000D+00 0.000000000000000D+00
 0.353456376941048D+03 0.000000000000000D+00 0.000000000000000D+00 0.353456376941048D+03
 0.343183349852860D+03 0.000000000000000D+00 0.000000000000000D+00 -.343183349852860D+03
 0.179091385316265D+03 -.418864307735175D+02 -.294122982885251D+02 -.151614484685898D+03
 0.107016237694352D+03 -.533308859589350D+02 0.826325755967634D+02 0.421918141744850D+02
 0.160049932813631D+03 -.633892274586442D+02 0.785608918356273D+02 0.124201341014640D+03
 0.230737738641182D+03 0.156519029223063D+03 -.148512869705298D+03 -.147786705032268D+02
 0.197444323284784D+02 0.208751496803356D+01 0.167317005614327D+02 0.102730270881883D+02
0.211069983640D-04 0.000000000000D+00 0.000000000000D+00 0.128109725876D-10 0.000000000000D+00  7 2 -2 24 -11 11 -24 21 0 0.16880313D+00 0.16051153D-01 0.68944758D+05 0.68944758D+05 0.68944758D+05 0.11352208D+01  1  2  2  1  7  1        2 0.169181838455D-02 0.100000000000D+01
-.108097007802D-05 0.000000000000D+00 -.810564313181D-07 0.128109725876D-10 0.000000000000D+00  7 2 -2 24 -11 11 -24 21 2 0.16880313D+00 0.16051153D-01 0.68944758D+05 0.68944758D+05 0.68944758D+05 0.11352208D+01  1  2  3  1  7  1        2 -.111661034358D-03 0.100000000000D+01
0.133901171749D-05 0.000000000000D+00 0.000000000000D+00 0.128109725876D-10 0.000000000000D+00  7 2 -2 24 -11 11 -24 21 2 0.16880313D+00 0.16051153D-01 0.68944758D+05 0.68944758D+05 0.68944758D+05 0.11352208D+01  1  2 15  1  7  1        2 0.138315977872D-03 0.100000000000D+01
0.715217542272D-04 0.000000000000D+00 0.000000000000D+00 0.128109725876D-10 0.000000000000D+00  7 2 -2 24 -11 11 -24 21 2 0.17751444D+00 0.16051153D-01 0.73371506D+05 0.73371506D+05 0.73371506D+05 0.11329270D+01  1  2 12  1  7  1        2 0.682127280781D-02 0.100000000000D+01
-.706178619872D-04 0.000000000000D+00 0.000000000000D+00 0.128109725876D-10 0.000000000000D+00  7 2 -2 24 -11 11 -24 21 2 0.16880313D+00 0.16051153D-01 0.68944758D+05 0.68944758D+05 0.68944758D+05 0.11352208D+01  1  2  4  1  7  1        2 -.729461774563D-02 0.100000000000D+01
-.336443242796D-03 0.000000000000D+00 -.497818856898D-04 0.128109725876D-10 0.000000000000D+00  7 2 -2 24 -11 11 -24 21 2 0.17777386D+00 0.16051153D-01 0.68944758D+05 0.68944758D+05 0.68944758D+05 0.11352208D+01  1  2  5  1  7  1        2 -.321669251956D-01 0.100000000000D+01
0.338633514466D-03 0.000000000000D+00 0.497152254622D-04 0.128109725876D-10 0.000000000000D+00  7 2 -2 24 -11 11 -24 21 2 0.16880313D+00 0.16051153D-01 0.68944758D+05 0.68944758D+05 0.68944758D+05 0.11352208D+01  1  2  6  1  7  1        2 0.349798475113D-01 0.100000000000D+01
0.100540030659D-05 0.000000000000D+00 0.000000000000D+00 0.128109725876D-10 0.000000000000D+00  7 21 -2 24 -11 11 -24 -2 2 0.17751444D+00 0.16051153D-01 0.73371506D+05 0.73371506D+05 0.73371506D+05 0.11329270D+01  1  2 12  3  7  1        2 0.565835255974D-04 0.100000000000D+01
-.298023967421D-05 0.000000000000D+00 -.447907214795D-06 0.128109725876D-10 0.000000000000D+00  7 21 -2 24 -11 11 -24 -2 2 0.17777386D+00 0.16051153D-01 0.68944758D+05 0.68944758D+05 0.68944758D+05 0.11352208D+01  1  2  5  3  7  1        2 -.168262336271D-03 0.100000000000D+01
  </mgrwgt>
  </event>
  <event>
  7     66 0.26993063E-05 0.22591187E+03 0.75467711E-02 0.99879329E-01
        2 -1    0    0  501    0 0.00000000E+00 0.00000000E+00 0.13992753E+04 0.13992753E+04 0.32000000E+00 0.0000E+00 0.9000E+01
       -2 -1    0    0    0  501 0.00000000E+00 0.00000000E+00 -.92791551E+02 0.92792103E+02 0.32000000E+00 0.0000E+00 0.9000E+01
       25  2    1    2    0    0 0.12117310E+03 0.55890002E+02 0.43838470E+03 0.54776477E+03 0.30009746E+03 0.0000E+00 0.0000E+00
       24  1    3    3    0    0 0.65185756E+02 0.12009112E+03 0.39003957E+03 0.42103342E+03 0.80419002E+02 0.0000E+00 0.9000E+01
      -13  1    1    2    0    0 -.49457935E+02 0.14372648E+03 0.27196213E+03 0.31155545E+03 0.10565837E+00 0.0000E+00 0.9000E+01
       13  1    1    2    0    0 -.71715167E+02 -.19961648E+03 0.59613691E+03 0.63274721E+03 0.10565837E+00 0.0000E+00 0.9000E+01
      -24  1    3    3    0    0 0.55987346E+02 -.64201120E+02 0.48345131E+02 0.12673135E+03 0.80419002E+02 0.0000E+00 0.9000E+01
#aMCatNLO 1  0  0  1  2 0.52063538D+01 0.00000000D+00  -5  7  0 0.00000000D+00 0.00000000D+00 0.00000000D+00 0.00000000D+00 0.00000000D+00
  <mgrwgt>
 0.5829307924D-02    8    2    0
 0.360335070266325D+03 0.000000000000000D+00 0.000000000000000D+00 0.360335070266325D+03
 0.360335070266325D+03 0.000000000000000D+00 0.000000000000000D+00 -.360335070266325D+03
 0.164620069366842D+03 0.652033098054462D+02 0.120099216167864D+03 0.442409081083652D+02
 0.151985426024844D+03 -.494722053548667D+02 0.143697889552810D+03 -.172834005552532D+01
 0.229312523200393D+03 -.717370842503249D+02 -.199604582970692D+03 0.871552321830904D+02
 0.174752121940571D+03 0.560059797997454D+02 -.641925227499822D+02 -.129667800235930D+03
 0.000000000000000D+00 -.000000000000000D+00 -.000000000000000D+00 -.000000000000000D+00
 0.362805079099781D+03 0.000000000000000D+00 0.000000000000000D+00 0.362805079099781D+03
 0.363098481958767D+03 0.000000000000000D+00 0.000000000000000D+00 -.363098481958767D+03
 0.165451391406456D+03 0.662520764332037D+02 0.120666281048178D+03 0.442409081083652D+02
 0.152168756981647D+03 -.485057880945476D+02 0.144220428384188D+03 -.172834005552532D+01
 0.228176774566595D+03 -.702834611260167D+02 -.198818613431625D+03 0.871552321830904D+02
 0.174892023523140D+03 0.571169365316423D+02 -.635918318722086D+02 -.129667800235930D+03
 0.521461458071037D+01 -.457976374428162D+01 -.247626412853307D+01 -.293402858985963D+00
0.960646043074D-04 0.000000000000D+00 0.000000000000D+00 0.255250852819D-09 0.000000000000D+00  7 2 -2 24 -13 13 -24 21 0 0.21527317D+00 0.14275668D-01 0.10233460D+06 0.10233460D+06 0.10233460D+06 0.11209005D+01  1  2  2  1  7  1        2 0.625700966805D-02 0.100000000000D+01
-.524498224908D-05 0.000000000000D+00 -.368913374932D-06 0.255250852819D-09 0.000000000000D+00  7 2 -2 24 -13 13 -24 21 2 0.21527317D+00 0.14275668D-01 0.10233460D+06 0.10233460D+06 0.10233460D+06 0.11209005D+01  1  2  3  1  7  1        2 -.429221613455D-03 0.100000000000D+01
0.600061842567D-05 0.000000000000D+00 0.000000000000D+00 0.255250852819D-09 0.000000000000D+00  7 2 -2 24 -13 13 -24 21 2 0.21527317D+00 0.14275668D-01 0.10233460D+06 0.10233460D+06 0.10233460D+06 0.11209005D+01  1  2 15  1  7  1        2 0.491058882582D-03 0.100000000000D+01
0.154647638657D-04 0.000000000000D+00 0.000000000000D+00 0.255250852819D-09 0.000000000000D+00  7 2 -2 24 -13 13 -24 21 2 0.21756831D+00 0.14275668D-01 0.10401540D+06 0.10401540D+06 0.10401540D+06 0.11203217D+01  1  2 12  1  7  1        2 0.124046649439D-02 0.100000000000D+01
-.447630540651D-03 0.000000000000D+00 0.000000000000D+00 0.255250852819D-09 0.000000000000D+00  7 2 -2 24 -13 13 -24 21 2 0.21527317D+00 0.14275668D-01 0.10233460D+06 0.10233460D+06 0.10233460D+06 0.11209005D+01  1  2  4  1  7  1        2 -.366317165179D-01 0.100000000000D+01
0.436552742174D-03 0.000000000000D+00 0.000000000000D+00 0.255250852819D-09 0.630390945350D-10  7 2 -2 24 -13 13 -24 21 2 0.21674881D+00 0.14385149D-01 0.10401540D+06 0.10401540D+06 0.10401540D+06 0.11203217D+01  1  2 11  1  7  1        2 0.348255695748D-01 0.100000000000D+01
0.110557890145D-05 0.000000000000D+00 0.000000000000D+00 0.255250852819D-09 0.000000000000D+00  7 21 -2 24 -13 13 -24 -2 2 0.21756831D+00 0.14275668D-01 0.10401540D+06 0.10401540D+06 0.10401540D+06 0.11203217D+01  1  2 12  3  7  1        2 0.363494230440D-04 0.100000000000D+01
0.120882838304D-05 0.000000000000D+00 0.000000000000D+00 0.255250852819D-09 0.799747131604D-13  7 21 -2 24 -13 13 -24 -2 2 0.21674881D+00 0.14385149D-01 0.10401540D+06 0.10401540D+06 0.10401540D+06 0.11203217D+01  1  2 11  3  7  1        2 0.397920128826D-04 0.100000000000D+01
  </mgrwgt>
  </event>
  <event>
  8     66 0.26993063E-05 0.24018505E+03 0.75467711E-02 0.97076584E-01
        2 -1    0    0  501    0 0.00000000E+00 0.00000000E+00 0.23069801E+04 0.23069801E+04 0.32000000E+00 0.0000E+00 0.9000E+01
       -2 -1    0    0    0  501 0.00000000E+00 0.00000000E+00 -.84813546E+02 0.84814150E+02 0.32000000E+00 0.0000E+00 0.9000E+01
       25  2    1    2    0    0 0.14014923E+03 0.90364995E+02 0.27383871E+03 0.43422247E+03 0.29283763E+03 0.0000E+00 0.0000E+00
       23  2    1    2    0    0 -.14014923E+03 -.90364995E+02 0.19483278E+04 0.19575718E+04 0.91095098E+02 0.0000E+00 0.0000E+00
       24  1    3    3    0    0 -.98652295E+00 -.52732081E+02 0.15894657E+02 0.97475647E+02 0.80419002E+02 0.0000E+00 0.9000E+01
      -11  1    4    4    0    0 -.10018013E+03 -.54641392E+02 0.16840549E+04 0.16879167E+04 0.51099893E-03 0.0000E+00 0.9000E+01
       11  1    4    4    0    0 -.39969107E+02 -.35723603E+02 0.26427293E+03 0.26965513E+03 0.51099893E-03 0.0000E+00 0.9000E+01
      -24  1    3    3    0    0 0.14113576E+03 0.14309708E+03 0.25794405E+03 0.33674683E+03 0.80419002E+02 0.0000E+00 0.9000E+01
#aMCatNLO 1  0  0  1  2 0.26058044D+03 0.00000000D+00  -5  7  0 0.00000000D+00 0.00000000D+00 0.00000000D+00 0.00000000D+00 0.00000000D+00
  <mgrwgt>
 0.1564488485D-02    4    2    0
 0.442339135828422D+03 0.000000000000000D+00 0.000000000000000D+00 0.442339135828422D+03
 0.442339135828422D+03 0.000000000000000D+00 0.000000000000000D+00 -.442339135828422D+03
 0.223607975247392D+03 -.986522948713755D+00 -.527320809217361D+02 -.201870416490389D+03
 0.333340302234699D+03 -.100180127228206D+03 -.546413918670019D+02 0.313199644791142D+03
 0.652227160114958D+02 -.399691071009175D+02 -.357236032861547D+02 0.371523529500494D+02
 0.262507278163257D+03 0.141135757277837D+03 0.143097076074893D+03 -.148481581250803D+03
 0.000000000000000D+00 -.000000000000000D+00 0.000000000000000D+00 -.000000000000000D+00
 0.565839901159517D+03 0.000000000000000D+00 0.000000000000000D+00 0.565839901159517D+03
 0.623245800662730D+03 0.000000000000000D+00 0.000000000000000D+00 -.623245800662730D+03
 0.243945738071952D+03 0.464250897013615D+02 -.100674491115259D+03 -.201870416490389D+03
 0.338194627946290D+03 -.320840923048553D+02 -.123499797147224D+03 0.313199644791142D+03
 0.671967221541321D+02 -.265413041965670D+02 -.493017373941312D+02 0.371523529500494D+02
 0.272919823150718D+03 0.195429973336201D+03 0.881950081655504D+02 -.148481581250803D+03
 0.266828790499155D+03 -.183229666536140D+03 0.185281017491064D+03 -.574058995032126D+02
0.842081286794D-04 0.000000000000D+00 0.000000000000D+00 0.302332959414D-07 0.000000000000D+00  7 2 -2 24 -11 11 -24 21 0 0.35492006D+00 0.13048286D-01 0.57688858D+05 0.57688858D+05 0.57688858D+05 0.11418709D+01  1  2  2  1  7  1        2 0.208771013633D-02 0.100000000000D+01
-.255707540339D-05 0.000000000000D+00 -.323381386638D-06 0.302332959414D-07 0.000000000000D+00  7 2 -2 24 -11 11 -24 21 2 0.35492006D+00 0.13048286D-01 0.57688858D+05 0.57688858D+05 0.57688858D+05 0.11418709D+01  1  2  3  1  7  1        2 -.826596865104D-04 0.100000000000D+01
0.526552245970D-05 0.000000000000D+00 0.000000000000D+00 0.302332959414D-07 0.000000000000D+00  7 2 -2 24 -11 11 -24 21 2 0.35492006D+00 0.13048286D-01 0.57688858D+05 0.57688858D+05 0.57688858D+05 0.11418709D+01  1  2 15  1  7  1        2 0.170212593361D-03 0.100000000000D+01
-.188942961745D-04 0.000000000000D+00 0.000000000000D+00 0.302332959414D-07 0.000000000000D+00  7 2 -2 24 -11 11 -24 21 2 0.35492006D+00 0.13048286D-01 0.57688858D+05 0.57688858D+05 0.57688858D+05 0.11418709D+01  1  2  4  1  7  1        2 -.610774557741D-03 0.100000000000D+01
  </mgrwgt>
  </event>
  <event>
  9     66 0.26993063E-05 0.30385952E+03 0.75467711E-02 0.97418395E-01
        2 -1    0    0  501    0 0.00000000E+00 0.00000000E+00 0.44532247E+03 0.44532258E+03 0.32000000E+00 0.0000E+00 0.9000E+01
       -2 -1    0    0    0  502 0.00000000E+00 0.00000000E+00 -.11156406E+04 0.11156407E+04 0.32000000E+00 0.0000E+00 0.9000E+01
       25  2    1    2    0    0 -.34248402E+03 0.45705248E+02 -.92493251E+03 0.10316776E+04 0.29912235E+03 0.0000E+00 0.0000E+00
       23  2    1    2    0    0 0.19961516E+03 0.38187065E+02 0.28402502E+03 0.36101513E+03 0.91417975E+02 0.0000E+00 0.0000E+00
       24  1    3    3    0    0 -.19502343E+03 0.91253207E+02 -.75198230E+03 0.78632428E+03 0.80419002E+02 0.0000E+00 0.9000E+01
      -13  1    4    4    0    0 0.12292499E+02 -.18392065E+02 0.99568559E+01 0.24259508E+02 0.10565837E+00 0.0000E+00 0.9000E+01
       13  1    4    4    0    0 0.18732267E+03 0.56579130E+02 0.27406816E+03 0.33675562E+03 0.10565837E+00 0.0000E+00 0.9000E+01
      -24  1    3    3    0    0 -.14746059E+03 -.45547959E+02 -.17295022E+03 0.24535329E+03 0.80419002E+02 0.0000E+00 0.9000E+01
       21  1    1    2  501  502 0.14286885E+03 -.83892313E+02 -.29410657E+02 0.16827055E+03 0.75000000E+00 0.0000E+00 0.9000E+01
#aMCatNLO 2  0  0  2  2 0.16567869D+03 0.00000000D+00  -5  7  0 0.00000000D+00 0.00000000D+00 0.00000000D+00 0.00000000D+00 0.00000000D+00
  <mgrwgt>
 0.2953860193D-03    1    2    0
 0.612654286984334D+03 0.000000000000000D+00 0.000000000000000D+00 0.612654286984334D+03
 0.612654286984334D+03 0.000000000000000D+00 0.000000000000000D+00 -.612654286984334D+03
 0.471423109449423D+03 -.138884898271492D+03 0.582887719292651D+02 -.439415448371684D+03
 0.354733488942615D+02 0.162362460186581D+02 -.207080633857574D+02 0.237890501661389D+02
 0.544080323476999D+03 0.249156277759739D+03 0.202707904080728D+02 0.483253186956879D+03
 0.174331792147985D+03 -.126507625506905D+03 -.578514989515806D+02 -.676267887513340D+02
 0.000000000000000D+00 0.000000000000000D+00 -.000000000000000D+00 0.000000000000000D+00
 0.732419810825457D+03 0.000000000000000D+00 0.000000000000000D+00 0.732419810825457D+03
 0.678325191451966D+03 0.000000000000000D+00 0.000000000000000D+00 -.678325191451966D+03
 0.495897607087291D+03 -.195023426203091D+03 0.912532066551671D+02 -.439415448371684D+03
 0.324852339057291D+02 0.122922647376944D+02 -.183921652265659D+02 0.237890501661389D+02
 0.521368124051864D+03 0.187322899844062D+03 0.565792299999853D+02 0.483253186956879D+03
 0.186707902225536D+03 -.147460590351461D+03 -.455479586312139D+02 -.676267887513340D+02
 0.174286135007004D+03 0.142868851972795D+03 -.838923127973726D+02 0.540946193734916D+02
0.136555819548D-03 0.000000000000D+00 0.000000000000D+00 0.478462028576D-05 0.115897296378D-08  7 2 -2 24 -13 13 -24 21 2 0.68511082D-01 0.17163683D+00 0.15498239D+06 0.15498239D+06 0.15498239D+06 0.11064338D+01  1  2  1  2  7  2       -2 0.295386019326D-03 0.100000000000D+01
  </mgrwgt>
  </event>
  <event>
  8     66 0.26993063E-05 0.37950526E+03 0.75467711E-02 0.89660116E-01
        2 -1    0    0  501    0 0.00000000E+00 0.00000000E+00 0.27000376E+04 0.27000377E+04 0.32000000E+00 0.0000E+00 0.9000E+01
       -2 -1    0    0    0  501 0.00000000E+00 0.00000000E+00 -.20462855E+03 0.20462880E+03 0.32000000E+00 0.0000E+00 0.9000E+01
       25  2    1    2    0    0 0.49490328E+03 -.49325063E+03 0.10666859E+04 0.13117482E+04 0.30763496E+03 0.0000E+00 0.0000E+00
       23  2    1    2    0    0 -.49490328E+03 0.49325063E+03 0.14287232E+04 0.15929182E+04 0.88954665E+02 0.0000E+00 0.0000E+00
       24  1    3    3    0    0 0.32946044E+03 -.33436888E+03 0.47754980E+03 0.67443885E+03 0.80419002E+02 0.0000E+00 0.9000E+01
      -11  1    4    4    0    0 -.72164501E+01 0.26179612E+02 0.35720784E+02 0.44871189E+02 0.51099893E-03 0.0000E+00 0.9000E+01
       11  1    4    4    0    0 -.48768683E+03 0.46707102E+03 0.13930024E+04 0.15480470E+04 0.51099893E-03 0.0000E+00 0.9000E+01
      -24  1    3    3    0    0 0.16544285E+03 -.15888175E+03 0.58913607E+03 0.63730940E+03 0.80419002E+02 0.0000E+00 0.9000E+01
#aMCatNLO 1  0  0  1  2 0.16212180D+03 0.00000000D+00  -5  7  0 0.00000000D+00 0.00000000D+00 0.00000000D+00 0.00000000D+00 0.00000000D+00
  <mgrwgt>
 0.1793931396D-02    9    2    0
 0.743306913502364D+03 0.000000000000000D+00 0.000000000000000D+00 0.743306913502364D+03
 0.743306913502364D+03 0.000000000000000D+00 0.000000000000000D+00 -.743306913502364D+03
 0.516164832326182D+03 0.329460435915527D+03 -.334368884573187D+03 -.199028109501093D+03
 0.277125563725890D+02 -.721645008121099D+01 0.261796118547678D+02 -.552598878600153D+01
 0.686425270531644D+03 -.487686833132719D+03 0.467071018947567D+03 0.123230954198618D+03
 0.256311167774312D+03 0.165442847298402D+03 -.158881746229149D+03 0.813231440884761D+02
 0.000000000000000D+00 0.000000000000000D+00 -.000000000000000D+00 0.000000000000000D+00
 0.841123116372730D+03 0.000000000000000D+00 0.000000000000000D+00 0.841123116372730D+03
 0.818058837819247D+03 0.000000000000000D+00 0.000000000000000D+00 -.818058837819247D+03
 0.469693296009525D+03 0.283420030940906D+03 -.306929102647171D+03 -.199028109501093D+03
 0.300145421582051D+02 -.991235420572674D+01 0.277863531792834D+02 -.552598878600153D+01
 0.762258215261923D+03 -.555341572135154D+03 0.507392803378257D+03 0.123230954198618D+03
 0.233461694646788D+03 0.142570042091112D+03 -.145249703086386D+03 0.813231440884761D+02
 0.163754206115535D+03 0.139263853308863D+03 -.830003508239823D+02 0.230642785534835D+02
0.288477695193D-03 0.000000000000D+00 0.000000000000D+00 0.179912205209D-07 0.000000000000D+00  7 2 -2 24 -11 11 -24 21 0 0.41539043D+00 0.31481335D-01 0.50534101D+06 0.50534101D+06 0.50534101D+06 0.10681844D+01  1  2  2  1  7  1        2 0.880243965142D-03 0.100000000000D+01
-.159877524927D-04 0.000000000000D+00 -.110783030746D-05 0.179912205209D-07 0.000000000000D+00  7 2 -2 24 -11 11 -24 21 2 0.41539043D+00 0.31481335D-01 0.50534101D+06 0.50534101D+06 0.50534101D+06 0.10681844D+01  1  2  3  1  7  1        2 -.556635256094D-04 0.100000000000D+01
0.181296179880D-04 0.000000000000D+00 0.000000000000D+00 0.179912205209D-07 0.000000000000D+00  7 2 -2 24 -11 11 -24 21 2 0.41539043D+00 0.31481335D-01 0.50534101D+06 0.50534101D+06 0.50534101D+06 0.10681844D+01  1  2 15  1  7  1        2 0.631207204156D-04 0.100000000000D+01
0.226966437229D-03 0.000000000000D+00 0.000000000000D+00 0.179912205209D-07 0.000000000000D+00  7 2 -2 24 -11 11 -24 21 2 0.48855760D+00 0.31481335D-01 0.63054305D+06 0.63054305D+06 0.63054305D+06 0.10614623D+01  1  2 12  1  7  1        2 0.385441180515D-03 0.100000000000D+01
-.201426615884D-03 0.000000000000D+00 0.000000000000D+00 0.179912205209D-07 0.000000000000D+00  7 2 -2 24 -11 11 -24 21 2 0.41539043D+00 0.31481335D-01 0.50534101D+06 0.50534101D+06 0.50534101D+06 0.10681844D+01  1  2  4  1  7  1        2 -.701294043475D-03 0.100000000000D+01
-.684717700100D-03 0.000000000000D+00 -.168636669146D-03 0.179912205209D-07 0.000000000000D+00  7 2 -2 24 -11 11 -24 21 2 0.48569748D+00 0.31481335D-01 0.50534101D+06 0.50534101D+06 0.50534101D+06 0.10681844D+01  1  2  5  1  7  1        2 -.122977015960D-02 0.100000000000D+01
0.704497489261D-03 0.000000000000D+00 0.166595826044D-03 0.179912205209D-07 0.000000000000D+00  7 2 -2 24 -11 11 -24 21 2 0.41539043D+00 0.31481335D-01 0.50534101D+06 0.50534101D+06 0.50534101D+06 0.10681844D+01  1  2  6  1  7  1        2 0.245280342269D-02 0.100000000000D+01
0.551420434643D-05 0.000000000000D+00 0.000000000000D+00 0.179912205209D-07 0.000000000000D+00  7 21 -2 24 -11 11 -24 -2 2 0.48855760D+00 0.31481335D-01 0.63054305D+06 0.63054305D+06 0.63054305D+06 0.10614623D+01  1  2 12  3  7  1        2 0.485980272762D-06 0.100000000000D+01
-.148906597745D-04 0.000000000000D+00 -.397791597433D-05 0.179912205209D-07 0.000000000000D+00  7 21 -2 24 -11 11 -24 -2 2 0.48569748D+00 0.31481335D-01 0.50534101D+06 0.50534101D+06 0.50534101D+06 0.10681844D+01  1  2  5  3  7  1        2 -.143614431113D-05 0.100000000000D+01
  </mgrwgt>
  </event>
  <event>
  8     66 0.26993063E-05 0.34366087E+03 0.75467711E-02 0.93115290E-01
        2 -1    0    0  501    0 0.00000000E+00 0.00000000E+00 0.76849333E+03 0.76849339E+03 0.32000000E+00 0.0000E+00 0.9000E+01
       -2 -1    0    0    0  501 0.00000000E+00 0.00000000E+00 -.15546495E+03 0.15546528E+03 0.32000000E+00 0.0000E+00 0.9000E+01
       25  2    1    2    0    0 0.15727008E+03 0.21744586E+03 0.37910919E+03 0.55412910E+03 0.30218985E+03 0.0000E+00 0.0000E+00
       23  2    1    2    0    0 -.15727008E+03 -.21744586E+03 0.23391919E+03 0.36982958E+03 0.10019557E+03 0.0000E+00 0.0000E+00
       24  1    3    3    0    0 0.13986148E+03 -.88105414E+01 0.17834315E+03 0.24064986E+03 0.80419002E+02 0.0000E+00 0.9000E+01
      -13  1    4    4    0    0 -.80629031E+02 -.18492668E+03 0.18206208E+03 0.27174534E+03 0.10565837E+00 0.0000E+00 0.9000E+01
       13  1    4    4    0    0 -.76641046E+02 -.32519175E+02 0.51857107E+02 0.98084236E+02 0.10565837E+00 0.0000E+00 0.9000E+01
      -24  1    3    3    0    0 0.17408594E+02 0.22625640E+03 0.20076604E+03 0.31347924E+03 0.80419002E+02 0.0000E+00 0.9000E+01
#aMCatNLO 1  0  0  1  1 0.36606670D+03 0.00000000D+00  -5  7  0 0.00000000D+00 0.00000000D+00 0.00000000D+00 0.00000000D+00 0.00000000D+00
  <mgrwgt>
 0.3494991269D-03    5    2    0
 0.345650058529323D+03 0.000000000000000D+00 0.000000000000000D+00 0.345650058529323D+03
 0.345650058529323D+03 0.000000000000000D+00 0.000000000000000D+00 -.345650058529323D+03
 0.163490662900413D+03 0.139861482252703D+03 -.881053178663345D+01 0.249623959779400D+02
 0.201753671949532D+03 -.806290542379759D+02 -.184926846379508D+03 0.235822940757798D+01
 0.851089260050187D+02 -.766410307663088D+02 -.325190227199165D+02 -.176690364804370D+02
 0.240946856203683D+03 0.174086027515816D+02 0.226256400886058D+03 -.965158890508097D+01
 0.000000000000000D+00 -.000000000000000D+00 0.000000000000000D+00 0.000000000000000D+00
 0.109776705870990D+04 0.000000000000000D+00 0.000000000000000D+00 0.109776705870990D+04
 0.438529116315287D+03 0.000000000000000D+00 0.000000000000000D+00 -.438529116315287D+03
 0.203422476891747D+03 0.156896660155285D+03 -.983555029958181D+02 0.249623959779400D+02
 0.316514654370581D+03 -.565667021915555D+02 -.311409976379309D+03 0.235822940757798D+01
 0.105636810431304D+03 -.677850177159385D+02 -.790704258316734D+02 -.176690364804370D+02
 0.156666866954554D+03 0.358691586050604D+02 0.129218967414067D+03 -.965158890508097D+01
 0.754055366376998D+03 -.684140988528512D+02 0.359616937792733D+03 0.659237942394609D+03
0.554230729156D-05 0.000000000000D+00 0.000000000000D+00 0.923217537181D-09 0.000000000000D+00  7 2 -2 24 -13 13 -24 21 0 0.11822977D+00 0.23917716D-01 0.11810280D+06 0.11810280D+06 0.11810280D+06 0.11158401D+01  1  2  2  1  7  1        2 0.369883234438D-03 0.100000000000D+01
-.307893490178D-06 0.000000000000D+00 -.212839193226D-07 0.923217537181D-09 0.000000000000D+00  7 2 -2 24 -13 13 -24 21 2 0.11822977D+00 0.23917716D-01 0.11810280D+06 0.11810280D+06 0.11810280D+06 0.11158401D+01  1  2  3  1  7  1        2 -.255845891947D-04 0.100000000000D+01
0.359210556921D-06 0.000000000000D+00 0.000000000000D+00 0.923217537181D-09 0.000000000000D+00  7 2 -2 24 -13 13 -24 21 2 0.11822977D+00 0.23917716D-01 0.11810280D+06 0.11810280D+06 0.11810280D+06 0.11158401D+01  1  2 15  1  7  1        2 0.298488107947D-04 0.100000000000D+01
-.326215142635D-05 0.000000000000D+00 -.182996385900D-05 0.923217537181D-09 0.000000000000D+00  7 2 -2 24 -13 13 -24 21 2 0.40269872D+00 0.23917716D-01 0.11810280D+06 0.11810280D+06 0.11810280D+06 0.11158401D+01  1  2  5  1  7  1        2 -.243236533943D-04 0.100000000000D+01
-.400443252115D-06 0.000000000000D+00 -.261173652513D-06 0.923217537181D-09 0.000000000000D+00  7 21 -2 24 -13 13 -24 -2 2 0.40269872D+00 0.23917716D-01 0.11810280D+06 0.11810280D+06 0.11810280D+06 0.11158401D+01  1  2  5  3  7  1        2 -.324675755922D-06 0.100000000000D+01
  </mgrwgt>
  </event>
  <event>
  8     66 0.26993063E-05 0.25211961E+03 0.75467711E-02 0.93698843E-01
        2 -1    0    0  501    0 0.00000000E+00 0.00000000E+00 0.17520676E+04 0.17520676E+04 0.32000000E+00 0.0000E+00 0.9000E+01
       -2 -1    0    0    0  501 0.00000000E+00 0.00000000E+00 -.19614387E+03 0.19614414E+03 0.32000000E+00 0.0000E+00 0.9000E+01
       25  2    1    2    0    0 -.35020178E+03 0.19773510E+03 0.21839908E+03 0.54838836E+03 0.30214430E+03 0.0000E+00 0.0000E+00
       23  2    1    2    0    0 0.35020178E+03 -.19773510E+03 0.13375246E+04 0.13998234E+04 0.93770640E+02 0.0000E+00 0.0000E+00
       24  1    3    3    0    0 -.32849435E+03 0.21288953E+03 0.11721982E+03 0.41645911E+03 0.80419002E+02 0.0000E+00 0.9000E+01
      -13  1    4    4    0    0 0.11708529E+03 -.79235238E+02 0.62597590E+03 0.64174218E+03 0.10565837E+00 0.0000E+00 0.9000E+01
       13  1    4    4    0    0 0.23311649E+03 -.11849986E+03 0.71154874E+03 0.75808122E+03 0.10565837E+00 0.0000E+00 0.9000E+01
      -24  1    3    3    0    0 -.21707435E+02 -.15154426E+02 0.10117926E+03 0.13192925E+03 0.80419002E+02 0.0000E+00 0.9000E+01
#aMCatNLO 1  0  0  1  2 0.18085098D+03 0.00000000D+00  -5  7  0 0.00000000D+00 0.00000000D+00 0.00000000D+00 0.00000000D+00 0.00000000D+00
  <mgrwgt>
 0.1091202393D-02    9    2    0
 0.586223173110931D+03 0.000000000000000D+00 0.000000000000000D+00 0.586223173110931D+03
 0.586223173110931D+03 0.000000000000000D+00 0.000000000000000D+00 -.586223173110931D+03
 0.536455615261506D+03 -.328494344997417D+03 0.212889526551593D+03 -.357892338532955D+03
 0.235643015591117D+03 0.117085144107519D+03 -.792351884267013D+02 0.188521841549413D+03
 0.315398060128518D+03 0.233116635912950D+03 -.118499912618385D+03 0.176324533468535D+03
 0.849496552407215D+02 -.217074350230522D+02 -.151544255065068D+02 -.695403648499295D+01
 0.000000000000000D+00 0.000000000000000D+00 0.000000000000000D+00 0.000000000000000D+00
 0.851314758250068D+03 0.000000000000000D+00 0.000000000000000D+00 0.851314758250068D+03
 0.624829733194579D+03 0.000000000000000D+00 0.000000000000000D+00 -.624829733194579D+03
 0.541759221574026D+03 -.372251507274857D+03 0.142750578132397D+03 -.357892338532955D+03
 0.239239996994750D+03 0.978129802171519D+02 -.110126801106293D+03 0.188521841549413D+03
 0.315603414297670D+03 0.207508720894078D+03 -.159547186645060D+03 0.176324533468535D+03
 0.897099361657973D+02 -.287956402891908D+02 -.265162057881931D+02 -.695403648499295D+01
 0.289831922412405D+03 0.957254464528175D+02 0.153439615407148D+03 0.226485025055489D+03
0.841660443506D-04 0.000000000000D+00 0.000000000000D+00 0.992552790160D-07 0.000000000000D+00  7 2 -2 24 -13 13 -24 21 0 0.26954888D+00 0.30176003D-01 0.19676712D+06 0.19676712D+06 0.19676712D+06 0.10983694D+01  1  2  2  1  7  1        2 0.992599626519D-03 0.100000000000D+01
-.423394421472D-05 0.000000000000D+00 -.323219771735D-06 0.992552790160D-07 0.000000000000D+00  7 2 -2 24 -13 13 -24 21 2 0.26954888D+00 0.30176003D-01 0.19676712D+06 0.19676712D+06 0.19676712D+06 0.10983694D+01  1  2  3  1  7  1        2 -.602391930246D-04 0.100000000000D+01
0.522792034676D-05 0.000000000000D+00 0.000000000000D+00 0.992552790160D-07 0.000000000000D+00  7 2 -2 24 -13 13 -24 21 2 0.26954888D+00 0.30176003D-01 0.19676712D+06 0.19676712D+06 0.19676712D+06 0.10983694D+01  1  2 15  1  7  1        2 0.743811649172D-04 0.100000000000D+01
0.838501526643D-04 0.000000000000D+00 0.000000000000D+00 0.992552790160D-07 0.000000000000D+00  7 2 -2 24 -13 13 -24 21 2 0.39716464D+00 0.30176003D-01 0.29487726D+06 0.29487726D+06 0.29487726D+06 0.10851057D+01  1  2 12  1  7  1        2 0.394163273305D-03 0.100000000000D+01
-.103369019078D-03 0.000000000000D+00 0.000000000000D+00 0.992552790160D-07 0.000000000000D+00  7 2 -2 24 -13 13 -24 21 2 0.26954888D+00 0.30176003D-01 0.19676712D+06 0.19676712D+06 0.19676712D+06 0.10983694D+01  1  2  4  1  7  1        2 -.147070107143D-02 0.100000000000D+01
-.117660893430D-03 0.000000000000D+00 -.292126755059D-04 0.992552790160D-07 0.000000000000D+00  7 2 -2 24 -13 13 -24 21 2 0.39895902D+00 0.30176003D-01 0.19676712D+06 0.19676712D+06 0.19676712D+06 0.10983694D+01  1  2  5  1  7  1        2 -.570739886990D-03 0.100000000000D+01
0.121746040110D-03 0.000000000000D+00 0.271023576480D-04 0.992552790160D-07 0.000000000000D+00  7 2 -2 24 -13 13 -24 21 2 0.26954888D+00 0.30176003D-01 0.19676712D+06 0.19676712D+06 0.19676712D+06 0.10983694D+01  1  2  6  1  7  1        2 0.173216340090D-02 0.100000000000D+01
0.390033590517D-05 0.000000000000D+00 0.000000000000D+00 0.992552790160D-07 0.000000000000D+00  7 21 -2 24 -13 13 -24 -2 2 0.39716464D+00 0.30176003D-01 0.29487726D+06 0.29487726D+06 0.29487726D+06 0.10851057D+01  1  2 12  3  7  1        2 0.196394495326D-05 0.100000000000D+01
-.454913027044D-05 0.000000000000D+00 -.137036882037D-05 0.992552790160D-07 0.000000000000D+00  7 21 -2 24 -13 13 -24 -2 2 0.39895902D+00 0.30176003D-01 0.19676712D+06 0.19676712D+06 0.19676712D+06 0.10983694D+01  1  2  5  3  7  1        2 -.238886642802D-05 0.100000000000D+01
  </mgrwgt>
  </event>
  <event>
  8     66 0.26993063E-05 0.26225160E+03 0.75467711E-02 0.99333122E-01
        2 -1    0    0  501    0 0.00000000E+00 0.00000000E+00 0.26855838E+03 0.26855857E+03 0.32000000E+00 0.0000E+00 0.9000E+01
       -2 -1    0    0    0  501 0.00000000E+00 0.00000000E+00 -.28462833E+03 0.28462851E+03 0.32000000E+00 0.0000E+00 0.9000E+01
       25  2    1    2    0    0 0.77704707E+02 -.16068889E+03 0.21043213E+01 0.35131142E+03 0.30258279E+03 0.0000E+00 0.0000E+00
       23  2    1    2    0    0 -.77704707E+02 0.16068889E+03 -.18174272E+02 0.20187567E+03 0.92544798E+02 0.0000E+00 0.0000E+00
       24  1    3    3    0    0 0.41348786E+02 0.57679746E+02 0.36473501E+02 0.11328816E+03 0.80419002E+02 0.0000E+00 0.9000E+01
      -11  1    4    4    0    0 -.30657633E+02 0.30313382E+02 0.32823946E+02 0.54186742E+02 0.51099893E-03 0.0000E+00 0.9000E+01
       11  1    4    4    0    0 -.47047074E+02 0.13037551E+03 -.50998218E+02 0.14768892E+03 0.51099893E-03 0.0000E+00 0.9000E+01
      -24  1    3    3    0    0 0.36355921E+02 -.21836863E+03 -.34369179E+02 0.23802326E+03 0.80419002E+02 0.0000E+00 0.9000E+01
#aMCatNLO 1  0  0  2  2 0.13465151D+03 0.00000000D+00  -5  7  0 0.00000000D+00 0.00000000D+00 0.00000000D+00 0.00000000D+00 0.00000000D+00
  <mgrwgt>
 0.9715091056D-03    3    2    0
 0.276476808899432D+03 0.000000000000000D+00 0.000000000000000D+00 0.276476808899432D+03
 0.276476808899432D+03 0.000000000000000D+00 0.000000000000000D+00 -.276476808899432D+03
 0.114395986170835D+03 0.413487861574960D+02 0.576797458500809D+02 0.397812832824572D+02
 0.551635503691585D+02 -.306576326705961D+02 0.303133822696907D+02 0.344125806026966D+02
 0.146269167906017D+03 -.470470742710623D+02 0.130375506405015D+03 -.467276108108232D+02
 0.237124913352852D+03 0.363559207841624D+02 -.218368634524787D+03 -.274662530743306D+02
 0.000000000000000D+00 -.000000000000000D+00 0.000000000000000D+00 0.000000000000000D+00
 0.828773698979999D+03 0.000000000000000D+00 0.000000000000000D+00 0.828773698979999D+03
 0.292885058969875D+03 0.000000000000000D+00 0.000000000000000D+00 -.292885058969875D+03
 0.127235882254490D+03 0.703220107338483D+02 0.565156446079968D+02 0.397812832824572D+02
 0.490196929879354D+02 -.181653876428642D+02 0.298114623706861D+02 0.344125806026966D+02
 0.137821585835369D+03 -.129827546022430D+02 0.129006852504144D+03 -.467276108108232D+02
 0.255035070776084D+03 0.953690875513946D+02 -.220739696142454D+03 -.274662530743306D+02
 0.552546526095995D+03 -.134542956040136D+03 0.540573665962692D+01 0.535888640010125D+03
0.129601544105D-04 0.000000000000D+00 0.000000000000D+00 0.225011766214D-07 0.000000000000D+00  7 2 -2 24 -11 11 -24 21 0 0.41316702D-01 0.43789002D-01 0.68775902D+05 0.68775902D+05 0.68775902D+05 0.11353115D+01  1  2  2  2  7  2       -2 0.960227994124D-03 0.100000000000D+01
-.717565943238D-06 0.000000000000D+00 -.497704054232D-07 0.225011766214D-07 0.000000000000D+00  7 2 -2 24 -11 11 -24 21 2 0.41316702D-01 0.43789002D-01 0.68775902D+05 0.68775902D+05 0.68775902D+05 0.11353115D+01  1  2  3  2  7  2       -2 -.685261126002D-04 0.100000000000D+01
0.835695238305D-06 0.000000000000D+00 0.000000000000D+00 0.225011766214D-07 0.000000000000D+00  7 2 -2 24 -11 11 -24 21 2 0.41316702D-01 0.43789002D-01 0.68775902D+05 0.68775902D+05 0.68775902D+05 0.11353115D+01  1  2 15  2  7  2       -2 0.798072240457D-04 0.100000000000D+01
  </mgrwgt>
  </event>
  <event>
  8     66 0.26993063E-05 0.10243634E+03 0.75467711E-02 0.99029615E-01
        2 -1    0    0  501    0 0.00000000E+00 0.00000000E+00 0.24700379E+03 0.24700400E+03 0.32000000E+00 0.0000E+00 0.9000E+01
       -2 -1    0    0    0  501 0.00000000E+00 0.00000000E+00 -.28158924E+03 0.28158942E+03 0.32000000E+00 0.0000E+00 0.9000E+01
       25  2    1    2    0    0 0.75365872E+02 -.10412788E+03 -.12355047E+03 0.34883936E+03 0.29983587E+03 0.0000E+00 0.0000E+00
       23  2    1    2    0    0 -.75365872E+02 0.10412788E+03 0.88965019E+02 0.17975406E+03 0.88736232E+02 0.0000E+00 0.0000E+00
       24  1    3    3    0    0 -.57579918E+01 0.76198638E+02 -.24954366E+02 0.11370718E+03 0.80419002E+02 0.0000E+00 0.9000E+01
      -13  1    4    4    0    0 -.69241975E+01 -.16834635E+00 -.15542090E+02 0.17015892E+02 0.10565837E+00 0.0000E+00 0.9000E+01
       13  1    4    4    0    0 -.68441674E+02 0.10429622E+03 0.10450711E+03 0.16273817E+03 0.10565837E+00 0.0000E+00 0.9000E+01
      -24  1    3    3    0    0 0.81123864E+02 -.18032651E+03 -.98596103E+02 0.23513218E+03 0.80419002E+02 0.0000E+00 0.9000E+01
#aMCatNLO 1  0  0  2  1 0.20023323D+03 0.00000000D+00  -5  7  0 0.00000000D+00 0.00000000D+00 0.00000000D+00 0.00000000D+00 0.00000000D+00
  <mgrwgt>
 0.7573072984D-03    7    2    0
 0.263730378759077D+03 0.000000000000000D+00 0.000000000000000D+00 0.263730378759077D+03
 0.263730378759077D+03 0.000000000000000D+00 0.000000000000000D+00 -.263730378759077D+03
 0.112315104572818D+03 -.575799131507217D+01 0.761986374793034D+02 -.175522062187559D+02
 0.160331209005070D+02 -.692411039526944D+01 -.168493283376279D+00 -.144599194692727D+02
 0.169940351608558D+03 -.684417629506925D+02 0.104296371339842D+03 0.115402405149908D+03
 0.229172180436271D+03 0.811238646610341D+02 -.180326515535769D+03 -.833902794618790D+02
 0.000000000000000D+00 -.000000000000000D+00 -.000000000000000D+00 -.000000000000000D+00
 0.313357847537623D+03 0.000000000000000D+00 0.000000000000000D+00 0.313357847537623D+03
 0.602699211388911D+03 0.000000000000000D+00 0.000000000000000D+00 -.602699211388911D+03
 0.125274900951906D+03 0.364283865578087D+02 0.871290856361323D+02 -.175522062187559D+02
 0.145889807013486D+02 -.148686337562072D+01 0.124029196107459D+01 -.144599194692727D+02
 0.166552728156198D+03 -.869419830370963D+01 0.119776905360528D+03 0.115402405149908D+03
 0.257771478161129D+03 0.167585368540478D+03 -.157924426677525D+03 -.833902794618790D+02
 0.351868970955952D+03 -.193832693418956D+03 -.502218562802094D+02 -.289341363851288D+03
0.106989486105D-04 0.000000000000D+00 0.000000000000D+00 0.312543309892D-06 0.000000000000D+00  7 2 -2 24 -13 13 -24 21 0 0.38000613D-01 0.43321452D-01 0.52000164D+05 0.52000164D+05 0.52000164D+05 0.11458000D+01  1  2  2  2  7  2       -2 0.886422372500D-03 0.100000000000D+01
-.579102087912D-06 0.000000000000D+00 -.410867797620D-07 0.312543309892D-06 0.000000000000D+00  7 2 -2 24 -13 13 -24 21 2 0.38000613D-01 0.43321452D-01 0.52000164D+05 0.52000164D+05 0.52000164D+05 0.11458000D+01  1  2  3  2  7  2       -2 -.629901144959D-04 0.100000000000D+01
0.688626306228D-06 0.000000000000D+00 0.000000000000D+00 0.312543309892D-06 0.000000000000D+00  7 2 -2 24 -13 13 -24 21 2 0.38000613D-01 0.43321452D-01 0.52000164D+05 0.52000164D+05 0.52000164D+05 0.11458000D+01  1  2 15  2  7  2       -2 0.749032869673D-04 0.100000000000D+01
0.222751763782D-06 0.000000000000D+00 0.000000000000D+00 0.312543309892D-06 0.000000000000D+00  7 2 -2 24 -13 13 -24 21 2 0.38000613D-01 0.98093942D-01 0.11909778D+06 0.11909778D+06 0.11909778D+06 0.11155460D+01  1  2 12  2  7  2       -2 0.407952552268D-05 0.100000000000D+01
-.604355624091D-05 0.000000000000D+00 -.317305720824D-05 0.312543309892D-06 0.000000000000D+00  7 2 -2 24 -13 13 -24 21 2 0.38000613D-01 0.11112984D+00 0.52000164D+05 0.52000164D+05 0.52000164D+05 0.11458000D+01  1  2  5  2  7  2       -2 -.877452832414D-04 0.100000000000D+01
0.197805724761D-07 0.000000000000D+00 0.000000000000D+00 0.312543309892D-06 0.000000000000D+00  7 2 21 24 -13 13 -24 2 2 0.38000613D-01 0.98093942D-01 0.11909778D+06 0.11909778D+06 0.11909778D+06 0.11155460D+01  1  2 12  4  7  2       -2 0.345062234058D-05 0.100000000000D+01
-.436319864660D-06 0.000000000000D+00 -.330432299674D-06 0.312543309892D-06 0.000000000000D+00  7 2 21 24 -13 13 -24 2 2 0.38000613D-01 0.11112984D+00 0.52000164D+05 0.52000164D+05 0.52000164D+05 0.11458000D+01  1  2  5  4  7  2       -2 -.608131112293D-04 0.100000000000D+01
  </mgrwgt>
  </event>
  <event>
  8     66 0.26993063E-05 0.21809938E+03 0.75467711E-02 0.10172662E+00
        2 -1    0    0  501    0 0.00000000E+00 0.00000000E+00 0.49532677E+03 0.49532687E+03 0.32000000E+00 0.0000E+00 0.9000E+01
       21 -1    0    0  502  501 0.00000000E+00 0.00000000E+00 -.85732088E+03 0.85732121E+03 0.75000000E+00 0.0000E+00 0.9000E+01
       23  2    1    2    0    0 -.19120086E+03 0.13183013E+03 -.27652913E+03 0.37068903E+03 0.83696146E+02 0.0000E+00 0.0000E+00
       24  1    1    2    0    0 0.12590997E+02 -.34965135E+02 0.32717974E+03 0.33896149E+03 0.80419002E+02 0.0000E+00 0.9000E+01
      -11  1    3    3    0    0 -.65986167E+02 0.16992291E+02 -.38561528E+02 0.78293701E+02 0.51099893E-03 0.0000E+00 0.9000E+01
       11  1    3    3    0    0 -.12521469E+03 0.11483784E+03 -.23796760E+03 0.29239533E+03 0.51099893E-03 0.0000E+00 0.9000E+01
      -24  1    1    2    0    0 0.87266890E+02 -.42593070E+02 0.73118258E+02 0.14575039E+03 0.80419002E+02 0.0000E+00 0.9000E+01
        2  1    1    2  502    0 0.91342973E+02 -.54271926E+02 -.48576298E+03 0.49724718E+03 0.32000000E+00 0.0000E+00 0.9000E+01
#aMCatNLO 2  0  0  2  1 0.10624961D+03 0.00000000D+00  -5  7  0 0.00000000D+00 0.00000000D+00 0.00000000D+00 0.00000000D+00 0.00000000D+00
  <mgrwgt>
 0.2167270868D-05    2    2    0
 0.419852054235817D+03 0.000000000000000D+00 0.000000000000000D+00 0.419852054235817D+03
 0.419852054235817D+03 0.000000000000000D+00 0.000000000000000D+00 -.419852054235817D+03
 0.300702375970930D+03 0.448475664299032D+02 -.541305522474975D+02 0.281093013180492D+03
 0.771648504429939D+02 -.572137680169317D+02 0.117801218721413D+02 -.504205079493637D+02
 0.311893500287539D+03 -.904243433927968D+02 0.941669645410047D+02 -.283255320219634D+03
 0.149943381770171D+03 0.102790544979825D+03 -.518165341656486D+02 0.525828149885060D+02
 0.000000000000000D+00 0.000000000000000D+00 -.000000000000000D+00 -.000000000000000D+00
 0.428163163538465D+03 0.000000000000000D+00 0.000000000000000D+00 0.428163163538465D+03
 0.991804580787825D+03 0.000000000000000D+00 0.000000000000000D+00 -.991804580787825D+03
 0.294722906987412D+03 0.125909969766206D+02 -.349651352776785D+02 0.281093013180492D+03
 0.847652037796131D+02 -.659861668217885D+02 0.169922905487925D+02 -.504205079493637D+02
 0.330302929834861D+03 -.125214692986236D+03 0.114837840824043D+03 -.283255320219634D+03
 0.136608374834421D+03 0.872668900336465D+02 -.425930697681092D+02 0.525828149885060D+02
 0.573568328889983D+03 0.913429727977576D+02 -.542719263270480D+02 -.563641417249360D+03
-.108640557012D-06 0.000000000000D+00 0.000000000000D+00 0.474156813961D-11 0.000000000000D+00  7 2 21 24 -11 11 -24 2 2 0.74724939D-01 0.13162724D+00 0.78110022D+05 0.78110022D+05 0.78110022D+05 0.11306345D+01  1  2 13  4  7  2       -2 -.434850895759D-05 0.100000000000D+01
0.167310230398D-06 0.000000000000D+00 0.000000000000D+00 0.474156813961D-11 0.359848141874D-15  7 2 21 24 -11 11 -24 2 2 0.76204143D-01 0.13189554D+00 0.78110022D+05 0.78110022D+05 0.78110022D+05 0.11306345D+01  1  2  1  4  7  2       -2 0.651577982594D-05 0.100000000000D+01
  </mgrwgt>
  </event>
  <event>
  8     66 -.26993063E-05 0.24455526E+03 0.75467711E-02 0.99342385E-01
        2 -1    0    0  501    0 0.00000000E+00 0.00000000E+00 0.17479371E+04 0.17479371E+04 0.32000000E+00 0.0000E+00 0.9000E+01
       -2 -1    0    0    0  501 0.00000000E+00 0.00000000E+00 -.45728396E+03 0.45728407E+03 0.32000000E+00 0.0000E+00 0.9000E+01
       25  2    1    2    0    0 0.18819212E+03 0.18891927E+03 -.35476127E+03 0.53587877E+03 0.30033937E+03 0.0000E+00 0.0000E+00
       23  2    1    2    0    0 -.18819212E+03 -.18891927E+03 0.16454144E+04 0.16693424E+04 0.90602240E+02 0.0000E+00 0.0000E+00
       24  1    3    3    0    0 0.16745223E+03 0.23416111E+03 -.31206105E+03 0.43211224E+03 0.80419002E+02 0.0000E+00 0.9000E+01
      -11  1    4    4    0    0 -.12006043E+02 0.87595455E+01 0.14310146E+03 0.14387113E+03 0.51099893E-03 0.0000E+00 0.9000E+01
       11  1    4    4    0    0 -.17618608E+03 -.19767881E+03 0.15023129E+04 0.15254713E+04 0.51099893E-03 0.0000E+00 0.9000E+01
      -24  1    3    3    0    0 0.20739899E+02 -.45241847E+02 -.42700224E+02 0.10376653E+03 0.80419002E+02 0.0000E+00 0.9000E+01
#aMCatNLO 1  0  0  1  2 0.60599621D+02 0.00000000D+00  -5  7  0 0.00000000D+00 0.00000000D+00 0.00000000D+00 0.00000000D+00 0.00000000D+00
  <mgrwgt>
 -.5740328542D-04    1    2    0
 0.894037885577394D+03 0.000000000000000D+00 0.000000000000000D+00 0.894037885577394D+03
 0.894037885577394D+03 0.000000000000000D+00 0.000000000000000D+00 -.894037885577394D+03
 0.758170126681760D+03 0.167452225270084D+03 0.234161114117271D+03 -.696766137183575D+03
 0.741430096949407D+02 -.120060427460938D+02 0.875954546595483D+01 0.726382212573582D+02
 0.796966605674038D+03 -.176186081040943D+03 -.197678812205753D+03 0.751689645140835D+03
 0.158796029104050D+03 0.207398985169530D+02 -.452418473774729D+02 -.127561729214618D+03
 0.000000000000000D+00 0.000000000000000D+00 0.000000000000000D+00 -.000000000000000D+00
 0.917642247568713D+03 0.000000000000000D+00 0.000000000000000D+00 0.917642247568713D+03
 0.920170733990891D+03 0.000000000000000D+00 0.000000000000000D+00 -.920170733990891D+03
 0.751490120496200D+03 0.164732950042057D+03 0.213659051981758D+03 -.696766137183575D+03
 0.739761405465083D+02 -.122728423367970D+02 0.674800145968837D+01 0.726382212573582D+02
 0.803270829126350D+03 -.179068508410643D+03 -.219410965106501D+03 0.751689645140835D+03
 0.160009967150325D+03 0.201656492779064D+02 -.495714177934652D+02 -.127561729214618D+03
 0.490659242402205D+02 0.644275142747595D+01 0.485753294585191D+02 -.252848642217766D+01
-.195128025378D-04 0.000000000000D+00 0.000000000000D+00 0.242107472409D-04 0.000000000000D+00  7 2 -2 24 -11 11 -24 21 2 0.26891341D+00 0.70351389D-01 0.11327619D+06 0.11327619D+06 0.11327619D+06 0.11173062D+01  1  2 14  1  7  1        2 -.574032854183D-04 0.100000000000D+01
  </mgrwgt>
  </event>
  <event>
  8     66 0.26993063E-05 0.45065805E+03 0.75467711E-02 0.83259389E-01
        2 -1    0    0  501    0 0.00000000E+00 0.00000000E+00 0.41906624E+03 0.41906636E+03 0.32000000E+00 0.0000E+00 0.9000E+01
       -2 -1    0    0    0  501 0.00000000E+00 0.00000000E+00 -.51372061E+03 0.51372071E+03 0.32000000E+00 0.0000E+00 0.9000E+01
       25  2    1    2    0    0 -.65363678E+02 -.39050765E+03 -.15816349E+03 0.52141284E+03 0.30014500E+03 0.0000E+00 0.0000E+00
       23  2    1    2    0    0 0.65363678E+02 0.39050765E+03 0.63509126E+02 0.41137423E+03 0.91797145E+02 0.0000E+00 0.0000E+00
       24  1    3    3    0    0 -.14145804E+03 -.33281584E+03 -.10024048E+03 0.38378657E+03 0.80419002E+02 0.0000E+00 0.9000E+01
      -13  1    4    4    0    0 -.81639923E+01 0.22208453E+03 0.44219766E+02 0.22659124E+03 0.10565837E+00 0.0000E+00 0.9000E+01
       13  1    4    4    0    0 0.73527671E+02 0.16842312E+03 0.19289360E+02 0.18478300E+03 0.10565837E+00 0.0000E+00 0.9000E+01
      -24  1    3    3    0    0 0.76094366E+02 -.57691814E+02 -.57923017E+02 0.13762627E+03 0.80419002E+02 0.0000E+00 0.9000E+01
#aMCatNLO 1  0  0  2  2 0.14410380D+04 0.00000000D+00  -5  7  0 0.00000000D+00 0.00000000D+00 0.00000000D+00 0.00000000D+00 0.00000000D+00
  <mgrwgt>
 0.1773904073D-03    5    2    0
 0.463986063954605D+03 0.000000000000000D+00 0.000000000000000D+00 0.463986063954605D+03
 0.463986063954605D+03 0.000000000000000D+00 0.000000000000000D+00 -.463986063954605D+03
 0.375553250437097D+03 -.141458044450474D+03 -.332815837352533D+03 -.616138622963886D+02
 0.232277478695489D+03 -.816410045691060D+01 0.222084603637174D+03 0.675618487031138D+02
 0.187709256023140D+03 0.735277787158004D+02 0.168423047795507D+03 0.382375146309639D+02
 0.132432142753485D+03 0.760943661915842D+02 -.576918140801483D+02 -.441855010376891D+02
 0.000000000000000D+00 0.000000000000000D+00 0.000000000000000D+00 -.000000000000000D+00
 0.999440474220931D+03 0.000000000000000D+00 0.000000000000000D+00 0.999440474220931D+03
 0.450137921829497D+04 0.000000000000000D+00 0.000000000000000D+00 -.450137921829497D+04
 0.115860385994249D+04 -.844358448592243D+03 -.786866081733793D+03 -.616138622963886D+02
 0.252539831749107D+03 -.230291470033886D+03 0.785977229270433D+02 0.675618487031138D+02
 0.108877514297647D+03 -.623585391268373D+02 0.806450134382030D+02 0.382375146309639D+02
 0.193957405067157D+03 -.734466055371945D+02 -.154290299951510D+03 -.441855010376891D+02
 0.378684108145950D+04 0.121045506329016D+04 0.781913645320057D+03 -.350193874407404D+04
0.131170540342D-04 0.000000000000D+00 0.000000000000D+00 0.536792145940D-06 0.000000000000D+00  7 2 -2 24 -13 13 -24 21 0 0.64471746D-01 0.79033957D-01 0.20309268D+06 0.20309268D+06 0.20309268D+06 0.10973139D+01  1  2  2  2  7  2       -2 0.175533446739D-03 0.100000000000D+01
-.727972573498D-06 0.000000000000D+00 -.503729412909D-07 0.536792145940D-06 0.000000000000D+00  7 2 -2 24 -13 13 -24 21 2 0.64471746D-01 0.79033957D-01 0.20309268D+06 0.20309268D+06 0.20309268D+06 0.10973139D+01  1  2  3  2  7  2       -2 -.117300635460D-04 0.100000000000D+01
0.843051468943D-06 0.000000000000D+00 0.000000000000D+00 0.536792145940D-06 0.000000000000D+00  7 2 -2 24 -13 13 -24 21 2 0.64471746D-01 0.79033957D-01 0.20309268D+06 0.20309268D+06 0.20309268D+06 0.10973139D+01  1  2 15  2  7  2       -2 0.135843679601D-04 0.100000000000D+01
0.332595801395D-05 0.000000000000D+00 -.902575569904D-05 0.536792145940D-06 0.000000000000D+00  7 2 -2 24 -13 13 -24 21 2 0.64471746D-01 0.82674667D+00 0.20309268D+06 0.20309268D+06 0.20309268D+06 0.10973139D+01  1  2  5  2  7  2       -2 0.269331286797D-08 0.100000000000D+01
-.584504671656D-06 0.000000000000D+00 -.250885904922D-05 0.536792145940D-06 0.000000000000D+00  7 2 21 24 -13 13 -24 2 2 0.64471746D-01 0.82674667D+00 0.20309268D+06 0.20309268D+06 0.20309268D+06 0.10973139D+01  1  2  5  4  7  2       -2 -.371284637115D-10 0.100000000000D+01
  </mgrwgt>
  </event>
  <event>
  8     66 0.26993063E-05 0.17759449E+03 0.75467711E-02 0.94715675E-01
        2 -1    0    0  501    0 0.00000000E+00 0.00000000E+00 0.30077614E+04 0.30077614E+04 0.32000000E+00 0.0000E+00 0.9000E+01
       -2 -1    0    0    0  501 0.00000000E+00 0.00000000E+00 -.22959438E+03 0.22959461E+03 0.32000000E+00 0.0000E+00 0.9000E+01
       25  2    1    2    0    0 -.24747813E+03 -.39184549E+02 0.29124332E+04 0.29377514E+04 0.29212268E+03 0.0000E+00 0.0000E+00
       23  2    1    2    0    0 0.24747813E+03 0.39184549E+02 -.13426617E+03 0.29960457E+03 0.94628961E+02 0.0000E+00 0.0000E+00
       24  1    3    3    0    0 -.72039060E+01 0.44361223E+02 0.13122575E+04 0.13154873E+04 0.80419002E+02 0.0000E+00 0.9000E+01
      -13  1    4    4    0    0 0.66129391E+02 0.11120008E+01 0.71230757E+01 0.66521292E+02 0.10565837E+00 0.0000E+00 0.9000E+01
       13  1    4    4    0    0 0.18134873E+03 0.38072548E+02 -.14138925E+03 0.23308328E+03 0.10565837E+00 0.0000E+00 0.9000E+01
      -24  1    3    3    0    0 -.24027422E+03 -.83545772E+02 0.16001756E+04 0.16222641E+04 0.80419002E+02 0.0000E+00 0.9000E+01
#aMCatNLO 1  0  0  2  1 0.29058396D+03 0.00000000D+00  -5  7  0 0.00000000D+00 0.00000000D+00 0.00000000D+00 0.00000000D+00 0.00000000D+00
  <mgrwgt>
 0.1307092211D-02    9    2    0
 0.831002712663994D+03 0.000000000000000D+00 0.000000000000000D+00 0.831002712663994D+03
 0.831002712663994D+03 0.000000000000000D+00 0.000000000000000D+00 -.831002712663994D+03
 0.368849684908108D+03 -.720390600328859D+01 0.443612228875770D+02 0.357159711816233D+03
 0.117666778587281D+03 0.661292475176935D+02 0.111195475858139D+01 -.973198693097493D+02
 0.690357363659491D+03 0.181348878719953D+03 0.380725945484314D+02 -.665023571980910D+03
 0.485131598173109D+03 -.240274220234358D+03 -.835457721945898D+02 0.405183729474427D+03
 0.000000000000000D+00 -.000000000000000D+00 -.000000000000000D+00 -.000000000000000D+00
 0.974212568773932D+03 0.000000000000000D+00 0.000000000000000D+00 0.974212568773932D+03
 0.100524017195244D+04 0.000000000000000D+00 0.000000000000000D+00 -.100524017195244D+04
 0.374503645222715D+03 0.563776178978716D+02 0.551748927161426D+02 0.357159711816233D+03
 0.130882621621551D+03 0.873885181625370D+02 0.472763930723782D+01 -.973198693097493D+02
 0.733203793298798D+03 0.303110878104522D+03 0.587813473153136D+02 -.665023571980910D+03
 0.448626900636388D+03 -.160406698420043D+03 -.699622504742177D+02 0.405183729474427D+03
 0.292235779946924D+03 -.286470315744888D+03 -.487216288644764D+02 -.310276031785121D+02
0.811350874549D-03 0.000000000000D+00 0.000000000000D+00 0.120579291100D-07 0.000000000000D+00  7 2 -2 24 -13 13 -24 21 0 0.46273254D+00 0.35322231D-01 0.93134692D+05 0.93134692D+05 0.93134692D+05 0.11242657D+01  1  2  2  2  7  2       -2 0.145238615133D-02 0.100000000000D+01
0.991965138324D-05 0.000000000000D+00 -.311580099186D-05 0.120579291100D-07 0.000000000000D+00  7 2 -2 24 -13 13 -24 21 2 0.46273254D+00 0.35322231D-01 0.93134692D+05 0.93134692D+05 0.93134692D+05 0.11242657D+01  1  2  3  2  7  2       -2 0.224443836628D-04 0.100000000000D+01
0.500966127608D-04 0.000000000000D+00 0.000000000000D+00 0.120579291100D-07 0.000000000000D+00  7 2 -2 24 -13 13 -24 21 2 0.46273254D+00 0.35322231D-01 0.93134692D+05 0.93134692D+05 0.93134692D+05 0.11242657D+01  1  2 15  2  7  2       -2 0.113349507313D-03 0.100000000000D+01
0.119268052691D-05 0.000000000000D+00 0.000000000000D+00 0.120579291100D-07 0.000000000000D+00  7 2 -2 24 -13 13 -24 21 2 0.46273254D+00 0.45215396D-01 0.24606619D+06 0.24606619D+06 0.24606619D+06 0.10909777D+01  1  2 12  2  7  2       -2 0.149426441854D-05 0.100000000000D+01
-.327027691768D-03 0.000000000000D+00 0.000000000000D+00 0.120579291100D-07 0.000000000000D+00  7 2 -2 24 -13 13 -24 21 2 0.46273254D+00 0.35322231D-01 0.93134692D+05 0.93134692D+05 0.93134692D+05 0.11242657D+01  1  2  4  2  7  2       -2 -.739938804178D-03 0.100000000000D+01
0.640499773834D-05 0.000000000000D+00 -.312707503239D-03 0.120579291100D-07 0.000000000000D+00  7 2 -2 24 -13 13 -24 21 2 0.46273254D+00 0.54409363D-01 0.93134692D+05 0.93134692D+05 0.93134692D+05 0.11242657D+01  1  2  5  2  7  2       -2 0.637819003465D-05 0.100000000000D+01
0.142279614040D-03 0.000000000000D+00 0.285634283852D-03 0.120579291100D-07 0.000000000000D+00  7 2 -2 24 -13 13 -24 21 2 0.46273254D+00 0.35322231D-01 0.93134692D+05 0.93134692D+05 0.93134692D+05 0.11242657D+01  1  2  6  2  7  2       -2 0.321924442858D-03 0.100000000000D+01
0.399969826175D-07 0.000000000000D+00 0.000000000000D+00 0.120579291100D-07 0.000000000000D+00  7 2 21 24 -13 13 -24 2 2 0.46273254D+00 0.45215396D-01 0.24606619D+06 0.24606619D+06 0.24606619D+06 0.10909777D+01  1  2 12  4  7  2       -2 0.535898018807D-06 0.100000000000D+01
0.121402764776D-04 0.000000000000D+00 -.157585458039D-04 0.120579291100D-07 0.000000000000D+00  7 2 21 24 -13 13 -24 2 2 0.46273254D+00 0.54409363D-01 0.93134692D+05 0.93134692D+05 0.93134692D+05 0.11242657D+01  1  2  5  4  7  2       -2 0.128518177450D-03 0.100000000000D+01
  </mgrwgt>
  </event>
  <event>
  8     66 0.26993063E-05 0.97405353E+02 0.75467711E-02 0.10107679E+00
        2 -1    0    0  501    0 0.00000000E+00 0.00000000E+00 0.48072621E+03 0.48072631E+03 0.32000000E+00 0.0000E+00 0.9000E+01
       -2 -1    0    0    0  501 0.00000000E+00 0.00000000E+00 -.25189312E+03 0.25189333E+03 0.32000000E+00 0.0000E+00 0.9000E+01
       25  2    1    2    0    0 -.19089183E+03 -.82139041E+02 -.55860430E+02 0.36838135E+03 0.29899485E+03 0.0000E+00 0.0000E+00
       23  2    1    2    0    0 0.19089183E+03 0.82139041E+02 0.28469351E+03 0.36423829E+03 0.91829326E+02 0.0000E+00 0.0000E+00
       24  1    3    3    0    0 -.16131861E+03 -.15132041E+03 -.91681769E+02 0.25257538E+03 0.80419002E+02 0.0000E+00 0.9000E+01
      -11  1    4    4    0    0 0.20066199E+03 0.76878979E+02 0.26101956E+03 0.33809292E+03 0.51099893E-03 0.0000E+00 0.9000E+01
       11  1    4    4    0    0 -.97701652E+01 0.52600620E+01 0.23673950E+02 0.26145368E+02 0.51099893E-03 0.0000E+00 0.9000E+01
      -24  1    3    3    0    0 -.29573219E+02 0.69181372E+02 0.35821339E+02 0.11580597E+03 0.80419002E+02 0.0000E+00 0.9000E+01
#aMCatNLO 1  0  0  1  2 0.15560683D+02 0.00000000D+00  -5  7  0 0.00000000D+00 0.00000000D+00 0.00000000D+00 0.00000000D+00 0.00000000D+00
  <mgrwgt>
 0.1290961570D-02    9    2    0
 0.347982382035218D+03 0.000000000000000D+00 0.000000000000000D+00 0.347982382035218D+03
 0.347982382035218D+03 0.000000000000000D+00 0.000000000000000D+00 -.347982382035218D+03
 0.296022896571156D+03 -.161318606308429D+03 -.151320412991171D+03 -.179557175325562D+03
 0.270076320543945D+03 0.200661990277476D+03 0.768789790665237D+02 0.163601977842956D+03
 0.197383949109659D+02 -.977016522974863D+01 0.526006196862336D+01 0.163242106434246D+02
 0.110127152044369D+03 -.295732187392981D+02 0.691813719560239D+02 -.369013160818170D+00
 0.000000000000000D+00 -.000000000000000D+00 0.000000000000000D+00 0.000000000000000D+00
 0.357087766670932D+03 0.000000000000000D+00 0.000000000000000D+00 0.357087766670932D+03
 0.354781581598705D+03 0.000000000000000D+00 0.000000000000000D+00 -.354781581598705D+03
 0.295727223774825D+03 -.156445406232629D+03 -.155792909289890D+03 -.179557175325562D+03
 0.272286966514245D+03 0.205128478277610D+03 0.727797525340300D+02 0.163601977842956D+03
 0.195028667196970D+02 -.944700429985947D+01 0.496347327118875D+01 0.163242106434246D+02
 0.108621641583197D+03 -.277717714712118D+02 0.675280505012239D+02 -.369013160818170D+00
 0.157306496776735D+02 -.114642962739093D+02 0.105216329834470D+02 0.230618507222649D+01
0.111939180521D-04 0.000000000000D+00 0.000000000000D+00 0.478417747674D-06 0.000000000000D+00  7 2 -2 24 -11 11 -24 21 0 0.73957902D-01 0.38752812D-01 0.81640487D+05 0.81640487D+05 0.81640487D+05 0.11290237D+01  1  2  2  1  7  1        2 0.551894306649D-03 0.100000000000D+01
-.592506804652D-06 0.000000000000D+00 -.429875927462D-07 0.478417747674D-06 0.000000000000D+00  7 2 -2 24 -11 11 -24 21 2 0.73957902D-01 0.38752812D-01 0.81640487D+05 0.81640487D+05 0.81640487D+05 0.11290237D+01  1  2  3  1  7  1        2 -.372368770503D-04 0.100000000000D+01
0.699452413667D-06 0.000000000000D+00 0.000000000000D+00 0.478417747674D-06 0.000000000000D+00  7 2 -2 24 -11 11 -24 21 2 0.73957902D-01 0.38752812D-01 0.81640487D+05 0.81640487D+05 0.81640487D+05 0.11290237D+01  1  2 15  1  7  1        2 0.439580158840D-04 0.100000000000D+01
0.203401148871D-04 0.000000000000D+00 0.000000000000D+00 0.478417747674D-06 0.000000000000D+00  7 2 -2 24 -11 11 -24 21 2 0.76599161D-01 0.38752812D-01 0.86285090D+05 0.86285090D+05 0.86285090D+05 0.11270175D+01  1  2 12  1  7  1        2 0.122454473857D-02 0.100000000000D+01
-.171586659394D-04 0.000000000000D+00 0.000000000000D+00 0.478417747674D-06 0.000000000000D+00  7 2 -2 24 -11 11 -24 21 2 0.73957902D-01 0.38752812D-01 0.81640487D+05 0.81640487D+05 0.81640487D+05 0.11290237D+01  1  2  4  1  7  1        2 -.107835914949D-02 0.100000000000D+01
-.230975031470D-03 0.000000000000D+00 -.360032519708D-04 0.478417747674D-06 0.000000000000D+00  7 2 -2 24 -11 11 -24 21 2 0.77136491D-01 0.38752812D-01 0.81640487D+05 0.81640487D+05 0.81640487D+05 0.11290237D+01  1  2  5  1  7  1        2 -.138538118714D-01 0.100000000000D+01
0.232316198078D-03 0.000000000000D+00 0.359713988699D-04 0.478417747674D-06 0.000000000000D+00  7 2 -2 24 -11 11 -24 21 2 0.73957902D-01 0.38752812D-01 0.81640487D+05 0.81640487D+05 0.81640487D+05 0.11290237D+01  1  2  6  1  7  1        2 0.146002200088D-01 0.100000000000D+01
0.329962395233D-06 0.000000000000D+00 0.000000000000D+00 0.478417747674D-06 0.000000000000D+00  7 21 -2 24 -11 11 -24 -2 2 0.76599161D-01 0.38752812D-01 0.86285090D+05 0.86285090D+05 0.86285090D+05 0.11270175D+01  1  2 12  3  7  1        2 0.393740001528D-04 0.100000000000D+01
-.169003599174D-05 0.000000000000D+00 -.266968061484D-06 0.478417747674D-06 0.000000000000D+00  7 21 -2 24 -11 11 -24 -2 2 0.77136491D-01 0.38752812D-01 0.81640487D+05 0.81640487D+05 0.81640487D+05 0.11290237D+01  1  2  5  3  7  1        2 -.199621602355D-03 0.100000000000D+01
  </mgrwgt>
  </event>
</LesHouchesEvents>
