<event>
12    2  0.3555611E-008  0.4049285E+04  0.7818608E-02  0.7994677E-01
         -1   -1    0    0    0  501 -0.00000000000E+00  0.00000000000E+00  0.14883184965E+04  0.14883184965E+04  0.00000000000E+00 0.  1.
          1   -1    0    0  501    0  0.00000000000E+00 -0.00000000000E+00 -0.27542332869E+04  0.27542332869E+04  0.00000000000E+00 0. -1.
         23    2    1    2    0    0 -0.75243985356E+03 -0.16589935186E+04 -0.12525425750E+04  0.22125394789E+04  0.89681746599E+02 0.  0.
        254    2    1    2    0    0  0.75243985356E+03  0.16589935186E+04 -0.13372215359E+02  0.20300123045E+04  0.89573763599E+03 0.  0.
         23    2    4    4    0    0 -0.12546636104E+03  0.29014001429E+03  0.20332980670E+03  0.38694856027E+03  0.91995338781E+02 0.  0.
         23    2    4    4    0    0  0.87790621459E+03  0.13688535043E+04 -0.21670202206E+03  0.16430637443E+04  0.90661257124E+02 0.  0.
          4    1    3    3  502    0 -0.31766600694E+03 -0.70450954997E+03 -0.58533603884E+03  0.96946566537E+03  0.00000000000E+00 0.  1.
         -4    1    3    3    0  502 -0.43477384662E+03 -0.95448396860E+03 -0.66720653613E+03  0.12430738135E+04  0.00000000000E+00 0. -1.
         11    1    5    5    0    0  0.12373663051E+02  0.10000744080E+02  0.35934040238E+01  0.16310578528E+02  0.00000000000E+00 0.  1.
        -11    1    5    5    0    0 -0.13784002409E+03  0.28013927021E+03  0.19973640268E+03  0.37063798175E+03  0.00000000000E+00 0. -1.
          4    1    6    6  503    0  0.50695963625E+03  0.86254681727E+03 -0.15412865920E+03  0.10122997226E+04  0.00000000000E+00 0. -1.
         -4    1    6    6    0  503  0.37094657835E+03  0.50630668700E+03 -0.62573362861E+02  0.63076402167E+03  0.00000000000E+00 0.  1.
<mgrwt>
<rscale>  0 0.40492846E+04</rscale>
<asrwt>0</asrwt>
<pdfrwt beam="1">  1        1 0.42372820E+00 0.40492846E+04</pdfrwt>
<pdfrwt beam="2">  1       -1 0.22897208E+00 0.40492846E+04</pdfrwt>
<totfact> 0.67133362E-02</totfact>
</mgrwt>
</event>
<event>
12    2  0.3555611E-008  0.1406779E+04  0.7818608E-02  0.8948926E-01
          2   -1    0    0  501    0  0.00000000000E+00  0.00000000000E+00  0.27026048646E+04  0.27026048646E+04  0.00000000000E+00 0. -1.
         -2   -1    0    0    0  501 -0.00000000000E+00 -0.00000000000E+00 -0.18306672535E+03  0.18306672535E+03  0.00000000000E+00 0.  1.
         23    2    1    2    0    0  0.60880727249E+02  0.27985994838E+03  0.15082408491E+03  0.33630286846E+03  0.91234100447E+02 0.  0.
        254    2    1    2    0    0 -0.60880727249E+02 -0.27985994838E+03  0.23687140543E+04  0.25493687215E+04  0.89802369301E+03 0.  0.
         23    2    4    4    0    0 -0.23141965912E+03  0.15456449961E+03  0.27501806310E+03  0.40241191428E+03  0.94101915784E+02 0.  0.
         23    2    4    4    0    0  0.17053893187E+03 -0.43442444799E+03  0.20936959912E+04  0.21469568072E+04  0.89735723118E+02 0.  0.
          1    1    3    3  502    0  0.63090302567E+02  0.24399696021E+03  0.93817501185E+02  0.26891750853E+03  0.00000000000E+00 0. -1.
         -1    1    3    3    0  502 -0.22095753180E+01  0.35862988176E+02  0.57006583722E+02  0.67385359921E+02  0.00000000000E+00 0.  1.
         11    1    5    5    0    0 -0.57279203303E+02 -0.50982065760E+01  0.52715178420E+02  0.78011466318E+02  0.00000000000E+00 0.  1.
        -11    1    5    5    0    0 -0.17414045582E+03  0.15966270619E+03  0.22230288468E+03  0.32440044796E+03  0.00000000000E+00 0. -1.
          2    1    6    6  503    0  0.15771723000E+03 -0.29749514795E+03  0.15479717846E+04  0.15841700457E+04  0.00000000000E+00 0. -1.
         -2    1    6    6    0  503  0.12821701867E+02 -0.13692930005E+03  0.54572420658E+03  0.56278676148E+03  0.00000000000E+00 0.  1.
<mgrwt>
<rscale>  0 0.14067793E+04</rscale>
<asrwt>0</asrwt>
<pdfrwt beam="1">  1        2 0.41578534E+00 0.14067793E+04</pdfrwt>
<pdfrwt beam="2">  1       -2 0.28164113E-01 0.14067793E+04</pdfrwt>
<totfact> 0.29848429E+01</totfact>
</mgrwt>
</event>
<event>
12    2  0.3555611E-008  0.2185043E+04  0.7818608E-02  0.8524680E-01
          1   -1    0    0  501    0  0.00000000000E+00  0.00000000000E+00  0.25987744125E+04  0.25987744125E+04  0.00000000000E+00 0. -1.
         -1   -1    0    0    0  501 -0.00000000000E+00 -0.00000000000E+00 -0.45929455651E+03  0.45929455651E+03  0.00000000000E+00 0.  1.
         23    2    1    2    0    0 -0.81047802122E+03  0.39280703039E+03  0.78526784856E+03  0.11984193165E+04  0.91603920613E+02 0.  0.
        254    2    1    2    0    0  0.81047802122E+03 -0.39280703039E+03  0.13542120074E+04  0.18596496524E+04  0.90179525549E+03 0.  0.
         23    2    4    4    0    0  0.43471973617E+01 -0.30524000806E+02  0.81466818242E+03  0.82020970980E+03  0.90050584988E+02 0.  0.
         23    2    4    4    0    0  0.80613082386E+03 -0.36228302958E+03  0.53954382497E+03  0.10394399426E+04  0.90730130422E+02 0.  0.
          3    1    3    3  502    0 -0.54418513105E+03  0.21867002129E+03  0.53053007112E+03  0.79083259381E+03  0.00000000000E+00 0. -1.
         -3    1    3    3    0  502 -0.26629289017E+03  0.17413700910E+03  0.25473777744E+03  0.40758672273E+03  0.00000000000E+00 0.  1.
         11    1    5    5    0    0 -0.60043963849E+01 -0.51050331980E+02  0.25819823593E+03  0.26326511013E+03  0.00000000000E+00 0. -1.
        -11    1    5    5    0    0  0.10351593747E+02  0.20526331174E+02  0.55646994648E+03  0.55694459967E+03  0.00000000000E+00 0.  1.
          1    1    6    6  503    0  0.74334141656E+03 -0.34132121872E+03  0.52411529831E+03  0.97146975344E+03  0.00000000000E+00 0. -1.
         -1    1    6    6    0  503  0.62789407298E+02 -0.20961810863E+02  0.15428526660E+02  0.67970189189E+02  0.00000000000E+00 0.  1.
<mgrwt>
<rscale>  0 0.21850427E+04</rscale>
<asrwt>0</asrwt>
<pdfrwt beam="1">  1        1 0.39981144E+00 0.21850427E+04</pdfrwt>
<pdfrwt beam="2">  1       -1 0.70660702E-01 0.21850427E+04</pdfrwt>
<totfact> 0.21362704E+00</totfact>
</mgrwt>
</event>
<event>
12    2  0.3555611E-008  0.2091384E+04  0.7818608E-02  0.8565048E-01
         -1   -1    0    0    0  501 -0.00000000000E+00  0.00000000000E+00  0.58183012565E+03  0.58183012565E+03  0.00000000000E+00 0.  1.
          1   -1    0    0  501    0  0.00000000000E+00 -0.00000000000E+00 -0.18793667397E+04  0.18793667397E+04  0.00000000000E+00 0. -1.
         23    2    1    2    0    0 -0.49828834874E+03 -0.68605269426E+03 -0.59051446100E+03  0.10371925373E+04  0.90008072305E+02 0.  0.
        254    2    1    2    0    0  0.49828834874E+03  0.68605269426E+03 -0.70702215307E+03  0.14240043280E+04  0.89941560111E+03 0.  0.
         23    2    4    4    0    0 -0.14883353479E+03  0.94830884930E+02 -0.47161260741E+03  0.51164410068E+03  0.90647208884E+02 0.  0.
         23    2    4    4    0    0  0.64712188352E+03  0.59122180933E+03 -0.23540954566E+03  0.91236022735E+03  0.93132004692E+02 0.  0.
          3    1    3    3  502    0 -0.14946046092E+02 -0.57604863140E+02 -0.48960272484E+02  0.77063693350E+02  0.00000000000E+00 0. -1.
         -3    1    3    3    0  502 -0.48334230265E+03 -0.62844783112E+03 -0.54155418852E+03  0.96012884400E+03  0.00000000000E+00 0.  1.
         11    1    5    5    0    0 -0.84711425285E+02  0.38684910018E+02 -0.13228881956E+03  0.16178034373E+03  0.00000000000E+00 0. -1.
        -11    1    5    5    0    0 -0.64122109500E+02  0.56145974913E+02 -0.33932378785E+03  0.34986375695E+03  0.00000000000E+00 0.  1.
          1    1    6    6  503    0  0.90086620884E+02  0.70285298385E+02 -0.62880246490E+02  0.13042065722E+03  0.00000000000E+00 0. -1.
         -1    1    6    6    0  503  0.55703526264E+03  0.52093651095E+03 -0.17252929917E+03  0.78193957013E+03  0.00000000000E+00 0.  1.
<mgrwt>
<rscale>  0 0.20913844E+04</rscale>
<asrwt>0</asrwt>
<pdfrwt beam="1">  1        1 0.28913334E+00 0.20913844E+04</pdfrwt>
<pdfrwt beam="2">  1       -1 0.89512328E-01 0.20913844E+04</pdfrwt>
<totfact> 0.40481689E+00</totfact>
</mgrwt>
</event>
<event>
12    2  0.3555611E-008  0.2458045E+04  0.7818608E-02  0.8418087E-01
          1   -1    0    0  501    0  0.00000000000E+00  0.00000000000E+00  0.10918526627E+04  0.10918526627E+04  0.00000000000E+00 0. -1.
         -1   -1    0    0    0  501 -0.00000000000E+00 -0.00000000000E+00 -0.13834246404E+04  0.13834246404E+04  0.00000000000E+00 0.  1.
         23    2    1    2    0    0 -0.50021863419E+03  0.19712532880E+03  0.79186535463E+03  0.96132716211E+03  0.89566151586E+02 0.  0.
        254    2    1    2    0    0  0.50021863419E+03 -0.19712532880E+03 -0.10834373323E+04  0.15139501410E+04  0.91056658147E+03 0.  0.
         23    2    4    4    0    0  0.51969007585E+03  0.12836028472E+03 -0.10396662011E+04  0.11727803863E+04  0.89184567195E+02 0.  0.
         23    2    4    4    0    0 -0.19471441668E+02 -0.32548561352E+03 -0.43771131187E+02  0.34116975477E+03  0.90337522643E+02 0.  0.
          1    1    3    3  502    0 -0.38837700029E+03  0.15226595097E+03  0.54224530845E+03  0.68414295927E+03  0.00000000000E+00 0. -1.
         -1    1    3    3    0  502 -0.11184163390E+03  0.44859377831E+02  0.24962004618E+03  0.27718420284E+03  0.00000000000E+00 0.  1.
         11    1    5    5    0    0  0.16490178519E+03  0.58108177566E+02 -0.26012499154E+03  0.31342330846E+03  0.00000000000E+00 0.  1.
        -11    1    5    5    0    0  0.35478829066E+03  0.70252107158E+02 -0.77954120958E+03  0.85935707781E+03  0.00000000000E+00 0. -1.
          1    1    6    6  503    0  0.64214151005E+01 -0.28381729018E+03 -0.14974741490E+02  0.28428459625E+03  0.00000000000E+00 0. -1.
         -1    1    6    6    0  503 -0.25892856768E+02 -0.41668323337E+02 -0.28796389696E+02  0.56885158529E+02  0.00000000000E+00 0.  1.
<mgrwt>
<rscale>  0 0.24580447E+04</rscale>
<asrwt>0</asrwt>
<pdfrwt beam="1">  1        1 0.16797733E+00 0.24580447E+04</pdfrwt>
<pdfrwt beam="2">  1       -1 0.21283456E+00 0.24580447E+04</pdfrwt>
<totfact> 0.14102034E+00</totfact>
</mgrwt>
</event>
<event>
12    2  0.3555611E-008  0.1733419E+04  0.7818608E-02  0.8742531E-01
         -2   -1    0    0    0  501 -0.00000000000E+00  0.00000000000E+00  0.91222150849E+03  0.91222150849E+03  0.00000000000E+00 0.  1.
          2   -1    0    0  501    0  0.00000000000E+00 -0.00000000000E+00 -0.82346794116E+03  0.82346794116E+03  0.00000000000E+00 0. -1.
         23    2    1    2    0    0 -0.27728905039E+03 -0.30702171763E+03  0.51371514562E+03  0.66547124155E+03  0.88301585073E+02 0.  0.
        254    2    1    2    0    0  0.27728905039E+03  0.30702171763E+03 -0.42496157829E+03  0.10702182081E+04  0.89085527295E+03 0.  0.
         23    2    4    4    0    0  0.20106286376E+03 -0.19331456495E+02 -0.62942013735E+03  0.66688748630E+03  0.88143233926E+02 0.  0.
         23    2    4    4    0    0  0.76226186629E+02  0.32635317413E+03  0.20445855906E+03  0.40333072179E+03  0.92496178174E+02 0.  0.
          3    1    3    3  502    0 -0.83541705373E+01 -0.35960664381E+02  0.22244331033E+02  0.43101877119E+02  0.00000000000E+00 0. -1.
         -3    1    3    3    0  502 -0.26893487986E+03 -0.27106105325E+03  0.49147081459E+03  0.62236936443E+03  0.00000000000E+00 0.  1.
         11    1    5    5    0    0  0.25814303454E+02 -0.24559449026E+02 -0.19837828423E+03  0.20155269398E+03  0.00000000000E+00 0.  1.
        -11    1    5    5    0    0  0.17524856031E+03  0.52279925304E+01 -0.43104185312E+03  0.46533479232E+03  0.00000000000E+00 0. -1.
          3    1    6    6  503    0  0.29334764892E+02  0.27949290477E+03  0.15822944086E+03  0.32251103578E+03  0.00000000000E+00 0. -1.
         -3    1    6    6    0  503  0.46891421736E+02  0.46860269358E+02  0.46229118200E+02  0.80819686007E+02  0.00000000000E+00 0.  1.
<mgrwt>
<rscale>  0 0.17334188E+04</rscale>
<asrwt>0</asrwt>
<pdfrwt beam="1">  1        2 0.12668738E+00 0.17334188E+04</pdfrwt>
<pdfrwt beam="2">  1       -2 0.14034177E+00 0.17334188E+04</pdfrwt>
<totfact> 0.11220392E+01</totfact>
</mgrwt>
</event>
<event>
12    2  0.3555611E-008  0.1539815E+04  0.7818608E-02  0.8858399E-01
         -2   -1    0    0    0  501 -0.00000000000E+00  0.00000000000E+00  0.15368351569E+04  0.15368351569E+04  0.00000000000E+00 0.  1.
          2   -1    0    0  501    0  0.00000000000E+00 -0.00000000000E+00 -0.38570035479E+03  0.38570035479E+03  0.00000000000E+00 0. -1.
         23    2    1    2    0    0 -0.14959235624E+03 -0.12200598646E+03 -0.20179727125E+03  0.29375887987E+03  0.91152657894E+02 0.  0.
        254    2    1    2    0    0  0.14959235624E+03  0.12200598646E+03  0.13529320734E+04  0.16287766319E+04  0.88612910316E+03 0.  0.
         23    2    4    4    0    0  0.39754661475E+03 -0.19634021295E+03  0.46864372389E+03  0.65255749329E+03  0.98038522971E+02 0.  0.
         23    2    4    4    0    0 -0.24795425851E+03  0.31834619941E+03  0.88428834950E+03  0.97621913856E+03  0.90621765818E+02 0.  0.
          2    1    3    3  502    0 -0.75361170580E+02 -0.11679871275E+03 -0.13478602269E+03  0.19361951669E+03  0.00000000000E+00 0. -1.
         -2    1    3    3    0  502 -0.74231185659E+02 -0.52072737062E+01 -0.67011248562E+02  0.10013936318E+03  0.00000000000E+00 0.  1.
         11    1    5    5    0    0  0.33367227450E+03 -0.18476833703E+03  0.43794167372E+03  0.58074902903E+03  0.00000000000E+00 0.  1.
        -11    1    5    5    0    0  0.63874340248E+02 -0.11571875919E+02  0.30702050169E+02  0.71808464257E+02  0.00000000000E+00 0. -1.
          2    1    6    6  503    0 -0.45652666472E+02  0.17338122303E+02  0.13997940189E+03  0.14825319354E+03  0.00000000000E+00 0. -1.
         -2    1    6    6    0  503 -0.20230159204E+03  0.30100807710E+03  0.74430894761E+03  0.82796594502E+03  0.00000000000E+00 0.  1.
<mgrwt>
<rscale>  0 0.15398154E+04</rscale>
<asrwt>0</asrwt>
<pdfrwt beam="1">  1        2 0.59338517E-01 0.15398154E+04</pdfrwt>
<pdfrwt beam="2">  1       -2 0.23643617E+00 0.15398154E+04</pdfrwt>
<totfact> 0.62205362E+00</totfact>
</mgrwt>
</event>
<event>
12    2  0.3555611E-008  0.1707421E+04  0.7818608E-02  0.8757143E-01
          2   -1    0    0  501    0  0.00000000000E+00  0.00000000000E+00  0.13163153887E+04  0.13163153887E+04  0.00000000000E+00 0. -1.
         -2   -1    0    0    0  501 -0.00000000000E+00 -0.00000000000E+00 -0.55368309207E+03  0.55368309207E+03  0.00000000000E+00 0.  1.
         23    2    1    2    0    0 -0.41291823436E+03 -0.56405821718E+02  0.77543261035E+03  0.88602458580E+03  0.10030328235E+03 0.  0.
        254    2    1    2    0    0  0.41291823436E+03  0.56405821718E+02 -0.12800313698E+02  0.98397389501E+03  0.89126746437E+03 0.  0.
         23    2    4    4    0    0  0.68507081522E+03  0.10366282956E+01  0.12523629531E+01  0.69119887391E+03  0.91821666390E+02 0.  0.
         23    2    4    4    0    0 -0.27215258086E+03  0.55369193423E+02 -0.14052676651E+02  0.29277502110E+03  0.91580349451E+02 0.  0.
          4    1    3    3  502    0 -0.21397213802E+03 -0.79703217182E+02  0.41655979085E+03  0.47503551239E+03  0.00000000000E+00 0. -1.
         -4    1    3    3    0  502 -0.19894609633E+03  0.23297395463E+02  0.35887281950E+03  0.41098907341E+03  0.00000000000E+00 0.  1.
         11    1    5    5    0    0  0.16892107899E+03  0.39733914120E+02  0.45220396312E+01  0.17359021776E+03  0.00000000000E+00 0.  1.
        -11    1    5    5    0    0  0.51614973623E+03 -0.38697285824E+02 -0.32696766781E+01  0.51760865615E+03  0.00000000000E+00 0. -1.
          4    1    6    6  503    0 -0.15899329435E+03  0.73118390947E+02  0.11636085156E+02  0.17538690151E+03  0.00000000000E+00 0. -1.
         -4    1    6    6    0  503 -0.11315928651E+03 -0.17749197525E+02 -0.25688761807E+02  0.11738811959E+03  0.00000000000E+00 0.  1.
<mgrwt>
<rscale>  0 0.17074209E+04</rscale>
<asrwt>0</asrwt>
<pdfrwt beam="1">  1        2 0.20251006E+00 0.17074209E+04</pdfrwt>
<pdfrwt beam="2">  1       -2 0.85182014E-01 0.17074209E+04</pdfrwt>
<totfact> 0.18444058E+01</totfact>
</mgrwt>
</event>
<event>
12    2  0.3555611E-008  0.1338348E+04  0.7818608E-02  0.8999696E-01
          1   -1    0    0  501    0  0.00000000000E+00  0.00000000000E+00  0.25050314254E+04  0.25050314254E+04  0.00000000000E+00 0. -1.
         -1   -1    0    0    0  501 -0.00000000000E+00 -0.00000000000E+00 -0.17875771094E+03  0.17875771094E+03  0.00000000000E+00 0.  1.
         23    2    1    2    0    0 -0.82293980911E+02 -0.33848477005E+03  0.48444266140E+03  0.60370285141E+03  0.91805238247E+02 0.  0.
        254    2    1    2    0    0  0.82293980911E+02  0.33848477005E+03  0.18418310531E+04  0.20800862849E+04  0.90170565368E+03 0.  0.
         23    2    4    4    0    0 -0.22740066421E+03  0.52024600784E+03  0.91061071917E+03  0.10770178577E+04  0.91589373256E+02 0.  0.
         23    2    4    4    0    0  0.30969464512E+03 -0.18176123779E+03  0.93122033390E+03  0.10030684272E+04  0.10013510158E+03 0.  0.
          3    1    3    3  502    0 -0.58590105849E+02 -0.26463699216E+03  0.43230651209E+03  0.51024940816E+03  0.00000000000E+00 0. -1.
         -3    1    3    3    0  502 -0.23703875062E+02 -0.73847777890E+02  0.52136149302E+02  0.93453443255E+02  0.00000000000E+00 0.  1.
         11    1    5    5    0    0 -0.10190754962E+03  0.13281421234E+03  0.24604104499E+03  0.29759193451E+03  0.00000000000E+00 0.  1.
        -11    1    5    5    0    0 -0.12549311459E+03  0.38743179550E+03  0.66456967418E+03  0.77942592324E+03  0.00000000000E+00 0. -1.
          4    1    6    6  503    0  0.30726886249E+03 -0.15639949176E+03  0.89183066238E+03  0.95615735381E+03  0.00000000000E+00 0. -1.
         -4    1    6    6    0  503  0.24257826271E+01 -0.25361746026E+02  0.39389671514E+02  0.46911073371E+02  0.00000000000E+00 0.  1.
<mgrwt>
<rscale>  0 0.13383478E+04</rscale>
<asrwt>0</asrwt>
<pdfrwt beam="1">  1        1 0.38538942E+00 0.13383478E+04</pdfrwt>
<pdfrwt beam="2">  1       -1 0.27501188E-01 0.13383478E+04</pdfrwt>
<totfact> 0.15706566E+01</totfact>
</mgrwt>
</event>
<event>
12    2  0.3555611E-008  0.2059344E+04  0.7818608E-02  0.8579367E-01
         -1   -1    0    0    0  501 -0.00000000000E+00  0.00000000000E+00  0.56396009218E+03  0.56396009218E+03  0.00000000000E+00 0.  1.
          1   -1    0    0  501    0  0.00000000000E+00 -0.00000000000E+00 -0.18799637585E+04  0.18799637585E+04  0.00000000000E+00 0. -1.
         23    2    1    2    0    0 -0.54229600505E+03 -0.60823281923E+03 -0.69568424312E+03  0.10769301679E+04  0.10848917470E+03 0.  0.
        254    2    1    2    0    0  0.54229600505E+03  0.60823281923E+03 -0.62031942325E+03  0.13669936828E+04  0.90545205417E+03 0.  0.
         23    2    4    4    0    0  0.14310274204E+03  0.68480096618E+03 -0.63855194444E+03  0.95144626190E+03  0.89836771267E+02 0.  0.
         23    2    4    4    0    0  0.39919326301E+03 -0.76568146941E+02  0.18232521196E+02  0.41554742088E+03  0.84435133759E+02 0.  0.
          1    1    3    3  502    0 -0.52348261008E+03 -0.60906085889E+03 -0.68248981507E+03  0.10539362033E+04  0.00000000000E+00 0. -1.
         -1    1    3    3    0  502 -0.18813394969E+02  0.82803966048E+00 -0.13194428044E+02  0.22993964672E+02  0.00000000000E+00 0.  1.
         11    1    5    5    0    0  0.11149997818E+03  0.63951961848E+03 -0.60109415605E+03  0.88472129622E+03  0.00000000000E+00 0. -1.
        -11    1    5    5    0    0  0.31602763860E+02  0.45281347699E+02 -0.37457788390E+02  0.66724965674E+02  0.00000000000E+00 0.  1.
          1    1    6    6  503    0  0.31354010515E+03 -0.38210468912E+02 -0.14395358467E+02  0.31618770346E+03  0.00000000000E+00 0. -1.
         -1    1    6    6    0  503  0.85653157858E+02 -0.38357678030E+02  0.32627879663E+02  0.99359717422E+02  0.00000000000E+00 0.  1.
<mgrwt>
<rscale>  0 0.20593441E+04</rscale>
<asrwt>0</asrwt>
<pdfrwt beam="1">  1        1 0.28922520E+00 0.20593441E+04</pdfrwt>
<pdfrwt beam="2">  1       -1 0.86763090E-01 0.20593441E+04</pdfrwt>
<totfact> 0.43432051E+00</totfact>
</mgrwt>
</event>
<event>
12    2  0.3555611E-008  0.1859582E+04  0.7818608E-02  0.8675241E-01
          2   -1    0    0  501    0  0.00000000000E+00  0.00000000000E+00  0.38763282961E+04  0.38763282961E+04  0.00000000000E+00 0.  1.
         -2   -1    0    0    0  501 -0.00000000000E+00 -0.00000000000E+00 -0.22302321515E+03  0.22302321515E+03  0.00000000000E+00 0. -1.
         23    2    1    2    0    0  0.31179305697E+02 -0.64007708051E+03  0.73750423898E+03  0.98134662839E+03  0.91966757257E+02 0.  0.
        254    2    1    2    0    0 -0.31179305697E+02  0.64007708051E+03  0.29158008419E+04  0.31180048828E+04  0.89966053672E+03 0.  0.
         23    2    4    4    0    0  0.52990724360E+02  0.27799468081E+03  0.16474074013E+03  0.34042125424E+03  0.93048693993E+02 0.  0.
         23    2    4    4    0    0 -0.84170030057E+02  0.36208239970E+03  0.27510601018E+04  0.27775836286E+04  0.91928623476E+02 0.  0.
          4    1    3    3  502    0  0.49754537367E+02 -0.17607215476E+03  0.20256743051E+03  0.27296608136E+03  0.00000000000E+00 0. -1.
         -4    1    3    3    0  502 -0.18575231670E+02 -0.46400492575E+03  0.53493680846E+03  0.70838054703E+03  0.00000000000E+00 0.  1.
         11    1    5    5    0    0  0.76445665540E+02  0.24971715976E+03  0.14530389176E+03  0.29885752562E+03  0.00000000000E+00 0.  1.
        -11    1    5    5    0    0 -0.23454941180E+02  0.28277521055E+02  0.19436848365E+02  0.41563728624E+02  0.00000000000E+00 0. -1.
          4    1    6    6  503    0  0.99400506814E+01  0.78567745485E+02  0.41372921223E+03  0.42124049698E+03  0.00000000000E+00 0. -1.
         -4    1    6    6    0  503 -0.94110080738E+02  0.28351465421E+03  0.23373308896E+04  0.23563431316E+04  0.00000000000E+00 0.  1.
<mgrwt>
<rscale>  0 0.18595819E+04</rscale>
<asrwt>0</asrwt>
<pdfrwt beam="1">  1        2 0.59635815E+00 0.18595819E+04</pdfrwt>
<pdfrwt beam="2">  1       -2 0.34311267E-01 0.18595819E+04</pdfrwt>
<totfact> 0.32448409E+00</totfact>
</mgrwt>
</event>
<event>
12    2  0.3555611E-008  0.1397228E+04  0.7818608E-02  0.8955828E-01
         -1   -1    0    0    0  501 -0.00000000000E+00  0.00000000000E+00  0.53663814114E+03  0.53663814114E+03  0.00000000000E+00 0.  1.
          1   -1    0    0  501    0  0.00000000000E+00 -0.00000000000E+00 -0.90947971317E+03  0.90947971317E+03  0.00000000000E+00 0. -1.
         23    2    1    2    0    0 -0.23812391305E+03 -0.24169044086E+03 -0.34533777649E+03  0.49250499505E+03  0.90474986108E+02 0.  0.
        254    2    1    2    0    0  0.23812391305E+03  0.24169044086E+03 -0.27503795544E+02  0.95361285925E+03  0.89078827978E+03 0.  0.
         23    2    4    4    0    0  0.56776072996E+03  0.10193331854E+03 -0.39149998485E+02  0.58450377712E+03  0.85844598955E+02 0.  0.
         23    2    4    4    0    0 -0.32963681691E+03  0.13975712233E+03  0.11646202941E+02  0.36910908214E+03  0.88957271590E+02 0.  0.
          4    1    3    3  502    0 -0.42170059497E+02 -0.53105451135E+02 -0.12611407426E+03  0.14318960362E+03  0.00000000000E+00 0. -1.
         -4    1    3    3    0  502 -0.19595385355E+03 -0.18858498973E+03 -0.21922370222E+03  0.34931539143E+03  0.00000000000E+00 0.  1.
         11    1    5    5    0    0  0.35190797938E+03  0.20570295720E+02 -0.24783968925E+02  0.35337884506E+03  0.00000000000E+00 0. -1.
        -11    1    5    5    0    0  0.21585275058E+03  0.81363022816E+02 -0.14366029559E+02  0.23112493206E+03  0.00000000000E+00 0.  1.
          4    1    6    6  503    0 -0.18459698171E+03  0.11838919095E+03  0.30068463065E+02  0.22135075934E+03  0.00000000000E+00 0. -1.
         -4    1    6    6    0  503 -0.14503983520E+03  0.21367931372E+02 -0.18422260124E+02  0.14775832279E+03  0.00000000000E+00 0.  1.
<mgrwt>
<rscale>  0 0.13972280E+04</rscale>
<asrwt>0</asrwt>
<pdfrwt beam="1">  1        1 0.13991996E+00 0.13972280E+04</pdfrwt>
<pdfrwt beam="2">  1       -1 0.82559714E-01 0.13972280E+04</pdfrwt>
<totfact> 0.25425711E+01</totfact>
</mgrwt>
</event>
<event>
12    2  0.3555611E-008  0.1436783E+04  0.7818608E-02  0.8927615E-01
          1   -1    0    0  501    0  0.00000000000E+00  0.00000000000E+00  0.63212625482E+03  0.63212625482E+03  0.00000000000E+00 0. -1.
         -1   -1    0    0    0  501 -0.00000000000E+00 -0.00000000000E+00 -0.81642917708E+03  0.81642917708E+03  0.00000000000E+00 0.  1.
         23    2    1    2    0    0  0.19424094972E+03  0.58152443588E+02 -0.42767566465E+03  0.48231283207E+03  0.92778987916E+02 0.  0.
        254    2    1    2    0    0 -0.19424094972E+03 -0.58152443588E+02  0.24337274239E+03  0.96624259983E+03  0.91284347878E+03 0.  0.
         23    2    4    4    0    0  0.86282162007E+01 -0.23311547657E+03  0.51620617153E+03  0.57395859604E+03  0.92425033997E+02 0.  0.
         23    2    4    4    0    0 -0.20286916592E+03  0.17496303298E+03 -0.27283342914E+03  0.39228400379E+03  0.87639592548E+02 0.  0.
          1    1    3    3  502    0  0.15900127360E+03  0.24824458859E+02 -0.24361822472E+03  0.29197174209E+03  0.00000000000E+00 0. -1.
         -1    1    3    3    0  502  0.35239676118E+02  0.33327984729E+02 -0.18405743993E+03  0.19034108997E+03  0.00000000000E+00 0.  1.
         11    1    5    5    0    0 -0.40053158262E+02 -0.13993166626E+03  0.31183716727E+03  0.34413303474E+03  0.00000000000E+00 0. -1.
        -11    1    5    5    0    0  0.48681374462E+02 -0.93183810315E+02  0.20436900427E+03  0.22982556131E+03  0.00000000000E+00 0.  1.
          1    1    6    6  503    0 -0.18065501594E+02 -0.84027606689E+01 -0.31636922819E+02  0.37388014391E+02  0.00000000000E+00 0. -1.
         -1    1    6    6    0  503 -0.18480366433E+03  0.18336579365E+03 -0.24119650632E+03  0.35489598940E+03  0.00000000000E+00 0.  1.
<mgrwt>
<rscale>  0 0.14367830E+04</rscale>
<asrwt>0</asrwt>
<pdfrwt beam="1">  1        1 0.97250193E-01 0.14367830E+04</pdfrwt>
<pdfrwt beam="2">  1       -1 0.12560449E+00 0.14367830E+04</pdfrwt>
<totfact> 0.17067073E+01</totfact>
</mgrwt>
</event>
<event>
12    2  0.3555611E-008  0.1523356E+04  0.7818608E-02  0.8869068E-01
         -3   -1    0    0    0  501 -0.00000000000E+00  0.00000000000E+00  0.13328797790E+04  0.13328797790E+04  0.00000000000E+00 0.  1.
          3   -1    0    0  501    0  0.00000000000E+00 -0.00000000000E+00 -0.43526310764E+03  0.43526310764E+03  0.00000000000E+00 0. -1.
         23    2    1    2    0    0  0.31959977473E+03  0.29072317480E+02 -0.13802947799E+03  0.36069032540E+03  0.89756105054E+02 0.  0.
        254    2    1    2    0    0 -0.31959977473E+03 -0.29072317480E+02  0.10356461494E+04  0.14074525612E+04  0.89742439783E+03 0.  0.
         23    2    4    4    0    0 -0.44279330734E+03 -0.25044534122E+03  0.24458105668E+03  0.57187579897E+03  0.91832751216E+02 0.  0.
         23    2    4    4    0    0  0.12319353261E+03  0.22137302374E+03  0.79106509267E+03  0.83557676227E+03  0.90674597852E+02 0.  0.
          2    1    3    3  502    0  0.48351559081E+02 -0.15649552208E+02 -0.51815403637E+02  0.72578356305E+02  0.00000000000E+00 0.  1.
         -2    1    3    3    0  502  0.27124821565E+03  0.44721869688E+02 -0.86214074354E+02  0.28811196910E+03  0.00000000000E+00 0. -1.
         11    1    5    5    0    0 -0.16296915306E+03 -0.57944401616E+02  0.48241273835E+02  0.17956536144E+03  0.00000000000E+00 0.  1.
        -11    1    5    5    0    0 -0.27982415428E+03 -0.19250093960E+03  0.19633978285E+03  0.39231043753E+03  0.00000000000E+00 0. -1.
          2    1    6    6  503    0  0.48921786719E+02  0.10562011407E+03  0.50399635646E+03  0.51726325700E+03  0.00000000000E+00 0.  1.
         -2    1    6    6    0  503  0.74271745892E+02  0.11575290966E+03  0.28706873621E+03  0.31831350527E+03  0.00000000000E+00 0. -1.
<mgrwt>
<rscale>  0 0.15233560E+04</rscale>
<asrwt>0</asrwt>
<pdfrwt beam="1">  1        3 0.66963556E-01 0.15233560E+04</pdfrwt>
<pdfrwt beam="2">  1       -3 0.20505843E+00 0.15233560E+04</pdfrwt>
<totfact> 0.73871917E-01</totfact>
</mgrwt>
</event>
<event>
12    2  0.3555611E-008  0.2380025E+04  0.7818608E-02  0.8447020E-01
         -2   -1    0    0    0  501 -0.00000000000E+00  0.00000000000E+00  0.40679490469E+03  0.40679490469E+03  0.00000000000E+00 0.  1.
          2   -1    0    0  501    0  0.00000000000E+00 -0.00000000000E+00 -0.34811889731E+04  0.34811889731E+04  0.00000000000E+00 0. -1.
         23    2    1    2    0    0 -0.33717781437E+03  0.15308922257E+03  0.22026768607E+03  0.44015109674E+03  0.89944126362E+02 0.  0.
        254    2    1    2    0    0  0.33717781437E+03 -0.15308922257E+03 -0.32946617545E+04  0.34478327811E+04  0.94637710302E+03 0.  0.
         23    2    4    4    0    0  0.36302402969E+03 -0.98608239481E+02 -0.33151409781E+04  0.33373660612E+04  0.79639755098E+02 0.  0.
         23    2    4    4    0    0 -0.25846215324E+02 -0.54480983093E+02  0.20479223569E+02  0.11046671993E+03  0.90262357869E+02 0.  0.
          3    1    3    3  502    0 -0.79142465123E+02  0.79707890138E+02  0.55052408981E+02  0.12509054829E+03  0.00000000000E+00 0. -1.
         -3    1    3    3    0  502 -0.25803534924E+03  0.73381332436E+02  0.16521527709E+03  0.31506054845E+03  0.00000000000E+00 0.  1.
         11    1    5    5    0    0  0.53151867922E+02 -0.43122351547E+02 -0.49501284644E+03  0.49972229928E+03  0.00000000000E+00 0. -1.
        -11    1    5    5    0    0  0.30987216177E+03 -0.55485887934E+02 -0.28201281317E+04  0.28376437619E+04  0.00000000000E+00 0.  1.
          1    1    6    6  503    0 -0.13271198820E+02 -0.10026207312E+02 -0.34712192118E+02  0.38491373486E+02  0.00000000000E+00 0. -1.
         -1    1    6    6    0  503 -0.12575016503E+02 -0.44454775782E+02  0.55191415687E+02  0.71975346441E+02  0.00000000000E+00 0.  1.
<mgrwt>
<rscale>  0 0.23800252E+04</rscale>
<asrwt>0</asrwt>
<pdfrwt beam="1">  1        2 0.53556753E+00 0.23800252E+04</pdfrwt>
<pdfrwt beam="2">  1       -2 0.62583832E-01 0.23800252E+04</pdfrwt>
<totfact> 0.17907822E+00</totfact>
</mgrwt>
</event>
<event>
12    2  0.3555611E-008  0.1681017E+04  0.7818608E-02  0.8772266E-01
         -2   -1    0    0    0  501 -0.00000000000E+00  0.00000000000E+00  0.36398006112E+03  0.36398006112E+03  0.00000000000E+00 0. -1.
          2   -1    0    0  501    0  0.00000000000E+00 -0.00000000000E+00 -0.19409161910E+04  0.19409161910E+04  0.00000000000E+00 0.  1.
         23    2    1    2    0    0 -0.52884257947E+03  0.13520134280E+03 -0.25219369911E+03  0.60827808079E+03  0.91905847180E+02 0.  0.
        254    2    1    2    0    0  0.52884257947E+03 -0.13520134280E+03 -0.13247424308E+04  0.16966181713E+04  0.90863459894E+03 0.  0.
         23    2    4    4    0    0  0.56119861536E+03 -0.16391878206E+03 -0.29352380237E+03  0.66047819122E+03  0.90895354840E+02 0.  0.
         23    2    4    4    0    0 -0.32356035884E+02  0.28717439265E+02 -0.10312186284E+04  0.10361399801E+04  0.91118573392E+02 0.  0.
          4    1    3    3  502    0 -0.89020337726E+02 -0.19855162917E+01 -0.15740878071E+02  0.90423105710E+02  0.00000000000E+00 0. -1.
         -4    1    3    3    0  502 -0.43982224175E+03  0.13718685909E+03 -0.23645282104E+03  0.51785497508E+03  0.00000000000E+00 0.  1.
         11    1    5    5    0    0  0.16480557985E+03 -0.23137141397E+02 -0.12130042862E+03  0.20593688462E+03  0.00000000000E+00 0.  1.
        -11    1    5    5    0    0  0.39639303550E+03 -0.14078164067E+03 -0.17222337375E+03  0.45454130661E+03  0.00000000000E+00 0. -1.
          1    1    6    6  503    0 -0.66975436074E+00  0.17794821109E+02 -0.91530185150E+03  0.91547505897E+03  0.00000000000E+00 0. -1.
         -1    1    6    6    0  503 -0.31686281524E+02  0.10922618156E+02 -0.11591677688E+03  0.12066492111E+03  0.00000000000E+00 0.  1.
<mgrwt>
<rscale>  0 0.16810173E+04</rscale>
<asrwt>0</asrwt>
<pdfrwt beam="1">  1        2 0.29860248E+00 0.16810173E+04</pdfrwt>
<pdfrwt beam="2">  1       -2 0.55996934E-01 0.16810173E+04</pdfrwt>
<totfact> 0.20566197E+01</totfact>
</mgrwt>
</event>
<event>
12    2  0.3555611E-008  0.1470819E+04  0.7818608E-02  0.8904093E-01
          2   -1    0    0  501    0  0.00000000000E+00  0.00000000000E+00  0.17216563438E+04  0.17216563438E+04  0.00000000000E+00 0. -1.
         -2   -1    0    0    0  501 -0.00000000000E+00 -0.00000000000E+00 -0.31413197937E+03  0.31413197937E+03  0.00000000000E+00 0.  1.
         23    2    1    2    0    0  0.13294549890E+03 -0.15073863188E+03 -0.12011001972E+03  0.25195772102E+03  0.93057162671E+02 0.  0.
        254    2    1    2    0    0 -0.13294549890E+03  0.15073863188E+03  0.15276343842E+04  0.17838306022E+04  0.89888161888E+03 0.  0.
         23    2    4    4    0    0 -0.43802492097E+03  0.13451671724E+03  0.41252656268E+03  0.62406645473E+03  0.96541164252E+02 0.  0.
         23    2    4    4    0    0  0.30507942207E+03  0.16221914646E+02  0.11151078215E+04  0.11597641474E+04  0.90834023870E+02 0.  0.
          2    1    3    3  502    0  0.75652322390E+02 -0.14444733162E+03 -0.79189831180E+02  0.18127143972E+03  0.00000000000E+00 0.  1.
         -2    1    3    3    0  502  0.57293176506E+02 -0.62913002569E+01 -0.40920188541E+02  0.70686281295E+02  0.00000000000E+00 0. -1.
         11    1    5    5    0    0 -0.85725832305E+02  0.88123200779E+01  0.36221820251E+02  0.93480455561E+02  0.00000000000E+00 0.  1.
        -11    1    5    5    0    0 -0.35229908866E+03  0.12570439716E+03  0.37630474243E+03  0.53058599917E+03  0.00000000000E+00 0. -1.
          2    1    6    6  503    0  0.21185266521E+03  0.42166903452E+02  0.86566929978E+03  0.89221238283E+03  0.00000000000E+00 0. -1.
         -2    1    6    6    0  503  0.93226756861E+02 -0.25944988806E+02  0.24943852169E+03  0.26755176460E+03  0.00000000000E+00 0.  1.
<mgrwt>
<rscale>  0 0.14708192E+04</rscale>
<asrwt>0</asrwt>
<pdfrwt beam="1">  1        2 0.26487020E+00 0.14708192E+04</pdfrwt>
<pdfrwt beam="2">  1       -2 0.48327998E-01 0.14708192E+04</pdfrwt>
<totfact> 0.37454492E+01</totfact>
</mgrwt>
</event>
<event>
12    2  0.3555611E-008  0.1768407E+04  0.7818608E-02  0.8723283E-01
         -1   -1    0    0    0  501 -0.00000000000E+00  0.00000000000E+00  0.61308916967E+03  0.61308916967E+03  0.00000000000E+00 0.  1.
          1   -1    0    0  501    0  0.00000000000E+00 -0.00000000000E+00 -0.12752067359E+04  0.12752067359E+04  0.00000000000E+00 0. -1.
         23    2    1    2    0    0  0.61040935535E+03  0.23019032070E+03 -0.21043245704E+03  0.69097289463E+03  0.87031932664E+02 0.  0.
        254    2    1    2    0    0 -0.61040935535E+03 -0.23019032070E+03 -0.45168510919E+03  0.11973230109E+04  0.89664697055E+03 0.  0.
         23    2    4    4    0    0 -0.45325942215E+03 -0.32726101691E+02  0.19055814732E+03  0.50100326083E+03  0.90425429774E+02 0.  0.
         23    2    4    4    0    0 -0.15714993319E+03 -0.19746421901E+03 -0.64224325651E+03  0.69631975010E+03  0.93255426413E+02 0.  0.
          2    1    3    3  502    0  0.57593105434E+02  0.50793196774E+02 -0.19666375210E+02  0.79269672297E+02  0.00000000000E+00 0. -1.
         -2    1    3    3    0  502  0.55281624991E+03  0.17939712393E+03 -0.19076608183E+03  0.61170322234E+03  0.00000000000E+00 0.  1.
         11    1    5    5    0    0 -0.43712829434E+02 -0.82454454447E+00  0.50958610675E+02  0.67143661896E+02  0.00000000000E+00 0.  1.
        -11    1    5    5    0    0 -0.40954659272E+03 -0.31901557146E+02  0.13959953664E+03  0.43385959893E+03  0.00000000000E+00 0. -1.
          2    1    6    6  503    0 -0.12491784792E+03 -0.20067371238E+03 -0.55408083009E+03  0.60239519739E+03  0.00000000000E+00 0. -1.
         -2    1    6    6    0  503 -0.32232085280E+02  0.32094933707E+01 -0.88162426420E+02  0.93924552708E+02  0.00000000000E+00 0.  1.
<mgrwt>
<rscale>  0 0.17684066E+04</rscale>
<asrwt>0</asrwt>
<pdfrwt beam="1">  1        1 0.19618565E+00 0.17684066E+04</pdfrwt>
<pdfrwt beam="2">  1       -1 0.94321412E-01 0.17684066E+04</pdfrwt>
<totfact> 0.97028977E+00</totfact>
</mgrwt>
</event>
<event>
12    2  0.3555611E-008  0.2553975E+04  0.7818608E-02  0.8384005E-01
          2   -1    0    0  501    0  0.00000000000E+00  0.00000000000E+00  0.13257353441E+04  0.13257353441E+04  0.00000000000E+00 0. -1.
         -2   -1    0    0    0  501 -0.00000000000E+00 -0.00000000000E+00 -0.12300317346E+04  0.12300317346E+04  0.00000000000E+00 0.  1.
         23    2    1    2    0    0 -0.18366665810E+03  0.42295632346E+03  0.10618339562E+04  0.11613247112E+04  0.92510763166E+02 0.  0.
        254    2    1    2    0    0  0.18366665810E+03 -0.42295632346E+03 -0.96613034680E+03  0.13944423675E+04  0.89355255943E+03 0.  0.
         23    2    4    4    0    0 -0.26453246782E+02  0.24637715350E+03 -0.11390029852E+03  0.28692185789E+03  0.89159399400E+02 0.  0.
         23    2    4    4    0    0  0.21011990488E+03 -0.66933347696E+03 -0.85223004827E+03  0.11075205096E+04  0.90265975086E+02 0.  0.
          4    1    3    3  502    0 -0.30738004815E+02  0.17949692013E+03  0.44266533866E+03  0.47866122814E+03  0.00000000000E+00 0. -1.
         -4    1    3    3    0  502 -0.15292865329E+03  0.24345940333E+03  0.61916861759E+03  0.68266348304E+03  0.00000000000E+00 0.  1.
         11    1    5    5    0    0  0.85144713473E+01  0.68602433265E+01  0.10159531868E+02  0.14925657393E+02  0.00000000000E+00 0.  1.
        -11    1    5    5    0    0 -0.34967718129E+02  0.23951691017E+03 -0.12405983039E+03  0.27199620050E+03  0.00000000000E+00 0. -1.
          2    1    6    6  503    0  0.15726189002E+03 -0.49541392071E+03 -0.56605257354E+03  0.76849318207E+03  0.00000000000E+00 0. -1.
         -2    1    6    6    0  503  0.52858014864E+02 -0.17391955624E+03 -0.28617747474E+03  0.33902732755E+03  0.00000000000E+00 0.  1.
<mgrwt>
<rscale>  0 0.25539746E+04</rscale>
<asrwt>0</asrwt>
<pdfrwt beam="1">  1        2 0.20395928E+00 0.25539746E+04</pdfrwt>
<pdfrwt beam="2">  1       -2 0.18923565E+00 0.25539746E+04</pdfrwt>
<totfact> 0.22243360E+00</totfact>
</mgrwt>
</event>
<event>
12    2  0.3555611E-008  0.3800767E+04  0.7818608E-02  0.8045990E-01
          2   -1    0    0  501    0  0.00000000000E+00  0.00000000000E+00  0.26060346171E+04  0.26060346171E+04  0.00000000000E+00 0. -1.
         -2   -1    0    0    0  501 -0.00000000000E+00 -0.00000000000E+00 -0.13858058736E+04  0.13858058736E+04  0.00000000000E+00 0.  1.
         23    2    1    2    0    0  0.28503216077E+03  0.89957882732E+03 -0.10255800912E+04  0.13967302986E+04  0.92496509809E+02 0.  0.
        254    2    1    2    0    0 -0.28503216077E+03 -0.89957882732E+03  0.22458088347E+04  0.25951101921E+04  0.89468105380E+03 0.  0.
         23    2    4    4    0    0 -0.53009568522E+03 -0.23775750033E+03  0.10485416552E+04  0.12023642109E+04  0.93327534128E+02 0.  0.
         23    2    4    4    0    0  0.24506352445E+03 -0.66182132699E+03  0.11972671795E+04  0.13927459812E+04  0.90714216672E+02 0.  0.
          2    1    3    3  502    0  0.43926928634E+02  0.27270879653E+03 -0.31539220960E+03  0.41925160542E+03  0.00000000000E+00 0. -1.
         -2    1    3    3    0  502  0.24110523214E+03  0.62687003078E+03 -0.71018788162E+03  0.97747869320E+03  0.00000000000E+00 0.  1.
         11    1    5    5    0    0 -0.34868016836E+03 -0.16908108668E+03  0.60780270442E+03  0.72082619346E+03  0.00000000000E+00 0. -1.
        -11    1    5    5    0    0 -0.18141551686E+03 -0.68676413641E+02  0.44073895077E+03  0.48153801748E+03  0.00000000000E+00 0.  1.
          1    1    6    6  503    0  0.16443771332E+03 -0.43064942028E+03  0.86310563525E+03  0.97849375183E+03  0.00000000000E+00 0. -1.
         -1    1    6    6    0  503  0.80625811127E+02 -0.23117190671E+03  0.33416154422E+03  0.41425222933E+03  0.00000000000E+00 0.  1.
<mgrwt>
<rscale>  0 0.38007673E+04</rscale>
<asrwt>0</asrwt>
<pdfrwt beam="1">  1        2 0.40092840E+00 0.38007673E+04</pdfrwt>
<pdfrwt beam="2">  1       -2 0.21320090E+00 0.38007673E+04</pdfrwt>
<totfact> 0.26426658E-01</totfact>
</mgrwt>
</event>
<event>
12    2  0.3555611E-008  0.2647006E+04  0.7818608E-02  0.8352407E-01
         -1   -1    0    0    0  501 -0.00000000000E+00  0.00000000000E+00  0.74550247789E+03  0.74550247789E+03  0.00000000000E+00 0.  1.
          1   -1    0    0  501    0  0.00000000000E+00 -0.00000000000E+00 -0.23496369534E+04  0.23496369534E+04  0.00000000000E+00 0. -1.
         23    2    1    2    0    0 -0.17166635797E+03 -0.51142194820E+03  0.50188666614E+03  0.74204891614E+03  0.87889821579E+02 0.  0.
        254    2    1    2    0    0  0.17166635797E+03  0.51142194820E+03 -0.21060211416E+04  0.23530905151E+04  0.90038223871E+03 0.  0.
         23    2    4    4    0    0  0.58312422270E+02  0.75503465091E+03 -0.16012623659E+04  0.17737438527E+04  0.92996924533E+02 0.  0.
         23    2    4    4    0    0  0.11335393570E+03 -0.24361270271E+03 -0.50475877572E+03  0.57934666239E+03  0.93085282880E+02 0.  0.
          2    1    3    3  502    0  0.46837799920E+01 -0.39398085571E+02  0.59516690546E+02  0.71528899022E+02  0.00000000000E+00 0. -1.
         -2    1    3    3    0  502 -0.17635013797E+03 -0.47202386263E+03  0.44236997560E+03  0.67052001712E+03  0.00000000000E+00 0.  1.
         11    1    5    5    0    0  0.80593545388E+02  0.45915590343E+03 -0.96591192687E+03  0.10725228733E+04  0.00000000000E+00 0. -1.
        -11    1    5    5    0    0 -0.22281123118E+02  0.29587874748E+03 -0.63535043905E+03  0.70122097948E+03  0.00000000000E+00 0.  1.
          4    1    6    6  503    0  0.10187429229E+03 -0.11026106706E+03 -0.28207123085E+03  0.31953099006E+03  0.00000000000E+00 0.  1.
         -4    1    6    6    0  503  0.11479643415E+02 -0.13335163564E+03 -0.22268754488E+03  0.25981567233E+03  0.00000000000E+00 0. -1.
<mgrwt>
<rscale>  0 0.26470060E+04</rscale>
<asrwt>0</asrwt>
<pdfrwt beam="1">  1        1 0.36148260E+00 0.26470060E+04</pdfrwt>
<pdfrwt beam="2">  1       -1 0.11469269E+00 0.26470060E+04</pdfrwt>
<totfact> 0.10423320E+00</totfact>
</mgrwt>
</event>
<event>
12    2  0.3555611E-008  0.1519365E+04  0.7818608E-02  0.8871677E-01
         -2   -1    0    0    0  501 -0.00000000000E+00  0.00000000000E+00  0.62049279509E+03  0.62049279509E+03  0.00000000000E+00 0.  1.
          2   -1    0    0  501    0  0.00000000000E+00 -0.00000000000E+00 -0.93009515810E+03  0.93009515810E+03  0.00000000000E+00 0. -1.
         23    2    1    2    0    0 -0.35104746484E+03 -0.15472042178E+03 -0.73112743358E+02  0.40101017249E+03  0.91054674282E+02 0.  0.
        254    2    1    2    0    0  0.35104746484E+03  0.15472042178E+03 -0.23648961966E+03  0.11495777807E+04  0.10575580373E+04 0.  0.
         23    2    4    4    0    0 -0.26366833631E+03  0.14753867422E+03 -0.39769343676E+03  0.50751775509E+03  0.90141833371E+02 0.  0.
         23    2    4    4    0    0  0.61471580115E+03  0.71817475661E+01  0.16120381710E+03  0.64206002562E+03  0.91254107686E+02 0.  0.
          2    1    3    3  502    0 -0.29888718813E+02 -0.19730658789E+01 -0.30641839051E+02  0.42850330240E+02  0.00000000000E+00 0. -1.
         -2    1    3    3    0  502 -0.32115874603E+03 -0.15274735590E+03 -0.42470904307E+02  0.35815984225E+03  0.00000000000E+00 0.  1.
         11    1    5    5    0    0 -0.31669399936E+01 -0.29519902084E+01 -0.39538836878E+02  0.39775160299E+02  0.00000000000E+00 0. -1.
        -11    1    5    5    0    0 -0.26050139631E+03  0.15049066443E+03 -0.35815459988E+03  0.46774259479E+03  0.00000000000E+00 0.  1.
          2    1    6    6  503    0  0.30210967211E+03 -0.40399458450E+02  0.91844370094E+02  0.31833592092E+03  0.00000000000E+00 0. -1.
         -2    1    6    6    0  503  0.31260612903E+03  0.47581206016E+02  0.69359447008E+02  0.32372410470E+03  0.00000000000E+00 0.  1.
<mgrwt>
<rscale>  0 0.15193648E+04</rscale>
<asrwt>0</asrwt>
<pdfrwt beam="1">  1        2 0.14309156E+00 0.15193648E+04</pdfrwt>
<pdfrwt beam="2">  1       -2 0.95460431E-01 0.15193648E+04</pdfrwt>
<totfact> 0.24888831E+01</totfact>
</mgrwt>
</event>
<event>
12    2  0.3555611E-008  0.1555030E+04  0.7818608E-02  0.8848661E-01
          3   -1    0    0  501    0  0.00000000000E+00  0.00000000000E+00  0.10559553010E+04  0.10559553010E+04  0.00000000000E+00 0. -1.
         -3   -1    0    0    0  501 -0.00000000000E+00 -0.00000000000E+00 -0.57249548138E+03  0.57249548138E+03  0.00000000000E+00 0.  1.
         23    2    1    2    0    0 -0.49797611527E+03  0.11652413989E+03  0.18736026949E+03  0.55132955705E+03  0.85453632650E+02 0.  0.
        254    2    1    2    0    0  0.49797611527E+03 -0.11652413989E+03  0.29609955013E+03  0.10771212253E+04  0.90053156742E+03 0.  0.
         23    2    4    4    0    0  0.47310233704E+03 -0.46385815021E+03  0.24843108325E+03  0.71420913187E+03  0.96883827805E+02 0.  0.
         23    2    4    4    0    0  0.24873778233E+02  0.34733401032E+03  0.47668466878E+02  0.36291209347E+03  0.90406223713E+02 0.  0.
          3    1    3    3  502    0 -0.41145901111E+03  0.64362289113E+02  0.16433967832E+03  0.44771481096E+03  0.00000000000E+00 0. -1.
         -3    1    3    3    0  502 -0.86517104165E+02  0.52161850779E+02  0.23020591178E+02  0.10361474609E+03  0.00000000000E+00 0.  1.
         11    1    5    5    0    0  0.41516204339E+03 -0.44171850906E+03  0.23833586706E+03  0.65136683140E+03  0.00000000000E+00 0.  1.
        -11    1    5    5    0    0  0.57940293648E+02 -0.22139641146E+02  0.10095216195E+02  0.62842300468E+02  0.00000000000E+00 0. -1.
          3    1    6    6  503    0 -0.21668405005E+02  0.21460237938E+03  0.43494834505E+01  0.21573738438E+03  0.00000000000E+00 0. -1.
         -3    1    6    6    0  503  0.46542183238E+02  0.13273163093E+03  0.43318983427E+02  0.14717470909E+03  0.00000000000E+00 0.  1.
<mgrwt>
<rscale>  0 0.15550301E+04</rscale>
<asrwt>0</asrwt>
<pdfrwt beam="1">  1        3 0.16245466E+00 0.15550301E+04</pdfrwt>
<pdfrwt beam="2">  1       -3 0.88076228E-01 0.15550301E+04</pdfrwt>
<totfact> 0.77418314E-01</totfact>
</mgrwt>
</event>
<event>
12    2  0.3555611E-008  0.1400463E+04  0.7818608E-02  0.8953484E-01
         -1   -1    0    0    0  501 -0.00000000000E+00  0.00000000000E+00  0.28916032378E+03  0.28916032378E+03  0.00000000000E+00 0.  1.
          1   -1    0    0  501    0  0.00000000000E+00 -0.00000000000E+00 -0.16956825287E+04  0.16956825287E+04  0.00000000000E+00 0. -1.
         23    2    1    2    0    0 -0.21535901460E+03 -0.32279560928E+03 -0.29612319534E+03  0.49639604417E+03  0.90241760350E+02 0.  0.
        254    2    1    2    0    0  0.21535901460E+03  0.32279560928E+03 -0.11103990096E+04  0.14884468083E+04  0.91209178824E+03 0.  0.
         23    2    4    4    0    0  0.16506173606E+02  0.61723058423E+03 -0.71088650296E+03  0.94614634313E+03  0.92667333224E+02 0.  0.
         23    2    4    4    0    0  0.19885284099E+03 -0.29443497495E+03 -0.39951250662E+03  0.54230046520E+03  0.90802779474E+02 0.  0.
          1    1    3    3  502    0 -0.98523020688E+01 -0.77615539213E+02 -0.65181745789E+02  0.10183270480E+03  0.00000000000E+00 0. -1.
         -1    1    3    3    0  502 -0.20550671253E+03 -0.24518007007E+03 -0.23094144955E+03  0.39456333937E+03  0.00000000000E+00 0.  1.
         11    1    5    5    0    0 -0.11929349437E+02  0.30518082420E+03 -0.41423778030E+03  0.51465579125E+03  0.00000000000E+00 0.  1.
        -11    1    5    5    0    0  0.28435523043E+02  0.31204976002E+03 -0.29664872265E+03  0.43149055187E+03  0.00000000000E+00 0. -1.
          1    1    6    6  503    0 -0.88035080691E+01 -0.42853994294E+01 -0.85426387360E+01  0.12993963182E+02  0.00000000000E+00 0. -1.
         -1    1    6    6    0  503  0.20765634906E+03 -0.29014957552E+03 -0.39096986789E+03  0.52930650201E+03  0.00000000000E+00 0.  1.
<mgrwt>
<rscale>  0 0.14004629E+04</rscale>
<asrwt>0</asrwt>
<pdfrwt beam="1">  1        1 0.26087424E+00 0.14004629E+04</pdfrwt>
<pdfrwt beam="2">  1       -1 0.44486203E-01 0.14004629E+04</pdfrwt>
<totfact> 0.23413147E+01</totfact>
</mgrwt>
</event>
<event>
12    2  0.3555611E-008  0.1179985E+04  0.7818608E-02  0.9130559E-01
          2   -1    0    0  501    0  0.00000000000E+00  0.00000000000E+00  0.11762918896E+04  0.11762918896E+04  0.00000000000E+00 0. -1.
         -2   -1    0    0    0  501 -0.00000000000E+00 -0.00000000000E+00 -0.29592223242E+03  0.29592223242E+03  0.00000000000E+00 0.  1.
         23    2    1    2    0    0  0.13763945210E+03  0.70156367205E+02 -0.28795978536E+02  0.18171076767E+03  0.91230806604E+02 0.  0.
        254    2    1    2    0    0 -0.13763945210E+03 -0.70156367205E+02  0.90916563570E+03  0.12905033543E+04  0.90274593313E+03 0.  0.
         23    2    4    4    0    0 -0.45960876767E+03  0.17445254969E+03  0.45912991451E+03  0.67878932533E+03  0.90998672343E+02 0.  0.
         23    2    4    4    0    0  0.32196931557E+03 -0.24460891690E+03  0.45003572119E+03  0.61171402901E+03  0.90355633699E+02 0.  0.
          3    1    3    3  502    0  0.29826245453E+02  0.63466542025E+02 -0.83741525566E+00  0.70130650494E+02  0.00000000000E+00 0. -1.
         -3    1    3    3    0  502  0.10781320664E+03  0.66898251797E+01 -0.27958563280E+02  0.11158011717E+03  0.00000000000E+00 0.  1.
         11    1    5    5    0    0 -0.48340642409E+02 -0.68998275329E+01  0.29742505519E+02  0.57175536404E+02  0.00000000000E+00 0. -1.
        -11    1    5    5    0    0 -0.41126812526E+03  0.18135237723E+03  0.42938740899E+03  0.62161378892E+03  0.00000000000E+00 0.  1.
          1    1    6    6  503    0  0.55783231579E+02 -0.86411146603E+02  0.88380019451E+02  0.13560856544E+03  0.00000000000E+00 0. -1.
         -1    1    6    6    0  503  0.26618608399E+03 -0.15819777030E+03  0.36165570174E+03  0.47610546357E+03  0.00000000000E+00 0.  1.
<mgrwt>
<rscale>  0 0.11799846E+04</rscale>
<asrwt>0</asrwt>
<pdfrwt beam="1">  1        2 0.18096798E+00 0.11799846E+04</pdfrwt>
<pdfrwt beam="2">  1       -2 0.45526498E-01 0.11799846E+04</pdfrwt>
<totfact> 0.88433061E+01</totfact>
</mgrwt>
</event>
<event>
12    2  0.3555611E-008  0.2497081E+04  0.7818608E-02  0.8404026E-01
          1   -1    0    0  501    0  0.00000000000E+00  0.00000000000E+00  0.12574861512E+04  0.12574861512E+04  0.00000000000E+00 0. -1.
         -1   -1    0    0    0  501 -0.00000000000E+00 -0.00000000000E+00 -0.12396581233E+04  0.12396581233E+04  0.00000000000E+00 0.  1.
         23    2    1    2    0    0  0.13877982572E+03  0.32964469280E+03  0.10305976008E+04  0.10947963619E+04  0.92315740011E+02 0.  0.
        254    2    1    2    0    0 -0.13877982572E+03 -0.32964469280E+03 -0.10127695729E+04  0.14023479126E+04  0.90163850664E+03 0.  0.
         23    2    4    4    0    0 -0.40459630722E+03 -0.13885480914E+03 -0.96422154933E+03  0.10588802971E+04  0.92333404480E+02 0.  0.
         23    2    4    4    0    0  0.26581648150E+03 -0.19078988366E+03 -0.48548023533E+02  0.34346761546E+03  0.92487354456E+02 0.  0.
          4    1    3    3  502    0  0.13019089567E+03  0.33384301174E+03  0.98364267201E+03  0.10468780884E+04  0.00000000000E+00 0. -1.
         -4    1    3    3    0  502  0.85889300559E+01 -0.41983189409E+01  0.46954928766E+02  0.47918273517E+02  0.00000000000E+00 0.  1.
         11    1    5    5    0    0 -0.77537218731E+02 -0.25248210216E+02 -0.10816567215E+03  0.13545960667E+03  0.00000000000E+00 0. -1.
        -11    1    5    5    0    0 -0.32705908849E+03 -0.11360659892E+03 -0.85605587718E+03  0.92342069044E+03  0.00000000000E+00 0.  1.
          1    1    6    6  503    0 -0.37508867642E+00  0.76262970261E+01 -0.35751523031E+01  0.84310623196E+01  0.00000000000E+00 0. -1.
         -1    1    6    6    0  503  0.26619157018E+03 -0.19841618069E+03 -0.44972871230E+02  0.33503655314E+03  0.00000000000E+00 0.  1.
<mgrwt>
<rscale>  0 0.24970806E+04</rscale>
<asrwt>0</asrwt>
<pdfrwt beam="1">  1        1 0.19345941E+00 0.24970806E+04</pdfrwt>
<pdfrwt beam="2">  1       -1 0.19071663E+00 0.24970806E+04</pdfrwt>
<totfact> 0.15064133E+00</totfact>
</mgrwt>
</event>
<event>
12    2  0.3555611E-008  0.2198442E+04  0.7818608E-02  0.8519077E-01
         -2   -1    0    0    0  501 -0.00000000000E+00  0.00000000000E+00  0.39095870189E+03  0.39095870189E+03  0.00000000000E+00 0.  1.
          2   -1    0    0  501    0  0.00000000000E+00 -0.00000000000E+00 -0.30905733645E+04  0.30905733645E+04  0.00000000000E+00 0. -1.
         23    2    1    2    0    0  0.15901436393E+02 -0.29491103016E+03 -0.24810312504E+04  0.25003630511E+04  0.95257284605E+02 0.  0.
        254    2    1    2    0    0 -0.15901436393E+02  0.29491103016E+03 -0.21858341218E+03  0.98116901529E+03  0.90977390438E+03 0.  0.
         23    2    4    4    0    0  0.28882246050E+03 -0.20326419192E+03 -0.69490648765E+02  0.37139971473E+03  0.91509848825E+02 0.  0.
         23    2    4    4    0    0 -0.30472389689E+03  0.49817522208E+03 -0.14909276342E+03  0.60976930056E+03  0.92491851346E+02 0.  0.
          3    1    3    3  502    0 -0.18804611507E+02 -0.24328254985E+03 -0.17934231830E+04  0.18099466085E+04  0.00000000000E+00 0. -1.
         -3    1    3    3    0  502  0.34706047900E+02 -0.51628480309E+02 -0.68760806745E+03  0.69041644257E+03  0.00000000000E+00 0.  1.
         11    1    5    5    0    0  0.23717083290E+03 -0.20361050337E+03 -0.52073085615E+02  0.31688932975E+03  0.00000000000E+00 0.  1.
        -11    1    5    5    0    0  0.51651627595E+02  0.34631145266E+00 -0.17417563149E+02  0.54510384982E+02  0.00000000000E+00 0. -1.
          2    1    6    6  503    0 -0.31825074466E+01 -0.41489376476E+01 -0.26563865143E+01  0.58650171836E+01  0.00000000000E+00 0. -1.
         -2    1    6    6    0  503 -0.30154138944E+03  0.50232415973E+03 -0.14643637690E+03  0.60390428337E+03  0.00000000000E+00 0.  1.
<mgrwt>
<rscale>  0 0.21984418E+04</rscale>
<asrwt>0</asrwt>
<pdfrwt beam="1">  1        2 0.47547279E+00 0.21984418E+04</pdfrwt>
<pdfrwt beam="2">  1       -2 0.60147496E-01 0.21984418E+04</pdfrwt>
<totfact> 0.35995792E+00</totfact>
</mgrwt>
</event>
<event>
12    2  0.3555611E-008  0.1664342E+04  0.7818608E-02  0.8781967E-01
         -2   -1    0    0    0  501 -0.00000000000E+00  0.00000000000E+00  0.31137775975E+03  0.31137775975E+03  0.00000000000E+00 0.  1.
          2   -1    0    0  501    0  0.00000000000E+00 -0.00000000000E+00 -0.22240129979E+04  0.22240129979E+04  0.00000000000E+00 0. -1.
         23    2    1    2    0    0  0.49490258654E+02 -0.45869102098E+03 -0.11089839096E+04  0.12053402351E+04  0.10076225535E+03 0.  0.
        254    2    1    2    0    0 -0.49490258654E+02  0.45869102098E+03 -0.80365132855E+03  0.13300505226E+04  0.95411330370E+03 0.  0.
         23    2    4    4    0    0  0.29587176446E+03 -0.19045776586E+02 -0.63805734249E+03  0.70984703711E+03  0.94142451589E+02 0.  0.
         23    2    4    4    0    0 -0.34536202311E+03  0.47773679757E+03 -0.16559398607E+03  0.62020348547E+03  0.98608419546E+02 0.  0.
          4    1    3    3  502    0  0.42041417982E+02 -0.41291025568E+03 -0.89738605919E+03  0.98871841254E+03  0.00000000000E+00 0. -1.
         -4    1    3    3    0  502  0.74488406719E+01 -0.45780765305E+02 -0.21159785040E+03  0.21662182253E+03  0.00000000000E+00 0.  1.
         11    1    5    5    0    0  0.13015483050E+03 -0.25805890778E+02 -0.38552875926E+03  0.40772373995E+03  0.00000000000E+00 0.  1.
        -11    1    5    5    0    0  0.16571693395E+03  0.67601141923E+01 -0.25252858322E+03  0.30212329716E+03  0.00000000000E+00 0. -1.
          4    1    6    6  503    0 -0.15598370703E+03  0.21330751652E+03 -0.12533571784E+03  0.29247231601E+03  0.00000000000E+00 0. -1.
         -4    1    6    6    0  503 -0.18937831608E+03  0.26442928104E+03 -0.40258268232E+02  0.32773116946E+03  0.00000000000E+00 0.  1.
<mgrwt>
<rscale>  0 0.16643415E+04</rscale>
<asrwt>0</asrwt>
<pdfrwt beam="1">  1        2 0.34215585E+00 0.16643415E+04</pdfrwt>
<pdfrwt beam="2">  1       -2 0.47904270E-01 0.16643415E+04</pdfrwt>
<totfact> 0.19732874E+01</totfact>
</mgrwt>
</event>
<event>
12    2  0.3555611E-008  0.1366777E+04  0.7818608E-02  0.8978225E-01
          1   -1    0    0  501    0  0.00000000000E+00  0.00000000000E+00  0.23367665381E+03  0.23367665381E+03  0.00000000000E+00 0. -1.
         -1   -1    0    0    0  501 -0.00000000000E+00 -0.00000000000E+00 -0.19985720390E+04  0.19985720390E+04  0.00000000000E+00 0.  1.
         23    2    1    2    0    0  0.17531757807E+03 -0.23048844658E+03 -0.95883197099E+02  0.31833574895E+03  0.91010353178E+02 0.  0.
        254    2    1    2    0    0 -0.17531757807E+03  0.23048844658E+03 -0.16690121881E+04  0.19139129439E+04  0.89084223942E+03 0.  0.
         23    2    4    4    0    0 -0.41483706230E+03  0.40970636716E+03 -0.13168769190E+04  0.14430596052E+04  0.91143341875E+02 0.  0.
         23    2    4    4    0    0  0.23951948423E+03 -0.17921792058E+03 -0.35213526904E+03  0.47085333864E+03  0.90636485052E+02 0.  0.
          1    1    3    3  502    0  0.18502216159E+03 -0.20714617648E+03 -0.82538889796E+02  0.28975059454E+03  0.00000000000E+00 0. -1.
         -1    1    3    3    0  502 -0.97045835242E+01 -0.23342270103E+02 -0.13344307303E+02  0.28585154405E+02  0.00000000000E+00 0.  1.
         11    1    5    5    0    0 -0.13471715207E+03  0.15846286363E+03 -0.56973367851E+03  0.60651105071E+03  0.00000000000E+00 0. -1.
        -11    1    5    5    0    0 -0.28011991023E+03  0.25124350353E+03 -0.74714324053E+03  0.83654855450E+03  0.00000000000E+00 0.  1.
          3    1    6    6  503    0  0.39755116642E+02 -0.23436783497E+02 -0.13758006508E+02  0.48156358490E+02  0.00000000000E+00 0. -1.
         -3    1    6    6    0  503  0.19976436759E+03 -0.15578113708E+03 -0.33837726253E+03  0.42269698015E+03  0.00000000000E+00 0.  1.
<mgrwt>
<rscale>  0 0.13667767E+04</rscale>
<asrwt>0</asrwt>
<pdfrwt beam="1">  1        1 0.35950256E-01 0.13667767E+04</pdfrwt>
<pdfrwt beam="2">  1       -1 0.30747261E+00 0.13667767E+04</pdfrwt>
<totfact> 0.35213994E+00</totfact>
</mgrwt>
</event>
<event>
12    2  0.3555611E-008  0.1596049E+04  0.7818608E-02  0.8822979E-01
          1   -1    0    0  501    0  0.00000000000E+00  0.00000000000E+00  0.83222833532E+03  0.83222833532E+03  0.00000000000E+00 0. -1.
         -1   -1    0    0    0  501 -0.00000000000E+00 -0.00000000000E+00 -0.76522620768E+03  0.76522620768E+03  0.00000000000E+00 0.  1.
         23    2    1    2    0    0 -0.86532913915E+01 -0.25617984644E+03 -0.45433960882E+03  0.52932349243E+03  0.89754589408E+02 0.  0.
        254    2    1    2    0    0  0.86532913915E+01  0.25617984644E+03  0.52134173646E+03  0.10681310506E+04  0.89632792093E+03 0.  0.
         23    2    4    4    0    0  0.34992003280E+02 -0.32115093194E+03  0.11050074454E+03  0.35317399938E+03  0.90327725049E+02 0.  0.
         23    2    4    4    0    0 -0.26338711888E+02  0.57733077839E+03  0.41084099193E+03  0.71495705119E+03  0.91480648135E+02 0.  0.
          3    1    3    3  502    0 -0.43682603652E+02 -0.96869143259E+02 -0.14707770772E+03  0.18144876104E+03  0.00000000000E+00 0. -1.
         -3    1    3    3    0  502  0.35029312260E+02 -0.15931070319E+03 -0.30726190110E+03  0.34787473138E+03  0.00000000000E+00 0.  1.
         11    1    5    5    0    0  0.84530373409E+01 -0.13774707016E+03  0.94312385085E+02  0.16715422567E+03  0.00000000000E+00 0. -1.
        -11    1    5    5    0    0  0.26538965939E+02 -0.18340386178E+03  0.16188359452E+02  0.18601977371E+03  0.00000000000E+00 0.  1.
          2    1    6    6  503    0 -0.44224014650E+02  0.47202675614E+03  0.30006756531E+03  0.56107536547E+03  0.00000000000E+00 0. -1.
         -2    1    6    6    0  503  0.17885302762E+02  0.10530402225E+03  0.11077342662E+03  0.15388168573E+03  0.00000000000E+00 0.  1.
<mgrwt>
<rscale>  0 0.15960488E+04</rscale>
<asrwt>0</asrwt>
<pdfrwt beam="1">  1        1 0.12803513E+00 0.15960488E+04</pdfrwt>
<pdfrwt beam="2">  1       -1 0.11772711E+00 0.15960488E+04</pdfrwt>
<totfact> 0.12914450E+01</totfact>
</mgrwt>
</event>
<event>
12    2  0.3555611E-008  0.1815262E+04  0.7818608E-02  0.8698225E-01
          1   -1    0    0  501    0  0.00000000000E+00  0.00000000000E+00  0.22911376169E+04  0.22911376169E+04  0.00000000000E+00 0. -1.
         -1   -1    0    0    0  501 -0.00000000000E+00 -0.00000000000E+00 -0.35955692822E+03  0.35955692822E+03  0.00000000000E+00 0.  1.
         23    2    1    2    0    0 -0.62008963694E+03 -0.26754933473E+03  0.69549215125E+03  0.97346673800E+03  0.88511881640E+02 0.  0.
        254    2    1    2    0    0  0.62008963694E+03  0.26754933473E+03  0.12360885374E+04  0.16772278071E+04  0.91054074056E+03 0.  0.
         23    2    4    4    0    0  0.82262301343E+03  0.24984926459E+03  0.75850672551E+03  0.11501544371E+04  0.91594210249E+02 0.  0.
         23    2    4    4    0    0 -0.20253337649E+03  0.17700070141E+02  0.47758181191E+03  0.52707336998E+03  0.91590879441E+02 0.  0.
          3    1    3    3  502    0 -0.25042681867E+02  0.49995932435E+01  0.37714893368E+02  0.45547173671E+02  0.00000000000E+00 0. -1.
         -3    1    3    3    0  502 -0.59504695508E+03 -0.27254892797E+03  0.65777725788E+03  0.92791956433E+03  0.00000000000E+00 0.  1.
         11    1    5    5    0    0  0.45548413804E+03  0.95320793626E+02  0.38234059224E+03  0.60227583563E+03  0.00000000000E+00 0.  1.
        -11    1    5    5    0    0  0.36713887539E+03  0.15452847096E+03  0.37616613327E+03  0.54787860150E+03  0.00000000000E+00 0. -1.
          2    1    6    6  503    0 -0.13806949340E+02 -0.75939743121E+01  0.12826741920E+03  0.12923169551E+03  0.00000000000E+00 0. -1.
         -2    1    6    6    0  503 -0.18872642715E+03  0.25294044453E+02  0.34931439271E+03  0.39784167447E+03  0.00000000000E+00 0.  1.
<mgrwt>
<rscale>  0 0.18152624E+04</rscale>
<asrwt>0</asrwt>
<pdfrwt beam="1">  1        1 0.35248270E+00 0.18152624E+04</pdfrwt>
<pdfrwt beam="2">  1       -1 0.55316452E-01 0.18152624E+04</pdfrwt>
<totfact> 0.58796944E+00</totfact>
</mgrwt>
</event>
<event>
12    2  0.3555611E-008  0.1354454E+04  0.7818608E-02  0.8987463E-01
          1   -1    0    0  501    0  0.00000000000E+00  0.00000000000E+00  0.14520892100E+04  0.14520892100E+04  0.00000000000E+00 0. -1.
         -1   -1    0    0    0  501 -0.00000000000E+00 -0.00000000000E+00 -0.31584601897E+03  0.31584601897E+03  0.00000000000E+00 0.  1.
         23    2    1    2    0    0 -0.21199045375E+03  0.30445476225E+03  0.35091439486E+03  0.51872178346E+03  0.91097318155E+02 0.  0.
        254    2    1    2    0    0  0.21199045375E+03 -0.30445476225E+03  0.78532879620E+03  0.12492134455E+04  0.89786427686E+03 0.  0.
         23    2    4    4    0    0 -0.23721112923E+03 -0.35428634793E+03  0.14412444649E+03  0.45926341999E+03  0.91449968303E+02 0.  0.
         23    2    4    4    0    0  0.44920158298E+03  0.49831585678E+02  0.64120434971E+03  0.78995002556E+03  0.92805041403E+02 0.  0.
          3    1    3    3  502    0 -0.18522691534E+03  0.25023317777E+03  0.33252536472E+03  0.45552033061E+03  0.00000000000E+00 0. -1.
         -3    1    3    3    0  502 -0.26763538410E+02  0.54221584483E+02  0.18389030144E+02  0.63201452845E+02  0.00000000000E+00 0.  1.
         11    1    5    5    0    0 -0.23923618334E+03 -0.31584670984E+03  0.14130874618E+03  0.42066763280E+03  0.00000000000E+00 0.  1.
        -11    1    5    5    0    0  0.20250541111E+01 -0.38439638088E+02  0.28157003101E+01  0.38595787189E+02  0.00000000000E+00 0. -1.
          1    1    6    6  503    0  0.80173527650E+02  0.36535475343E+02  0.85714249421E+02  0.12292098295E+03  0.00000000000E+00 0. -1.
         -1    1    6    6    0  503  0.36902805533E+03  0.13296110335E+02  0.55549010029E+03  0.66702904261E+03  0.00000000000E+00 0.  1.
<mgrwt>
<rscale>  0 0.13544543E+04</rscale>
<asrwt>0</asrwt>
<pdfrwt beam="1">  1        1 0.22339834E+00 0.13544543E+04</pdfrwt>
<pdfrwt beam="2">  1       -1 0.48591696E-01 0.13544543E+04</pdfrwt>
<totfact> 0.29288317E+01</totfact>
</mgrwt>
</event>
<event>
12    2  0.3555611E-008  0.1661299E+04  0.7818608E-02  0.8783750E-01
         -1   -1    0    0    0  501 -0.00000000000E+00  0.00000000000E+00  0.43006641683E+03  0.43006641683E+03  0.00000000000E+00 0.  1.
          1   -1    0    0  501    0  0.00000000000E+00 -0.00000000000E+00 -0.16043538098E+04  0.16043538098E+04  0.00000000000E+00 0. -1.
         23    2    1    2    0    0  0.22875649725E+03  0.37196950189E+02 -0.10658622636E+04  0.10947368708E+04  0.93130571497E+02 0.  0.
        254    2    1    2    0    0 -0.22875649725E+03 -0.37196950189E+02 -0.10842512944E+03  0.93968335582E+03  0.90417678159E+03 0.  0.
         23    2    4    4    0    0  0.13137580206E+03 -0.33467083238E+03 -0.24434760393E+03  0.44438089842E+03  0.92219650426E+02 0.  0.
         23    2    4    4    0    0 -0.36013229931E+03  0.29747388219E+03  0.13592247449E+03  0.49530245740E+03  0.93078577773E+02 0.  0.
          4    1    3    3  502    0  0.66984049472E+02 -0.31483262256E+02 -0.31116819162E+03  0.31984949923E+03  0.00000000000E+00 0. -1.
         -4    1    3    3    0  502  0.16177244778E+03  0.68680212444E+02 -0.75469407195E+03  0.77488737161E+03  0.00000000000E+00 0.  1.
         11    1    5    5    0    0  0.11908054394E+03 -0.20274688636E+03 -0.18507714826E+03  0.29923239577E+03  0.00000000000E+00 0.  1.
        -11    1    5    5    0    0  0.12295258122E+02 -0.13192394602E+03 -0.59270455667E+02  0.14514850265E+03  0.00000000000E+00 0. -1.
          1    1    6    6  503    0 -0.44055657282E+02  0.46306372748E+02  0.53281870934E+02  0.83211410671E+02  0.00000000000E+00 0. -1.
         -1    1    6    6    0  503 -0.31607664203E+03  0.25116750944E+03  0.82640603555E+02  0.41209104673E+03  0.00000000000E+00 0.  1.
<mgrwt>
<rscale>  0 0.16612991E+04</rscale>
<asrwt>0</asrwt>
<pdfrwt beam="1">  1        1 0.24682366E+00 0.16612991E+04</pdfrwt>
<pdfrwt beam="2">  1       -1 0.66164065E-01 0.16612991E+04</pdfrwt>
<totfact> 0.12247438E+01</totfact>
</mgrwt>
</event>
<event>
12    2  0.3555611E-008  0.2009524E+04  0.7818608E-02  0.8602181E-01
          2   -1    0    0  501    0  0.00000000000E+00  0.00000000000E+00  0.22129309042E+04  0.22129309042E+04  0.00000000000E+00 0.  1.
         -2   -1    0    0    0  501 -0.00000000000E+00 -0.00000000000E+00 -0.45620348143E+03  0.45620348143E+03  0.00000000000E+00 0. -1.
         23    2    1    2    0    0  0.37896215285E+03  0.49710941554E+03  0.13615317274E+04  0.15011268374E+04  0.94249948669E+02 0.  0.
        254    2    1    2    0    0 -0.37896215285E+03 -0.49710941554E+03  0.39519569541E+03  0.11680075483E+04  0.90406410773E+03 0.  0.
         23    2    4    4    0    0 -0.48770449734E+03 -0.96404792508E+02 -0.99585695873E+02  0.51527399235E+03  0.91871734635E+02 0.  0.
         23    2    4    4    0    0  0.10874234449E+03 -0.40070462304E+03  0.49478139128E+03  0.65273355594E+03  0.94145512319E+02 0.  0.
          2    1    3    3  502    0  0.84990477393E+02  0.55029311627E+02  0.21798890426E+03  0.24035550496E+03  0.00000000000E+00 0. -1.
         -2    1    3    3    0  502  0.29397167546E+03  0.44208010392E+03  0.11435428231E+04  0.12607713324E+04  0.00000000000E+00 0.  1.
         11    1    5    5    0    0 -0.36101663440E+03 -0.39816119934E+02 -0.44235564211E+02  0.36588948995E+03  0.00000000000E+00 0.  1.
        -11    1    5    5    0    0 -0.12668786294E+03 -0.56588672575E+02 -0.55350131662E+02  0.14938450240E+03  0.00000000000E+00 0. -1.
          4    1    6    6  503    0  0.39442226964E+02 -0.12717573369E+03  0.23012374428E+03  0.26586894175E+03  0.00000000000E+00 0. -1.
         -4    1    6    6    0  503  0.69300117527E+02 -0.27352888935E+03  0.26465764700E+03  0.38686461419E+03  0.00000000000E+00 0.  1.
<mgrwt>
<rscale>  0 0.20095241E+04</rscale>
<asrwt>0</asrwt>
<pdfrwt beam="1">  1        2 0.34045090E+00 0.20095241E+04</pdfrwt>
<pdfrwt beam="2">  1       -2 0.70185152E-01 0.20095241E+04</pdfrwt>
<totfact> 0.87128873E+00</totfact>
</mgrwt>
</event>
<event>
12    2  0.3555611E-008  0.1382213E+04  0.7818608E-02  0.8966796E-01
         -2   -1    0    0    0  501 -0.00000000000E+00  0.00000000000E+00  0.16362569605E+03  0.16362569605E+03  0.00000000000E+00 0. -1.
          2   -1    0    0  501    0  0.00000000000E+00 -0.00000000000E+00 -0.29190271621E+04  0.29190271621E+04  0.00000000000E+00 0.  1.
         23    2    1    2    0    0 -0.28326426012E+03  0.18303216765E+03 -0.12027616085E+04  0.12524018312E+04  0.90196699086E+02 0.  0.
        254    2    1    2    0    0  0.28326426012E+03 -0.18303216765E+03 -0.15526398576E+04  0.18302510270E+04  0.90850915177E+03 0.  0.
         23    2    4    4    0    0 -0.23865152068E+03  0.15041670746E+03 -0.26519312765E+03  0.39840667296E+03  0.93918836806E+02 0.  0.
         23    2    4    4    0    0  0.52191578080E+03 -0.33344887510E+03 -0.12874467299E+04  0.14318443540E+04  0.95262464145E+02 0.  0.
          4    1    3    3  502    0 -0.18050222688E+02  0.39957351221E+02 -0.99627351241E+02  0.10884856256E+03  0.00000000000E+00 0. -1.
         -4    1    3    3    0  502 -0.26521403743E+03  0.14307481642E+03 -0.11031342572E+04  0.11435532686E+04  0.00000000000E+00 0.  1.
         11    1    5    5    0    0 -0.18478355214E+01  0.27760286004E+02 -0.10792955760E+02  0.29841847616E+02  0.00000000000E+00 0.  1.
        -11    1    5    5    0    0 -0.23680368515E+03  0.12265642145E+03 -0.25440017189E+03  0.36856482535E+03  0.00000000000E+00 0. -1.
          3    1    6    6  503    0  0.40087225479E+03 -0.25804732572E+03 -0.89099894026E+03  0.10105276337E+04  0.00000000000E+00 0. -1.
         -3    1    6    6    0  503  0.12104352601E+03 -0.75401549385E+02 -0.39644778969E+03  0.42131672028E+03  0.00000000000E+00 0.  1.
<mgrwt>
<rscale>  0 0.13822125E+04</rscale>
<asrwt>0</asrwt>
<pdfrwt beam="1">  1        2 0.44908110E+00 0.13822125E+04</pdfrwt>
<pdfrwt beam="2">  1       -2 0.25173184E-01 0.13822125E+04</pdfrwt>
<totfact> 0.27227360E+01</totfact>
</mgrwt>
</event>
<event>
12    2  0.3555611E-008  0.2396672E+04  0.7818608E-02  0.8440750E-01
          2   -1    0    0  501    0  0.00000000000E+00  0.00000000000E+00  0.18415230402E+04  0.18415230402E+04  0.00000000000E+00 0. -1.
         -2   -1    0    0    0  501 -0.00000000000E+00 -0.00000000000E+00 -0.77979460018E+03  0.77979460018E+03  0.00000000000E+00 0.  1.
         23    2    1    2    0    0  0.31975422489E+03 -0.97593225656E+03  0.46059150698E+03  0.11292675552E+04  0.91728627815E+02 0.  0.
        254    2    1    2    0    0 -0.31975422489E+03  0.97593225656E+03  0.60113693307E+03  0.14920500852E+04  0.90008961264E+03 0.  0.
         23    2    4    4    0    0  0.88838920557E+02  0.51132049651E+03 -0.11735347014E+03  0.53991469538E+03  0.91624436596E+02 0.  0.
         23    2    4    4    0    0 -0.40859314545E+03  0.46461176006E+03  0.71849040322E+03  0.95213538984E+03  0.86723093734E+02 0.  0.
          2    1    3    3  502    0  0.34786874718E+02 -0.19922384045E+03  0.11505175860E+03  0.23267396161E+03  0.00000000000E+00 0. -1.
         -2    1    3    3    0  502  0.28496735017E+03 -0.77670841612E+03  0.34553974838E+03  0.89659359357E+03  0.00000000000E+00 0.  1.
         11    1    5    5    0    0  0.83830898779E+02  0.43843423634E+03 -0.67460671499E+02  0.45144561288E+03  0.00000000000E+00 0.  1.
        -11    1    5    5    0    0  0.50080217787E+01  0.72886260165E+02 -0.49892798642E+02  0.88469082506E+02  0.00000000000E+00 0. -1.
          1    1    6    6  503    0 -0.11689433578E+02  0.32771917616E+02  0.67152807165E+02  0.75631613441E+02  0.00000000000E+00 0. -1.
         -1    1    6    6    0  503 -0.39690371187E+03  0.43183984244E+03  0.65133759605E+03  0.87650377640E+03  0.00000000000E+00 0.  1.
<mgrwt>
<rscale>  0 0.23966725E+04</rscale>
<asrwt>0</asrwt>
<pdfrwt beam="1">  1        2 0.28331124E+00 0.23966725E+04</pdfrwt>
<pdfrwt beam="2">  1       -2 0.11996840E+00 0.23966725E+04</pdfrwt>
<totfact> 0.39110985E+00</totfact>
</mgrwt>
</event>
<event>
12    2  0.3555611E-008  0.1319386E+04  0.7818608E-02  0.9014332E-01
          1   -1    0    0  501    0  0.00000000000E+00  0.00000000000E+00  0.28775789895E+03  0.28775789895E+03  0.00000000000E+00 0. -1.
         -1   -1    0    0    0  501 -0.00000000000E+00 -0.00000000000E+00 -0.15123644726E+04  0.15123644726E+04  0.00000000000E+00 0.  1.
         23    2    1    2    0    0  0.25152032622E+03  0.18058609718E+03 -0.53559120374E+03  0.62531869204E+03  0.91058860578E+02 0.  0.
        254    2    1    2    0    0 -0.25152032622E+03 -0.18058609718E+03 -0.68901536995E+03  0.11748036796E+04  0.89974868296E+03 0.  0.
         23    2    4    4    0    0 -0.15521791357E+03 -0.52179527452E+03 -0.25774920048E+03  0.60934658736E+03  0.92226373518E+02 0.  0.
         23    2    4    4    0    0 -0.96302412642E+02  0.34120917734E+03 -0.43126616948E+03  0.56545709221E+03  0.89740497054E+02 0.  0.
          4    1    3    3  502    0  0.47670205677E+02  0.45413986122E+01 -0.12905329518E+03  0.13765110173E+03  0.00000000000E+00 0. -1.
         -4    1    3    3    0  502  0.20385012054E+03  0.17604469856E+03 -0.40653790856E+03  0.48766759031E+03  0.00000000000E+00 0.  1.
         11    1    5    5    0    0 -0.14400581187E+03 -0.34910065161E+03 -0.19702816311E+03  0.42594487422E+03  0.00000000000E+00 0. -1.
        -11    1    5    5    0    0 -0.11212101700E+02 -0.17269462290E+03 -0.60721037368E+02  0.18340171314E+03  0.00000000000E+00 0.  1.
          1    1    6    6  503    0 -0.50543683307E+02  0.29865937457E+03 -0.36629963697E+03  0.47531832490E+03  0.00000000000E+00 0. -1.
         -1    1    6    6    0  503 -0.45758729335E+02  0.42549802776E+02 -0.64966532507E+02  0.90138767313E+02  0.00000000000E+00 0.  1.
<mgrwt>
<rscale>  0 0.13193860E+04</rscale>
<asrwt>0</asrwt>
<pdfrwt beam="1">  1        1 0.44270445E-01 0.13193860E+04</pdfrwt>
<pdfrwt beam="2">  1       -1 0.23267146E+00 0.13193860E+04</pdfrwt>
<totfact> 0.82372266E+00</totfact>
</mgrwt>
</event>
<event>
12    2  0.3555611E-008  0.2978287E+04  0.7818608E-02  0.8249958E-01
         -2   -1    0    0    0  501 -0.00000000000E+00  0.00000000000E+00  0.10431286268E+04  0.10431286268E+04  0.00000000000E+00 0.  1.
          2   -1    0    0  501    0  0.00000000000E+00 -0.00000000000E+00 -0.21258632974E+04  0.21258632974E+04  0.00000000000E+00 0. -1.
         23    2    1    2    0    0  0.67126503365E+03 -0.11749571226E+04 -0.55204386658E+03  0.14635486726E+04  0.78110826127E+02 0.  0.
        254    2    1    2    0    0 -0.67126503365E+03  0.11749571226E+04 -0.53069080405E+03  0.17054432516E+04  0.89206668453E+03 0.  0.
         23    2    4    4    0    0 -0.15932299938E+03 -0.50019005225E+02  0.11850940455E+03  0.22471207472E+03  0.92549006165E+02 0.  0.
         23    2    4    4    0    0 -0.51194203427E+03  0.12249761278E+04 -0.64920020860E+03  0.14807311769E+04  0.91938823198E+02 0.  0.
          1    1    3    3  502    0 -0.71604082681E+00 -0.13439080433E+02 -0.38570364245E+01  0.13999940261E+02  0.00000000000E+00 0. -1.
         -1    1    3    3    0  502  0.67198107448E+03 -0.11615180421E+04 -0.54818683016E+03  0.14495487323E+04  0.00000000000E+00 0.  1.
         11    1    5    5    0    0  0.28199540302E+01 -0.18328901237E+02  0.34966246563E+02  0.39579529557E+02  0.00000000000E+00 0.  1.
        -11    1    5    5    0    0 -0.16214295341E+03 -0.31690103989E+02  0.83543157989E+02  0.18513254516E+03  0.00000000000E+00 0. -1.
          3    1    6    6  503    0 -0.30446385883E+03  0.72267591405E+03 -0.43341712828E+03  0.89599616358E+03  0.00000000000E+00 0. -1.
         -3    1    6    6    0  503 -0.20747817544E+03  0.50230021376E+03 -0.21578308033E+03  0.58473501330E+03  0.00000000000E+00 0.  1.
<mgrwt>
<rscale>  0 0.29782873E+04</rscale>
<asrwt>0</asrwt>
<pdfrwt beam="1">  1        2 0.32705589E+00 0.29782873E+04</pdfrwt>
<pdfrwt beam="2">  1       -2 0.16048133E+00 0.29782873E+04</pdfrwt>
<totfact> 0.12176423E+00</totfact>
</mgrwt>
</event>
<event>
12    2  0.3555611E-008  0.1330891E+04  0.7818608E-02  0.9005420E-01
         -2   -1    0    0    0  501 -0.00000000000E+00  0.00000000000E+00  0.10705037393E+04  0.10705037393E+04  0.00000000000E+00 0.  1.
          2   -1    0    0  501    0  0.00000000000E+00 -0.00000000000E+00 -0.41365384219E+03  0.41365384219E+03  0.00000000000E+00 0. -1.
         23    2    1    2    0    0 -0.34090496239E+02 -0.18679410786E+03  0.27384319667E+03  0.34627755189E+03  0.94148000068E+02 0.  0.
        254    2    1    2    0    0  0.34090496239E+02  0.18679410786E+03  0.38300670049E+03  0.11378800296E+04  0.10545248354E+04 0.  0.
         23    2    4    4    0    0 -0.10229858259E+03  0.23112322460E+03 -0.31767225912E+03  0.41666013473E+03  0.93845930691E+02 0.  0.
         23    2    4    4    0    0  0.13638907882E+03 -0.44329116739E+02  0.70067895961E+03  0.72121989491E+03  0.92952035791E+02 0.  0.
          3    1    3    3  502    0 -0.13889020373E+02 -0.14617457743E+03  0.13230747012E+03  0.19764913008E+03  0.00000000000E+00 0. -1.
         -3    1    3    3    0  502 -0.20201475866E+02 -0.40619530436E+02  0.14153572655E+03  0.14862842181E+03  0.00000000000E+00 0.  1.
         11    1    5    5    0    0 -0.38833281322E+02  0.31618660163E+02 -0.11428955633E+03  0.12477926949E+03  0.00000000000E+00 0.  1.
        -11    1    5    5    0    0 -0.63465301263E+02  0.19950456444E+03 -0.20338270279E+03  0.29188086523E+03  0.00000000000E+00 0. -1.
          3    1    6    6  503    0  0.74914844947E+02 -0.22839080184E+02  0.56849938096E+03  0.57386880358E+03  0.00000000000E+00 0. -1.
         -3    1    6    6    0  503  0.61474233878E+02 -0.21490036555E+02  0.13217957866E+03  0.14735109133E+03  0.00000000000E+00 0.  1.
<mgrwt>
<rscale>  0 0.13308914E+04</rscale>
<asrwt>0</asrwt>
<pdfrwt beam="1">  1        2 0.63639053E-01 0.13308914E+04</pdfrwt>
<pdfrwt beam="2">  1       -2 0.16469288E+00 0.13308914E+04</pdfrwt>
<totfact> 0.17404256E+01</totfact>
</mgrwt>
</event>
<event>
12    2  0.3555611E-008  0.1517220E+04  0.7818608E-02  0.8873082E-01
          2   -1    0    0  501    0  0.00000000000E+00  0.00000000000E+00  0.47734932705E+03  0.47734932705E+03  0.00000000000E+00 0. -1.
         -2   -1    0    0    0  501 -0.00000000000E+00 -0.00000000000E+00 -0.12055933717E+04  0.12055933717E+04  0.00000000000E+00 0.  1.
         23    2    1    2    0    0  0.36244458116E+03 -0.26900598102E+03 -0.49888719256E+02  0.46313718376E+03  0.90977329215E+02 0.  0.
        254    2    1    2    0    0 -0.36244458116E+03  0.26900598102E+03 -0.67835532535E+03  0.12198055150E+04  0.90776057121E+03 0.  0.
         23    2    4    4    0    0 -0.11032880285E+03  0.38171996978E+02 -0.82373717825E+03  0.83715853920E+03  0.93069516103E+02 0.  0.
         23    2    4    4    0    0 -0.25211577831E+03  0.23083398404E+03  0.14538185291E+03  0.38264697576E+03  0.91848413375E+02 0.  0.
          2    1    3    3  502    0  0.32328433216E+03 -0.26961090302E+03 -0.50459442343E+02  0.42396810466E+03  0.00000000000E+00 0. -1.
         -2    1    3    3    0  502  0.39160248997E+02  0.60492200042E+00  0.57072308787E+00  0.39169079093E+02  0.00000000000E+00 0.  1.
         11    1    5    5    0    0 -0.96026881020E+02  0.66762335226E+02 -0.67027758704E+03  0.68040459652E+03  0.00000000000E+00 0. -1.
        -11    1    5    5    0    0 -0.14301921830E+02 -0.28590338247E+02 -0.15345959121E+03  0.15675394267E+03  0.00000000000E+00 0.  1.
          2    1    6    6  503    0 -0.11275513725E+03  0.95972490906E+02  0.11247674683E+03  0.18594477289E+03  0.00000000000E+00 0. -1.
         -2    1    6    6    0  503 -0.13936064106E+03  0.13486149313E+03  0.32905106076E+02  0.19670220287E+03  0.00000000000E+00 0.  1.
<mgrwt>
<rscale>  0 0.15172201E+04</rscale>
<asrwt>0</asrwt>
<pdfrwt beam="1">  1        2 0.73438358E-01 0.15172201E+04</pdfrwt>
<pdfrwt beam="2">  1       -2 0.18547590E+00 0.15172201E+04</pdfrwt>
<totfact> 0.10416829E+01</totfact>
</mgrwt>
</event>
<event>
12    2  0.3555611E-008  0.1544379E+04  0.7818608E-02  0.8855466E-01
          2   -1    0    0  501    0  0.00000000000E+00  0.00000000000E+00  0.27032136315E+04  0.27032136315E+04  0.00000000000E+00 0. -1.
         -2   -1    0    0    0  501 -0.00000000000E+00 -0.00000000000E+00 -0.22058063508E+03  0.22058063508E+03  0.00000000000E+00 0.  1.
         23    2    1    2    0    0 -0.83033828833E+02  0.80980912621E+02  0.17441622700E+04  0.17503799946E+04  0.90970195993E+02 0.  0.
        254    2    1    2    0    0  0.83033828833E+02 -0.80980912621E+02  0.73847072646E+03  0.11734142720E+04  0.90449406573E+03 0.  0.
         23    2    4    4    0    0  0.72408175594E+02 -0.24999444933E+03 -0.11488199203E+03  0.29905715916E+03  0.92179953143E+02 0.  0.
         23    2    4    4    0    0  0.10625653239E+02  0.16901353671E+03  0.85335271849E+03  0.87435711284E+03  0.87241151479E+02 0.  0.
          1    1    3    3  502    0 -0.83715461862E+02  0.20359425555E+02  0.11016912852E+04  0.11050549636E+04  0.00000000000E+00 0. -1.
         -1    1    3    3    0  502  0.68163302940E+00  0.60621487066E+02  0.64247098477E+03  0.64532503097E+03  0.00000000000E+00 0.  1.
         11    1    5    5    0    0  0.32214343084E+02 -0.25604820404E+02 -0.44198016370E+02  0.60389033601E+02  0.00000000000E+00 0.  1.
        -11    1    5    5    0    0  0.40193832510E+02 -0.22438962892E+03 -0.70683975662E+02  0.23866812555E+03  0.00000000000E+00 0. -1.
          3    1    6    6  503    0  0.18825346631E+02  0.31824440404E+01  0.41233050792E+02  0.45438817145E+02  0.00000000000E+00 0.  1.
         -3    1    6    6    0  503 -0.81996933916E+01  0.16583109267E+03  0.81211966770E+03  0.82891829569E+03  0.00000000000E+00 0. -1.
<mgrwt>
<rscale>  0 0.15443789E+04</rscale>
<asrwt>0</asrwt>
<pdfrwt beam="1">  1        2 0.41587900E+00 0.15443789E+04</pdfrwt>
<pdfrwt beam="2">  1       -2 0.33935484E-01 0.15443789E+04</pdfrwt>
<totfact> 0.20771353E+01</totfact>
</mgrwt>
</event>
<event>
12    2  0.3555611E-008  0.1859583E+04  0.7818608E-02  0.8675240E-01
          4   -1    0    0  501    0  0.00000000000E+00  0.00000000000E+00  0.72111640220E+03  0.72111640220E+03  0.00000000000E+00 0. -1.
         -4   -1    0    0    0  501 -0.00000000000E+00 -0.00000000000E+00 -0.11988526841E+04  0.11988526841E+04  0.00000000000E+00 0.  1.
         23    2    1    2    0    0 -0.17437509493E+03  0.41270690505E+02 -0.90437568504E+03  0.92646850800E+03  0.91315787237E+02 0.  0.
        254    2    1    2    0    0  0.17437509493E+03 -0.41270690505E+02  0.42663940313E+03  0.99350057831E+03  0.87915429543E+03 0.  0.
         23    2    4    4    0    0 -0.12992988175E+03 -0.38500059846E+03  0.27966571563E+03  0.50241287170E+03  0.95386299695E+02 0.  0.
         23    2    4    4    0    0  0.30430497668E+03  0.34372990795E+03  0.14697368750E+03  0.49108770661E+03  0.93883450668E+02 0.  0.
          3    1    3    3  502    0  0.22799677747E+01  0.16153233912E+02 -0.16770136849E+03  0.16849295004E+03  0.00000000000E+00 0. -1.
         -3    1    3    3    0  502 -0.17665506271E+03  0.25117456593E+02 -0.73667431655E+03  0.75797555796E+03  0.00000000000E+00 0.  1.
         11    1    5    5    0    0 -0.12087149489E+03 -0.23063304840E+03  0.20086470835E+03  0.32885886387E+03  0.00000000000E+00 0. -1.
        -11    1    5    5    0    0 -0.90583868588E+01 -0.15436755006E+03  0.78801007284E+02  0.17355400783E+03  0.00000000000E+00 0.  1.
          1    1    6    6  503    0  0.11131261690E+03  0.65400184664E+02  0.27994283008E+02  0.13210360600E+03  0.00000000000E+00 0. -1.
         -1    1    6    6    0  503  0.19299235978E+03  0.27832972329E+03  0.11897940449E+03  0.35898410061E+03  0.00000000000E+00 0.  1.
<mgrwt>
<rscale>  0 0.18595831E+04</rscale>
<asrwt>0</asrwt>
<pdfrwt beam="1">  1        4 0.11094099E+00 0.18595831E+04</pdfrwt>
<pdfrwt beam="2">  1       -4 0.18443887E+00 0.18595831E+04</pdfrwt>
<totfact> 0.20224784E-01</totfact>
</mgrwt>
</event>
<event>
12    2  0.3555611E-008  0.1539839E+04  0.7818608E-02  0.8858384E-01
         -4   -1    0    0    0  501 -0.00000000000E+00  0.00000000000E+00  0.17742165556E+04  0.17742165556E+04  0.00000000000E+00 0.  1.
          4   -1    0    0  501    0  0.00000000000E+00 -0.00000000000E+00 -0.33410574098E+03  0.33410574098E+03  0.00000000000E+00 0. -1.
         23    2    1    2    0    0 -0.40487094795E+03 -0.95663352424E+02  0.86149422451E+03  0.96096691773E+03  0.90626467533E+02 0.  0.
        254    2    1    2    0    0  0.40487094795E+03  0.95663352424E+02  0.57861659006E+03  0.11473553788E+04  0.89919700038E+03 0.  0.
         23    2    4    4    0    0  0.35275415655E+03 -0.13277356304E+03  0.74933453024E+03  0.84375657406E+03  0.91425401535E+02 0.  0.
         23    2    4    4    0    0  0.52116791398E+02  0.22843691547E+03 -0.17071794018E+03  0.30359880475E+03  0.90155614639E+02 0.  0.
          3    1    3    3  502    0 -0.18995112738E+02  0.88300167838E+01  0.18350267723E+02  0.27848084851E+02  0.00000000000E+00 0. -1.
         -3    1    3    3    0  502 -0.38587583521E+03 -0.10449336921E+03  0.84314395679E+03  0.93311883288E+03  0.00000000000E+00 0.  1.
         11    1    5    5    0    0  0.26306015785E+03 -0.54167138015E+02  0.51953811113E+03  0.58485431896E+03  0.00000000000E+00 0.  1.
        -11    1    5    5    0    0  0.89693998703E+02 -0.78606425027E+02  0.22979641912E+03  0.25890225510E+03  0.00000000000E+00 0. -1.
          1    1    6    6  503    0  0.42647932481E+02  0.16133298070E+03 -0.67256611036E+02  0.17991839410E+03  0.00000000000E+00 0. -1.
         -1    1    6    6    0  503  0.94688589170E+01  0.67103934768E+02 -0.10346132914E+03  0.12368041065E+03  0.00000000000E+00 0.  1.
<mgrwt>
<rscale>  0 0.15398389E+04</rscale>
<asrwt>0</asrwt>
<pdfrwt beam="1">  1        4 0.51400884E-01 0.15398389E+04</pdfrwt>
<pdfrwt beam="2">  1       -4 0.27295639E+00 0.15398389E+04</pdfrwt>
<totfact> 0.32043414E-01</totfact>
</mgrwt>
</event>
<event>
12    2  0.3555611E-008  0.2638508E+04  0.7818608E-02  0.8355237E-01
          1   -1    0    0  501    0  0.00000000000E+00  0.00000000000E+00  0.24807079048E+04  0.24807079048E+04  0.00000000000E+00 0. -1.
         -1   -1    0    0    0  501 -0.00000000000E+00 -0.00000000000E+00 -0.70158648145E+03  0.70158648145E+03  0.00000000000E+00 0.  1.
         23    2    1    2    0    0 -0.19869067771E+03 -0.11116306549E+04  0.45231883990E+03  0.12198598655E+04  0.90912376382E+02 0.  0.
        254    2    1    2    0    0  0.19869067771E+03  0.11116306549E+04  0.13268025835E+04  0.19624345207E+04  0.90307444557E+03 0.  0.
         23    2    4    4    0    0  0.28973882198E+03  0.98911872950E+02  0.68709738712E+03  0.75775683172E+03  0.91435513122E+02 0.  0.
         23    2    4    4    0    0 -0.91048144269E+02  0.10127187820E+04  0.63970519633E+03  0.12046776890E+04  0.90202550857E+02 0.  0.
          2    1    3    3  502    0 -0.19653809807E+03 -0.10742303785E+04  0.41886616130E+03  0.11696354095E+04  0.00000000000E+00 0. -1.
         -2    1    3    3    0  502 -0.21525796446E+01 -0.37400276426E+02  0.33452678598E+02  0.50224456008E+02  0.00000000000E+00 0.  1.
         11    1    5    5    0    0  0.57906716085E+02  0.58622125229E+02  0.14469112937E+03  0.16650905156E+03  0.00000000000E+00 0.  1.
        -11    1    5    5    0    0  0.23183210590E+03  0.40289747721E+02  0.54240625775E+03  0.59124778016E+03  0.00000000000E+00 0. -1.
          4    1    6    6  503    0 -0.80247872600E+02  0.94839702070E+03  0.62231311579E+03  0.11371764349E+04  0.00000000000E+00 0. -1.
         -4    1    6    6    0  503 -0.10800271670E+02  0.64321761297E+02  0.17392080544E+02  0.67501254138E+02  0.00000000000E+00 0.  1.
<mgrwt>
<rscale>  0 0.26385080E+04</rscale>
<asrwt>0</asrwt>
<pdfrwt beam="1">  1        1 0.38164737E+00 0.26385080E+04</pdfrwt>
<pdfrwt beam="2">  1       -1 0.10793638E+00 0.26385080E+04</pdfrwt>
<totfact> 0.97837494E-01</totfact>
</mgrwt>
</event>
<event>
12    2  0.3555611E-008  0.2333936E+04  0.7818608E-02  0.8464660E-01
          1   -1    0    0  501    0  0.00000000000E+00  0.00000000000E+00  0.15481423524E+04  0.15481423524E+04  0.00000000000E+00 0. -1.
         -1   -1    0    0    0  501 -0.00000000000E+00 -0.00000000000E+00 -0.87964404169E+03  0.87964404169E+03  0.00000000000E+00 0.  1.
         23    2    1    2    0    0  0.45223651439E+03  0.55318353764E+03 -0.45041901227E+03  0.84954096304E+03  0.91173844969E+02 0.  0.
        254    2    1    2    0    0 -0.45223651439E+03 -0.55318353764E+03  0.11189173230E+04  0.15782454310E+04  0.85343586386E+03 0.  0.
         23    2    4    4    0    0 -0.49278727224E+03 -0.73023129528E+03  0.76665844976E+03  0.11715683615E+04  0.93435575708E+02 0.  0.
         23    2    4    4    0    0  0.40550757849E+02  0.17704775764E+03  0.35225887319E+03  0.40667706953E+03  0.91157296426E+02 0.  0.
          3    1    3    3  502    0  0.10232125981E+03  0.11847274625E+03 -0.56317061269E+02  0.16636418846E+03  0.00000000000E+00 0. -1.
         -3    1    3    3    0  502  0.34991525457E+03  0.43471079139E+03 -0.39410195100E+03  0.68317677457E+03  0.00000000000E+00 0.  1.
         11    1    5    5    0    0 -0.12793351247E+03 -0.26250080234E+03  0.27458416372E+03  0.40083677202E+03  0.00000000000E+00 0.  1.
        -11    1    5    5    0    0 -0.36485375976E+03 -0.46773049294E+03  0.49207428604E+03  0.77073158948E+03  0.00000000000E+00 0. -1.
          4    1    6    6  503    0  0.32543796987E+02  0.34794777847E+02  0.35704822516E+02  0.59536624347E+02  0.00000000000E+00 0. -1.
         -4    1    6    6    0  503  0.80069608620E+01  0.14225297979E+03  0.31655405068E+03  0.34714044518E+03  0.00000000000E+00 0.  1.
<mgrwt>
<rscale>  0 0.23339359E+04</rscale>
<asrwt>0</asrwt>
<pdfrwt beam="1">  1        1 0.23817575E+00 0.23339359E+04</pdfrwt>
<pdfrwt beam="2">  1       -1 0.13532985E+00 0.23339359E+04</pdfrwt>
<totfact> 0.24995003E+00</totfact>
</mgrwt>
</event>
<event>
12    2  0.3555611E-008  0.1837548E+04  0.7818608E-02  0.8686583E-01
         -2   -1    0    0    0  501 -0.00000000000E+00  0.00000000000E+00  0.33185348433E+03  0.33185348433E+03  0.00000000000E+00 0.  1.
          2   -1    0    0  501    0  0.00000000000E+00 -0.00000000000E+00 -0.25437312918E+04  0.25437312918E+04  0.00000000000E+00 0. -1.
         23    2    1    2    0    0 -0.28193204660E+03  0.22833517331E+03  0.92207941622E+02  0.37921751401E+03  0.60671147677E+02 0.  0.
        254    2    1    2    0    0  0.28193204660E+03 -0.22833517331E+03 -0.23040857491E+04  0.24963672622E+04  0.88961550009E+03 0.  0.
         23    2    4    4    0    0 -0.16995058631E+03 -0.38070170070E+03 -0.14754643549E+04  0.15359001260E+04  0.90427582418E+02 0.  0.
         23    2    4    4    0    0  0.45188263291E+03  0.15236652739E+03 -0.82862139422E+03  0.96046713619E+03  0.92033864111E+02 0.  0.
          3    1    3    3  502    0 -0.65439380356E+02  0.67714128195E+02 -0.44583005272E+00  0.94168542641E+02  0.00000000000E+00 0. -1.
         -3    1    3    3    0  502 -0.21649266625E+03  0.16062104512E+03  0.92653771675E+02  0.28504897137E+03  0.00000000000E+00 0.  1.
         11    1    5    5    0    0 -0.13272226145E+03 -0.18702059556E+03 -0.80518458598E+03  0.83720613910E+03  0.00000000000E+00 0. -1.
        -11    1    5    5    0    0 -0.37228324864E+02 -0.19368110514E+03 -0.67027976892E+03  0.69869398687E+03  0.00000000000E+00 0.  1.
          2    1    6    6  503    0  0.37956227531E+03  0.15117931451E+03 -0.74684214274E+03  0.85129072129E+03  0.00000000000E+00 0. -1.
         -2    1    6    6    0  503  0.72320357604E+02  0.11872128735E+01 -0.81779251476E+02  0.10917641490E+03  0.00000000000E+00 0.  1.
<mgrwt>
<rscale>  0 0.18375485E+04</rscale>
<asrwt>0</asrwt>
<pdfrwt beam="1">  1        2 0.39134328E+00 0.18375485E+04</pdfrwt>
<pdfrwt beam="2">  1       -2 0.51054381E-01 0.18375485E+04</pdfrwt>
<totfact> 0.11218108E+01</totfact>
</mgrwt>
</event>
<event>
12    2  0.3555611E-008  0.1654498E+04  0.7818608E-02  0.8787750E-01
          2   -1    0    0  501    0  0.00000000000E+00  0.00000000000E+00  0.29130159436E+04  0.29130159436E+04  0.00000000000E+00 0. -1.
         -2   -1    0    0    0  501 -0.00000000000E+00 -0.00000000000E+00 -0.23492513148E+03  0.23492513148E+03  0.00000000000E+00 0.  1.
         23    2    1    2    0    0  0.21688842766E+03 -0.38300371903E+03  0.23912641027E+03  0.50908254437E+03  0.90835885232E+02 0.  0.
        254    2    1    2    0    0 -0.21688842766E+03  0.38300371903E+03  0.24389644018E+04  0.26388585307E+04  0.90625302912E+03 0.  0.
         23    2    4    4    0    0  0.15522870938E+03 -0.36953606943E+01  0.17572822171E+04  0.17664680067E+04  0.90878050165E+02 0.  0.
         23    2    4    4    0    0 -0.37211713704E+03  0.38669907973E+03  0.68168218471E+03  0.87239052405E+03  0.91472856933E+02 0.  0.
          2    1    3    3  502    0  0.96391173762E+02 -0.13713219288E+03  0.13825987497E+03  0.21728389202E+03  0.00000000000E+00 0. -1.
         -2    1    3    3    0  502  0.12049725390E+03 -0.24587152616E+03  0.10086653530E+03  0.29179865235E+03  0.00000000000E+00 0.  1.
         11    1    5    5    0    0  0.15003698268E+03  0.17770260136E+02  0.16519979998E+04  0.16588924828E+04  0.00000000000E+00 0.  1.
        -11    1    5    5    0    0  0.51917267016E+01 -0.21465620830E+02  0.10528421734E+03  0.10757552381E+03  0.00000000000E+00 0. -1.
          3    1    6    6  503    0 -0.45610693501E+01 -0.76377271351E+00 -0.18292417187E+01  0.49732109989E+01  0.00000000000E+00 0. -1.
         -3    1    6    6    0  503 -0.36755606769E+03  0.38746285244E+03  0.68351142643E+03  0.86741731305E+03  0.00000000000E+00 0.  1.
<mgrwt>
<rscale>  0 0.16544977E+04</rscale>
<asrwt>0</asrwt>
<pdfrwt beam="1">  1        2 0.44815627E+00 0.16544977E+04</pdfrwt>
<pdfrwt beam="2">  1       -2 0.36142330E-01 0.16544977E+04</pdfrwt>
<totfact> 0.13627468E+01</totfact>
</mgrwt>
</event>
<event>
12    2  0.3555611E-008  0.1681581E+04  0.7818608E-02  0.8771939E-01
         -1   -1    0    0    0  501 -0.00000000000E+00  0.00000000000E+00  0.98858600932E+03  0.98858600932E+03  0.00000000000E+00 0.  1.
          1   -1    0    0  501    0  0.00000000000E+00 -0.00000000000E+00 -0.71509104101E+03  0.71509104101E+03  0.00000000000E+00 0. -1.
         23    2    1    2    0    0 -0.52255465618E+03 -0.28879925148E+03  0.16796019960E+03  0.62689167687E+03  0.91182068037E+02 0.  0.
        254    2    1    2    0    0  0.52255465618E+03  0.28879925148E+03  0.10553476871E+03  0.10767853735E+04  0.88986559475E+03 0.  0.
         23    2    4    4    0    0  0.68762068687E+03  0.27749118388E+02 -0.89746860155E+02  0.69999989609E+03  0.91395476025E+02 0.  0.
         23    2    4    4    0    0 -0.16506603069E+03  0.26105013309E+03  0.19528162886E+03  0.37678547736E+03  0.91860845335E+02 0.  0.
          1    1    3    3  502    0 -0.34140687157E+03 -0.16650338067E+03  0.14709933271E+03  0.40733308411E+03  0.00000000000E+00 0. -1.
         -1    1    3    3    0  502 -0.18114778461E+03 -0.12229587081E+03  0.20860866886E+02  0.21955859276E+03  0.00000000000E+00 0.  1.
         11    1    5    5    0    0  0.47183514957E+03  0.43829835968E+02 -0.96143437709E+02  0.48352148194E+03  0.00000000000E+00 0.  1.
        -11    1    5    5    0    0  0.21578553730E+03 -0.16080717580E+02  0.63965775541E+01  0.21647841415E+03  0.00000000000E+00 0. -1.
          3    1    6    6  503    0 -0.46410641715E+02  0.11443356461E+03  0.32630041848E+02  0.12772512676E+03  0.00000000000E+00 0. -1.
         -3    1    6    6    0  503 -0.11865538898E+03  0.14661656848E+03  0.16265158701E+03  0.24906035060E+03  0.00000000000E+00 0.  1.
<mgrwt>
<rscale>  0 0.16815814E+04</rscale>
<asrwt>0</asrwt>
<pdfrwt beam="1">  1        1 0.11001401E+00 0.16815814E+04</pdfrwt>
<pdfrwt beam="2">  1       -1 0.15209015E+00 0.16815814E+04</pdfrwt>
<totfact> 0.84466639E+00</totfact>
</mgrwt>
</event>
<event>
12    2  0.3555611E-008  0.1265242E+04  0.7818608E-02  0.9057592E-01
         -2   -1    0    0    0  501 -0.00000000000E+00  0.00000000000E+00  0.24635808686E+03  0.24635808686E+03  0.00000000000E+00 0.  1.
          2   -1    0    0  501    0  0.00000000000E+00 -0.00000000000E+00 -0.16245028791E+04  0.16245028791E+04  0.00000000000E+00 0. -1.
         23    2    1    2    0    0 -0.28976254417E+03 -0.92997850143E+02 -0.34826673902E+03  0.47145181436E+03  0.91466713161E+02 0.  0.
        254    2    1    2    0    0  0.28976254417E+03  0.92997850143E+02 -0.10298780533E+04  0.13994091516E+04  0.89726597894E+03 0.  0.
         23    2    4    4    0    0  0.10470803203E+03 -0.34991646819E+03 -0.74160456762E+03  0.83169848583E+03  0.91322121852E+02 0.  0.
         23    2    4    4    0    0  0.18505451214E+03  0.44291431833E+03 -0.28827348564E+03  0.56771066580E+03  0.93677807929E+02 0.  0.
          4    1    3    3  502    0 -0.28005302229E+03 -0.10481627272E+03 -0.31233201675E+03  0.43239731152E+03  0.00000000000E+00 0. -1.
         -4    1    3    3    0  502 -0.97095218818E+01  0.11818422577E+02 -0.35934722270E+02  0.39054502839E+02  0.00000000000E+00 0.  1.
         11    1    5    5    0    0  0.67244119874E+02 -0.32392508831E+03 -0.64674755277E+03  0.72645139652E+03  0.00000000000E+00 0. -1.
        -11    1    5    5    0    0  0.37463912154E+02 -0.25991379874E+02 -0.94857014849E+02  0.10524708931E+03  0.00000000000E+00 0.  1.
          1    1    6    6  503    0  0.17399228939E+03  0.33558652566E+03 -0.25011732222E+03  0.45326626594E+03  0.00000000000E+00 0. -1.
         -1    1    6    6    0  503  0.11062222756E+02  0.10732779267E+03 -0.38156163421E+02  0.11444439986E+03  0.00000000000E+00 0.  1.
<mgrwt>
<rscale>  0 0.12652421E+04</rscale>
<asrwt>0</asrwt>
<pdfrwt beam="1">  1        2 0.24992353E+00 0.12652421E+04</pdfrwt>
<pdfrwt beam="2">  1       -2 0.37901243E-01 0.12652421E+04</pdfrwt>
<totfact> 0.69726854E+01</totfact>
</mgrwt>
</event>
<event>
12    2  0.3555611E-008  0.1395085E+04  0.7818608E-02  0.8957384E-01
          2   -1    0    0  501    0  0.00000000000E+00  0.00000000000E+00  0.15513087522E+04  0.15513087522E+04  0.00000000000E+00 0. -1.
         -2   -1    0    0    0  501 -0.00000000000E+00 -0.00000000000E+00 -0.31364850539E+03  0.31364850539E+03  0.00000000000E+00 0.  1.
         23    2    1    2    0    0 -0.17643786017E+03  0.11581785685E+03 -0.90274015377E+02  0.24689135454E+03  0.90894711779E+02 0.  0.
        254    2    1    2    0    0  0.17643786017E+03 -0.11581785685E+03  0.13279342622E+04  0.16180659031E+04  0.90010208725E+03 0.  0.
         23    2    4    4    0    0  0.19999423335E+03 -0.47759093044E+03  0.58255214911E+03  0.78476325108E+03  0.91627308203E+02 0.  0.
         23    2    4    4    0    0 -0.23556373179E+02  0.36177307359E+03  0.74538211309E+03  0.83330265198E+03  0.85814659524E+02 0.  0.
          1    1    3    3  502    0 -0.44301662350E+02 -0.88650801649E+01 -0.28332359786E+01  0.45268688510E+02  0.00000000000E+00 0. -1.
         -1    1    3    3    0  502 -0.13213619782E+03  0.12468293701E+03 -0.87440779398E+02  0.20162266603E+03  0.00000000000E+00 0.  1.
         11    1    5    5    0    0  0.10208455538E+03 -0.32090103763E+03  0.42275971925E+03  0.54048544164E+03  0.00000000000E+00 0.  1.
        -11    1    5    5    0    0  0.97909677969E+02 -0.15668989281E+03  0.15979242986E+03  0.24427780944E+03  0.00000000000E+00 0. -1.
          3    1    6    6  503    0 -0.94297047757E+01  0.69300012806E+01  0.62651894129E+02  0.63735422552E+02  0.00000000000E+00 0. -1.
         -3    1    6    6    0  503 -0.14126668404E+02  0.35484307231E+03  0.68273021896E+03  0.76956722943E+03  0.00000000000E+00 0.  1.
<mgrwt>
<rscale>  0 0.13950852E+04</rscale>
<asrwt>0</asrwt>
<pdfrwt beam="1">  1        2 0.23866288E+00 0.13950852E+04</pdfrwt>
<pdfrwt beam="2">  1       -2 0.48253617E-01 0.13950852E+04</pdfrwt>
<totfact> 0.47031802E+01</totfact>
</mgrwt>
</event>
<event>
12    2  0.3555611E-008  0.2293585E+04  0.7818608E-02  0.8480455E-01
          2   -1    0    0  501    0  0.00000000000E+00  0.00000000000E+00  0.15491630555E+04  0.15491630555E+04  0.00000000000E+00 0. -1.
         -2   -1    0    0    0  501 -0.00000000000E+00 -0.00000000000E+00 -0.84893145499E+03  0.84893145499E+03  0.00000000000E+00 0.  1.
         23    2    1    2    0    0 -0.13321648723E+03 -0.15926965751E+03 -0.69273752616E+03  0.72899867079E+03  0.91871244643E+02 0.  0.
        254    2    1    2    0    0  0.13321648723E+03  0.15926965751E+03  0.13929691267E+04  0.16690958397E+04  0.89577032660E+03 0.  0.
         23    2    4    4    0    0  0.21562211784E+03 -0.45439596460E+02 -0.16797900656E+02  0.23922767649E+03  0.91597254876E+02 0.  0.
         23    2    4    4    0    0 -0.82405630615E+02  0.20470925397E+03  0.14097670274E+04  0.14298681632E+04  0.91560505919E+02 0.  0.
          1    1    3    3  502    0  0.73113446053E+01 -0.22667466964E+02 -0.32529706500E+02  0.40316890052E+02  0.00000000000E+00 0. -1.
         -1    1    3    3    0  502 -0.14052783183E+03 -0.13660219054E+03 -0.66020781966E+03  0.68868178074E+03  0.00000000000E+00 0.  1.
         11    1    5    5    0    0  0.14666585653E+03  0.70483630587E+01 -0.34370186070E+02  0.15080405360E+03  0.00000000000E+00 0. -1.
        -11    1    5    5    0    0  0.68956261316E+02 -0.52487959518E+02  0.17572285414E+02  0.88423622883E+02  0.00000000000E+00 0.  1.
          1    1    6    6  503    0 -0.55818035926E+02  0.13693339481E+03  0.11695405391E+04  0.11788517636E+04  0.00000000000E+00 0. -1.
         -1    1    6    6    0  503 -0.26587594688E+02  0.67775859151E+02  0.24022648822E+03  0.25101639970E+03  0.00000000000E+00 0.  1.
<mgrwt>
<rscale>  0 0.22935852E+04</rscale>
<asrwt>0</asrwt>
<pdfrwt beam="1">  1        2 0.23833278E+00 0.22935852E+04</pdfrwt>
<pdfrwt beam="2">  1       -2 0.13060484E+00 0.22935852E+04</pdfrwt>
<totfact> 0.46374318E+00</totfact>
</mgrwt>
</event>
<event>
12    2  0.3555611E-008  0.1835840E+04  0.7818608E-02  0.8687469E-01
          2   -1    0    0  501    0  0.00000000000E+00  0.00000000000E+00  0.20567547136E+04  0.20567547136E+04  0.00000000000E+00 0. -1.
         -2   -1    0    0    0  501 -0.00000000000E+00 -0.00000000000E+00 -0.40966328705E+03  0.40966328705E+03  0.00000000000E+00 0.  1.
         23    2    1    2    0    0 -0.26543270787E+03  0.29272789134E+03  0.13874167824E+04  0.14453732840E+04  0.89635157035E+02 0.  0.
        254    2    1    2    0    0  0.26543270787E+03 -0.29272789134E+03  0.25967464416E+03  0.10210447166E+04  0.90496256925E+03 0.  0.
         23    2    4    4    0    0  0.29971683831E+03  0.15846653387E+03 -0.16988201536E+03  0.39014294520E+03  0.91704923632E+02 0.  0.
         23    2    4    4    0    0 -0.34284130442E+02 -0.45119442521E+03  0.42955665952E+03  0.63090177142E+03  0.93628577367E+02 0.  0.
          3    1    3    3  502    0 -0.15067598948E+03  0.11141640479E+03  0.73824315383E+03  0.76165597433E+03  0.00000000000E+00 0. -1.
         -3    1    3    3    0  502 -0.11475671839E+03  0.18131148655E+03  0.64917362853E+03  0.68371730968E+03  0.00000000000E+00 0.  1.
         11    1    5    5    0    0  0.21440951668E+03  0.63968312783E+02 -0.10262369019E+03  0.24616053232E+03  0.00000000000E+00 0.  1.
        -11    1    5    5    0    0  0.85307321627E+02  0.94498221087E+02 -0.67258325174E+02  0.14398241287E+03  0.00000000000E+00 0. -1.
          1    1    6    6  503    0  0.31195066789E+02 -0.20055050140E+03  0.18356886076E+03  0.27366249732E+03  0.00000000000E+00 0. -1.
         -1    1    6    6    0  503 -0.65479197230E+02 -0.25064392382E+03  0.24598779877E+03  0.35723927410E+03  0.00000000000E+00 0.  1.
<mgrwt>
<rscale>  0 0.18358397E+04</rscale>
<asrwt>0</asrwt>
<pdfrwt beam="1">  1        2 0.31642380E+00 0.18358397E+04</pdfrwt>
<pdfrwt beam="2">  1       -2 0.63025122E-01 0.18358397E+04</pdfrwt>
<totfact> 0.13640450E+01</totfact>
</mgrwt>
</event>
<event>
12    2  0.3555611E-008  0.1576100E+04  0.7818608E-02  0.8835366E-01
          2   -1    0    0  501    0  0.00000000000E+00  0.00000000000E+00  0.82677793724E+03  0.82677793724E+03  0.00000000000E+00 0. -1.
         -2   -1    0    0    0  501 -0.00000000000E+00 -0.00000000000E+00 -0.75113655287E+03  0.75113655287E+03  0.00000000000E+00 0.  1.
         23    2    1    2    0    0 -0.40140489541E+02  0.49232863542E+03  0.17004297222E+03  0.53036934079E+03  0.91532950885E+02 0.  0.
        254    2    1    2    0    0  0.40140489541E+02 -0.49232863542E+03 -0.94401587846E+02  0.10475451493E+04  0.91893440241E+03 0.  0.
         23    2    4    4    0    0 -0.25163889282E+03  0.86419007145E+02  0.18448291003E+03  0.33600206399E+03  0.89850240605E+02 0.  0.
         23    2    4    4    0    0  0.29177938236E+03 -0.57874764256E+03 -0.27888449787E+03  0.71154308533E+03  0.91831135157E+02 0.  0.
          4    1    3    3  502    0 -0.31233480769E+02  0.47999715902E+03  0.17838006752E+03  0.51302266176E+03  0.00000000000E+00 0. -1.
         -4    1    3    3    0  502 -0.89070087718E+01  0.12331476399E+02 -0.83370953032E+01  0.17346679035E+02  0.00000000000E+00 0.  1.
         11    1    5    5    0    0 -0.33345339513E+01 -0.49249197953E+01 -0.71636285880E+01  0.93108284384E+01  0.00000000000E+00 0. -1.
        -11    1    5    5    0    0 -0.24830435887E+03  0.91343926940E+02  0.19164653861E+03  0.32669123555E+03  0.00000000000E+00 0.  1.
          1    1    6    6  503    0  0.84882147241E+01 -0.46571674384E+01  0.53909785404E+01  0.11081590471E+02  0.00000000000E+00 0. -1.
         -1    1    6    6    0  503  0.28329116764E+03 -0.57409047513E+03 -0.28427547641E+03  0.70046149486E+03  0.00000000000E+00 0.  1.
<mgrwt>
<rscale>  0 0.15761004E+04</rscale>
<asrwt>0</asrwt>
<pdfrwt beam="1">  1        2 0.12719661E+00 0.15761004E+04</pdfrwt>
<pdfrwt beam="2">  1       -2 0.11555947E+00 0.15761004E+04</pdfrwt>
<totfact> 0.18449007E+01</totfact>
</mgrwt>
</event>
<event>
12    2  0.3555611E-008  0.1249390E+04  0.7818608E-02  0.9070691E-01
          2   -1    0    0  501    0  0.00000000000E+00  0.00000000000E+00  0.33747224299E+04  0.33747224299E+04  0.00000000000E+00 0.  1.
         -2   -1    0    0    0  501 -0.00000000000E+00 -0.00000000000E+00 -0.11563735537E+03  0.11563735537E+03  0.00000000000E+00 0. -1.
         23    2    1    2    0    0 -0.24753060365E+03  0.62272605516E+02  0.41300646589E+03  0.49415518888E+03  0.92009416333E+02 0.  0.
        254    2    1    2    0    0  0.24753060365E+03 -0.62272605516E+02  0.28460786087E+04  0.29962045964E+04  0.90107117350E+03 0.  0.
         23    2    4    4    0    0 -0.20069559823E+03 -0.21559251225E+03  0.41595332885E+03  0.51862500134E+03  0.95895076748E+02 0.  0.
         23    2    4    4    0    0  0.44822620188E+03  0.15331990673E+03  0.24301252798E+04  0.24775795951E+04  0.92076340447E+02 0.  0.
          1    1    3    3  502    0 -0.13710507493E+03  0.67756372447E+02  0.17963278867E+03  0.23591665127E+03  0.00000000000E+00 0. -1.
         -1    1    3    3    0  502 -0.11042552872E+03 -0.54837669313E+01  0.23337367722E+03  0.25823853761E+03  0.00000000000E+00 0.  1.
         11    1    5    5    0    0 -0.17082259389E+03 -0.11909339917E+03  0.26590488975E+03  0.33774103496E+03  0.00000000000E+00 0. -1.
        -11    1    5    5    0    0 -0.29873004347E+02 -0.96499113082E+02  0.15004843910E+03  0.18088396638E+03  0.00000000000E+00 0.  1.
          1    1    6    6  503    0  0.13213706584E+03  0.26392802911E+02  0.89755289527E+03  0.90761114142E+03  0.00000000000E+00 0. -1.
         -1    1    6    6    0  503  0.31608913604E+03  0.12692710382E+03  0.15325723846E+04  0.15699684537E+04  0.00000000000E+00 0.  1.
<mgrwt>
<rscale>  0 0.12493902E+04</rscale>
<asrwt>0</asrwt>
<pdfrwt beam="1">  1        2 0.51918799E+00 0.12493902E+04</pdfrwt>
<pdfrwt beam="2">  1       -2 0.17790365E-01 0.12493902E+04</pdfrwt>
<totfact> 0.26105401E+01</totfact>
</mgrwt>
</event>
<event>
12    2  0.3555611E-008  0.1467817E+04  0.7818608E-02  0.8906141E-01
         -1   -1    0    0    0  501 -0.00000000000E+00  0.00000000000E+00  0.78045748756E+03  0.78045748756E+03  0.00000000000E+00 0.  1.
          1   -1    0    0  501    0  0.00000000000E+00 -0.00000000000E+00 -0.69013617930E+03  0.69013617930E+03  0.00000000000E+00 0. -1.
         23    2    1    2    0    0  0.21520085486E+03 -0.17718019008E+03 -0.32747652554E+03  0.43990943548E+03  0.92602424166E+02 0.  0.
        254    2    1    2    0    0 -0.21520085486E+03  0.17718019008E+03  0.41779783380E+03  0.10306842314E+04  0.90002818133E+03 0.  0.
         23    2    4    4    0    0 -0.39963028012E+03  0.29133365383E+03  0.56132687754E+03  0.75375394383E+03  0.92073262931E+02 0.  0.
         23    2    4    4    0    0  0.18442942526E+03 -0.11415346375E+03 -0.14352904374E+03  0.27693028755E+03  0.95102952512E+02 0.  0.
          2    1    3    3  502    0  0.12511551460E+03 -0.15791406446E+03 -0.21836948459E+03  0.29711273206E+03  0.00000000000E+00 0. -1.
         -2    1    3    3    0  502  0.90085340255E+02 -0.19266125611E+02 -0.10910704094E+03  0.14279670342E+03  0.00000000000E+00 0.  1.
         11    1    5    5    0    0 -0.37972895914E+03  0.26640052942E+03  0.55093289566E+03  0.72020162455E+03  0.00000000000E+00 0. -1.
        -11    1    5    5    0    0 -0.19901320981E+02  0.24933124406E+02  0.10393981874E+02  0.33552319273E+02  0.00000000000E+00 0.  1.
          3    1    6    6  503    0  0.13074152811E+03 -0.86358220698E+02 -0.47994528298E+02  0.16387362265E+03  0.00000000000E+00 0. -1.
         -3    1    6    6    0  503  0.53687897151E+02 -0.27795243054E+02 -0.95534515440E+02  0.11305666490E+03  0.00000000000E+00 0.  1.
<mgrwt>
<rscale>  0 0.14678174E+04</rscale>
<asrwt>0</asrwt>
<pdfrwt beam="1">  1        1 0.10617480E+00 0.14678174E+04</pdfrwt>
<pdfrwt beam="2">  1       -1 0.12007038E+00 0.14678174E+04</pdfrwt>
<totfact> 0.16695934E+01</totfact>
</mgrwt>
</event>
<event>
12    2  0.3555611E-008  0.1467279E+04  0.7818608E-02  0.8906509E-01
          1   -1    0    0  501    0  0.00000000000E+00  0.00000000000E+00  0.60915395441E+03  0.60915395441E+03  0.00000000000E+00 0. -1.
         -1   -1    0    0    0  501 -0.00000000000E+00 -0.00000000000E+00 -0.88356431884E+03  0.88356431884E+03  0.00000000000E+00 0.  1.
         23    2    1    2    0    0  0.15218349887E+02  0.27681592569E+03 -0.44545488419E+03  0.53265406774E+03  0.91824000942E+02 0.  0.
        254    2    1    2    0    0 -0.15218349887E+02 -0.27681592569E+03  0.17104451975E+03  0.96006420551E+03  0.90311040082E+03 0.  0.
         23    2    4    4    0    0  0.24684153850E+03 -0.15136883669E+02  0.42617195916E+03  0.50119021600E+03  0.91701818210E+02 0.  0.
         23    2    4    4    0    0 -0.26205988839E+03 -0.26167904202E+03 -0.25512743941E+03  0.45887398951E+03  0.91236077114E+02 0.  0.
          3    1    3    3  502    0 -0.89926920107E+01  0.12072130321E+03 -0.11780881790E+03  0.16891838009E+03  0.00000000000E+00 0. -1.
         -3    1    3    3    0  502  0.24211041897E+02  0.15609462248E+03 -0.32764606629E+03  0.36373568765E+03  0.00000000000E+00 0.  1.
         11    1    5    5    0    0  0.24776958481E+03 -0.24692767554E+02  0.38199552300E+03  0.45598254300E+03  0.00000000000E+00 0.  1.
        -11    1    5    5    0    0 -0.92804630309E+00  0.95558838850E+01  0.44176436161E+02  0.45207673007E+02  0.00000000000E+00 0. -1.
          4    1    6    6  503    0 -0.76440401580E+02 -0.11513047605E+03 -0.13669215434E+03  0.19437825642E+03  0.00000000000E+00 0. -1.
         -4    1    6    6    0  503 -0.18561948681E+03 -0.14654856597E+03 -0.11843528507E+03  0.26449573309E+03  0.00000000000E+00 0.  1.
<mgrwt>
<rscale>  0 0.14672787E+04</rscale>
<asrwt>0</asrwt>
<pdfrwt beam="1">  1        1 0.93715993E-01 0.14672787E+04</pdfrwt>
<pdfrwt beam="2">  1       -1 0.13593297E+00 0.14672787E+04</pdfrwt>
<totfact> 0.14708920E+01</totfact>
</mgrwt>
</event>
<event>
12    2  0.3555611E-008  0.1572641E+04  0.7818608E-02  0.8837534E-01
          1   -1    0    0  501    0  0.00000000000E+00  0.00000000000E+00  0.95644477705E+03  0.95644477705E+03  0.00000000000E+00 0. -1.
         -1   -1    0    0    0  501 -0.00000000000E+00 -0.00000000000E+00 -0.64645617237E+03  0.64645617237E+03  0.00000000000E+00 0.  1.
         23    2    1    2    0    0 -0.42308989033E+03 -0.26364279514E+03  0.24922920356E+03  0.56438988091E+03  0.88927852996E+02 0.  0.
        254    2    1    2    0    0  0.42308989033E+03  0.26364279514E+03  0.60759401112E+02  0.10385110685E+04  0.90901097675E+03 0.  0.
         23    2    4    4    0    0  0.47047876870E+03  0.34740466298E+03  0.37254874837E+03  0.69960198718E+03  0.92790618567E+02 0.  0.
         23    2    4    4    0    0 -0.47388878373E+02 -0.83761867842E+02 -0.31178934725E+03  0.33890908133E+03  0.91569711413E+02 0.  0.
          2    1    3    3  502    0 -0.18817662691E+03 -0.10120401113E+03  0.15380234302E+03  0.26326385149E+03  0.00000000000E+00 0. -1.
         -2    1    3    3    0  502 -0.23491326343E+03 -0.16243878400E+03  0.95426860542E+02  0.30112602942E+03  0.00000000000E+00 0.  1.
         11    1    5    5    0    0  0.14068712873E+03  0.74699515759E+02  0.62323673339E+02  0.17104714585E+03  0.00000000000E+00 0.  1.
        -11    1    5    5    0    0  0.32979163998E+03  0.27270514722E+03  0.31022507503E+03  0.52855484133E+03  0.00000000000E+00 0. -1.
          3    1    6    6  503    0 -0.33659958428E+01 -0.86209264728E+02 -0.17360221896E+03  0.19385844753E+03  0.00000000000E+00 0. -1.
         -3    1    6    6    0  503 -0.44022882530E+02  0.24473968855E+01 -0.13818712830E+03  0.14505063380E+03  0.00000000000E+00 0.  1.
<mgrwt>
<rscale>  0 0.15726406E+04</rscale>
<asrwt>0</asrwt>
<pdfrwt beam="1">  1        1 0.14714535E+00 0.15726406E+04</pdfrwt>
<pdfrwt beam="2">  1       -1 0.99454796E-01 0.15726406E+04</pdfrwt>
<totfact> 0.15206196E+01</totfact>
</mgrwt>
</event>
<event>
12    2  0.3555611E-008  0.1116387E+04  0.7818608E-02  0.9189366E-01
          1   -1    0    0  501    0  0.00000000000E+00  0.00000000000E+00  0.14365057958E+04  0.14365057958E+04  0.00000000000E+00 0. -1.
         -1   -1    0    0    0  501 -0.00000000000E+00 -0.00000000000E+00 -0.21690131716E+03  0.21690131716E+03  0.00000000000E+00 0.  1.
         23    2    1    2    0    0 -0.83174081165E+02  0.15807906083E+03  0.21163506964E+03  0.29222071769E+03  0.93255712384E+02 0.  0.
        254    2    1    2    0    0  0.83174081165E+02 -0.15807906083E+03  0.10079694090E+04  0.13611863953E+04  0.89717286850E+03 0.  0.
         23    2    4    4    0    0 -0.16194947045E+03  0.38421061793E+02  0.10130347803E+04  0.10307178117E+04  0.91847331748E+02 0.  0.
         23    2    4    4    0    0  0.24512355161E+03 -0.19650012262E+03 -0.50653712236E+01  0.33046858362E+03  0.10240104017E+03 0.  0.
          2    1    3    3  502    0 -0.37420091897E+02  0.40092614291E+02  0.12453252200E+02  0.56238460938E+02  0.00000000000E+00 0.  1.
         -2    1    3    3    0  502 -0.45753989268E+02  0.11798644654E+03  0.19918181744E+03  0.23598225675E+03  0.00000000000E+00 0. -1.
         11    1    5    5    0    0 -0.20731065004E+02 -0.13019479707E+02  0.35031150374E+03  0.35116582061E+03  0.00000000000E+00 0.  1.
        -11    1    5    5    0    0 -0.14121840544E+03  0.51440541500E+02  0.66272327651E+03  0.67955199108E+03  0.00000000000E+00 0. -1.
          4    1    6    6  503    0  0.21184496322E+03 -0.19240871864E+03 -0.31311443455E+02  0.28788853736E+03  0.00000000000E+00 0. -1.
         -4    1    6    6    0  503  0.33278588395E+02 -0.40914039809E+01  0.26246072231E+02  0.42580046262E+02  0.00000000000E+00 0.  1.
<mgrwt>
<rscale>  0 0.11163870E+04</rscale>
<asrwt>0</asrwt>
<pdfrwt beam="1">  1        1 0.22100089E+00 0.11163870E+04</pdfrwt>
<pdfrwt beam="2">  1       -1 0.33369434E-01 0.11163870E+04</pdfrwt>
<totfact> 0.60906325E+01</totfact>
</mgrwt>
</event>
<event>
12    2  0.3555611E-008  0.2329740E+04  0.7818608E-02  0.8466286E-01
         -1   -1    0    0    0  501 -0.00000000000E+00  0.00000000000E+00  0.46868320992E+03  0.46868320992E+03  0.00000000000E+00 0.  1.
          1   -1    0    0  501    0  0.00000000000E+00 -0.00000000000E+00 -0.28951803223E+04  0.28951803223E+04  0.00000000000E+00 0. -1.
         23    2    1    2    0    0  0.40470622903E+03 -0.80086122213E+03 -0.43367268635E+03  0.10031404866E+04  0.11424976182E+03 0.  0.
        254    2    1    2    0    0 -0.40470622903E+03  0.80086122213E+03 -0.19928244261E+04  0.23607230457E+04  0.89246752111E+03 0.  0.
         23    2    4    4    0    0 -0.67816722702E+03  0.56419547742E+03 -0.14989624752E+04  0.17419454700E+04  0.96219507921E+02 0.  0.
         23    2    4    4    0    0  0.27346099799E+03  0.23666574470E+03 -0.49386195083E+03  0.61877757566E+03  0.90523309293E+02 0.  0.
          2    1    3    3  502    0  0.11586831885E+03 -0.19788231007E+03 -0.16540159630E+03  0.28273762397E+03  0.00000000000E+00 0. -1.
         -2    1    3    3    0  502  0.28883791018E+03 -0.60297891206E+03 -0.26827109004E+03  0.72040286264E+03  0.00000000000E+00 0.  1.
         11    1    5    5    0    0 -0.49459184640E+03  0.46382597761E+03 -0.11327926524E+04  0.13202177189E+04  0.00000000000E+00 0.  1.
        -11    1    5    5    0    0 -0.18357538062E+03  0.10036949981E+03 -0.36616982288E+03  0.42172775110E+03  0.00000000000E+00 0. -1.
          1    1    6    6  503    0  0.71488307545E+02  0.95485791220E+02 -0.22082411049E+03  0.25098088018E+03  0.00000000000E+00 0. -1.
         -1    1    6    6    0  503  0.20197269045E+03  0.14117995348E+03 -0.27303784034E+03  0.36779669548E+03  0.00000000000E+00 0.  1.
<mgrwt>
<rscale>  0 0.23297402E+04</rscale>
<asrwt>0</asrwt>
<pdfrwt beam="1">  1        1 0.44541235E+00 0.23297402E+04</pdfrwt>
<pdfrwt beam="2">  1       -1 0.72105111E-01 0.23297402E+04</pdfrwt>
<totfact> 0.12464407E+00</totfact>
</mgrwt>
</event>
<event>
12    2  0.3555611E-008  0.1761592E+04  0.7818608E-02  0.8726995E-01
         -1   -1    0    0    0  501 -0.00000000000E+00  0.00000000000E+00  0.24552275755E+03  0.24552275755E+03  0.00000000000E+00 0.  1.
          1   -1    0    0  501    0  0.00000000000E+00 -0.00000000000E+00 -0.31597968321E+04  0.31597968321E+04  0.00000000000E+00 0. -1.
         23    2    1    2    0    0  0.25728809900E+03  0.59010834315E+03 -0.96980260014E+03  0.11675801125E+04  0.91110994819E+02 0.  0.
        254    2    1    2    0    0 -0.25728809900E+03 -0.59010834315E+03 -0.19444714744E+04  0.22377394771E+04  0.90115682880E+03 0.  0.
         23    2    4    4    0    0  0.29761933793E+03 -0.49773854035E+02 -0.41497089944E+03  0.52093699135E+03  0.90109903575E+02 0.  0.
         23    2    4    4    0    0 -0.55490743693E+03 -0.54033448912E+03 -0.15295005749E+04  0.17168024857E+04  0.90305828161E+02 0.  0.
          1    1    3    3  502    0  0.25415563992E+03  0.59144872282E+03 -0.96998967647E+03  0.11641677944E+04  0.00000000000E+00 0. -1.
         -1    1    3    3    0  502  0.31324590784E+01 -0.13403796652E+01  0.18707632919E+00  0.34123181384E+01  0.00000000000E+00 0.  1.
         11    1    5    5    0    0  0.14158480939E+03 -0.13970877303E+02 -0.26891914685E+03  0.30423502627E+03  0.00000000000E+00 0. -1.
        -11    1    5    5    0    0  0.15603452854E+03 -0.35802976731E+02 -0.14605175259E+03  0.21670196509E+03  0.00000000000E+00 0.  1.
          4    1    6    6  503    0 -0.43287658202E+03 -0.46913254565E+03 -0.12390564521E+04  0.13938179121E+04  0.00000000000E+00 0. -1.
         -4    1    6    6    0  503 -0.12203085491E+03 -0.71201943468E+02 -0.29044412282E+03  0.32298457361E+03  0.00000000000E+00 0.  1.
<mgrwt>
<rscale>  0 0.17615925E+04</rscale>
<asrwt>0</asrwt>
<pdfrwt beam="1">  1        1 0.48612258E+00 0.17615925E+04</pdfrwt>
<pdfrwt beam="2">  1       -1 0.37772733E-01 0.17615925E+04</pdfrwt>
<totfact> 0.29294030E+00</totfact>
</mgrwt>
</event>
<event>
12    2  0.3555611E-008  0.1652219E+04  0.7818608E-02  0.8789095E-01
         -2   -1    0    0    0  501 -0.00000000000E+00  0.00000000000E+00  0.30502617654E+03  0.30502617654E+03  0.00000000000E+00 0. -1.
          2   -1    0    0  501    0  0.00000000000E+00 -0.00000000000E+00 -0.22373727639E+04  0.22373727639E+04  0.00000000000E+00 0.  1.
         23    2    1    2    0    0 -0.37903222237E+03  0.23588860867E+03 -0.12339505130E+03  0.47189713375E+03  0.90286792299E+02 0.  0.
        254    2    1    2    0    0  0.37903222237E+03 -0.23588860867E+03 -0.18089515361E+04  0.20705018067E+04  0.90297464550E+03 0.  0.
         23    2    4    4    0    0  0.13550208979E+03  0.21506887827E+03 -0.13509369584E+04  0.13775597338E+04  0.89580779136E+02 0.  0.
         23    2    4    4    0    0  0.24353013258E+03 -0.45095748694E+03 -0.45801457774E+03  0.69294207292E+03  0.87873673560E+02 0.  0.
          4    1    3    3  502    0 -0.19030179209E+03  0.13338818329E+03 -0.19195430544E+02  0.23318585734E+03  0.00000000000E+00 0. -1.
         -4    1    3    3    0  502 -0.18873043028E+03  0.10250042538E+03 -0.10419962075E+03  0.23871127641E+03  0.00000000000E+00 0.  1.
         11    1    5    5    0    0  0.10714346459E+03  0.18064562361E+03 -0.88893948700E+03  0.91341445954E+03  0.00000000000E+00 0. -1.
        -11    1    5    5    0    0  0.28358625202E+02  0.34423254667E+02 -0.46199747136E+03  0.46414527427E+03  0.00000000000E+00 0.  1.
          3    1    6    6  503    0  0.24953428368E+03 -0.44899078641E+03 -0.45255604473E+03  0.68459262240E+03  0.00000000000E+00 0. -1.
         -3    1    6    6    0  503 -0.60041511087E+01 -0.19667005299E+01 -0.54585330074E+01  0.83494505270E+01  0.00000000000E+00 0.  1.
<mgrwt>
<rscale>  0 0.16522194E+04</rscale>
<asrwt>0</asrwt>
<pdfrwt beam="1">  1        2 0.34421119E+00 0.16522194E+04</pdfrwt>
<pdfrwt beam="2">  1       -2 0.46927105E-01 0.16522194E+04</pdfrwt>
<totfact> 0.20239291E+01</totfact>
</mgrwt>
</event>
<event>
12    2  0.3555611E-008  0.1484738E+04  0.7818608E-02  0.8894666E-01
         -1   -1    0    0    0  501 -0.00000000000E+00  0.00000000000E+00  0.55085348923E+03  0.55085348923E+03  0.00000000000E+00 0.  1.
          1   -1    0    0  501    0  0.00000000000E+00 -0.00000000000E+00 -0.10004692027E+04  0.10004692027E+04  0.00000000000E+00 0. -1.
         23    2    1    2    0    0 -0.45631968043E+02  0.52364745092E+02  0.32207015251E+03  0.34176293504E+03  0.90820579133E+02 0.  0.
        254    2    1    2    0    0  0.45631968043E+02 -0.52364745092E+02 -0.77168586595E+03  0.12095597569E+04  0.92882258085E+03 0.  0.
         23    2    4    4    0    0 -0.38987924045E+03  0.66401859186E+02 -0.14500661948E+03  0.43130826976E+03  0.92654599639E+02 0.  0.
         23    2    4    4    0    0  0.43551120849E+03 -0.11876660428E+03 -0.62667924646E+03  0.77825148711E+03  0.95775676597E+02 0.  0.
          2    1    3    3  502    0 -0.34523654539E+02  0.40236612154E+02  0.63730081168E+02  0.82899884958E+02  0.00000000000E+00 0. -1.
         -2    1    3    3    0  502 -0.11108313504E+02  0.12128132939E+02  0.25834007134E+03  0.25886305008E+03  0.00000000000E+00 0.  1.
         11    1    5    5    0    0 -0.35075969277E+03  0.87821318058E+02 -0.12790592488E+03  0.38354252905E+03  0.00000000000E+00 0. -1.
        -11    1    5    5    0    0 -0.39119547684E+02 -0.21419458872E+02 -0.17100694603E+02  0.47765740707E+02  0.00000000000E+00 0.  1.
          3    1    6    6  503    0  0.28359101920E+03 -0.85276961016E+02 -0.33094152251E+03  0.44409269029E+03  0.00000000000E+00 0. -1.
         -3    1    6    6    0  503  0.15192018929E+03 -0.33489643262E+02 -0.29573772396E+03  0.33415879682E+03  0.00000000000E+00 0.  1.
<mgrwt>
<rscale>  0 0.14847383E+04</rscale>
<asrwt>0</asrwt>
<pdfrwt beam="1">  1        1 0.15391834E+00 0.14847383E+04</pdfrwt>
<pdfrwt beam="2">  1       -1 0.84746691E-01 0.14847383E+04</pdfrwt>
<totfact> 0.20182275E+01</totfact>
</mgrwt>
</event>
<event>
12    2  0.3555611E-008  0.2061414E+04  0.7818608E-02  0.8578434E-01
         -2   -1    0    0    0  501 -0.00000000000E+00  0.00000000000E+00  0.26623554132E+03  0.26623554132E+03  0.00000000000E+00 0.  1.
          2   -1    0    0  501    0  0.00000000000E+00 -0.00000000000E+00 -0.39902912940E+04  0.39902912940E+04  0.00000000000E+00 0. -1.
         23    2    1    2    0    0 -0.21990030447E+03  0.47059702080E+03 -0.18141129888E+03  0.55762639538E+03  0.90661113891E+02 0.  0.
        254    2    1    2    0    0  0.21990030447E+03 -0.47059702080E+03 -0.35426444538E+04  0.36989004399E+04  0.92828715315E+03 0.  0.
         23    2    4    4    0    0  0.55721719582E+03 -0.21236834633E+03 -0.24448856214E+04  0.25182204747E+04  0.91527807821E+02 0.  0.
         23    2    4    4    0    0 -0.33731689134E+03 -0.25822867447E+03 -0.10977588324E+04  0.11806799652E+04  0.92010829396E+02 0.  0.
          1    1    3    3  502    0 -0.45895102289E+02  0.37247444565E+02 -0.87631519089E+01  0.59753873281E+02  0.00000000000E+00 0. -1.
         -1    1    3    3    0  502 -0.17400520218E+03  0.43334957623E+03 -0.17264814697E+03  0.49787252210E+03  0.00000000000E+00 0.  1.
         11    1    5    5    0    0  0.50831937212E+03 -0.16704315952E+03 -0.22261335785E+04  0.22895332953E+04  0.00000000000E+00 0. -1.
        -11    1    5    5    0    0  0.48897823698E+02 -0.45325186809E+02 -0.21875204296E+03  0.22868717940E+03  0.00000000000E+00 0.  1.
          3    1    6    6  503    0 -0.13335423865E+03 -0.56456623989E+02 -0.30581238790E+03  0.33836654674E+03  0.00000000000E+00 0. -1.
         -3    1    6    6    0  503 -0.20396265269E+03 -0.20177205048E+03 -0.79194644446E+03  0.84231341847E+03  0.00000000000E+00 0.  1.
<mgrwt>
<rscale>  0 0.20614144E+04</rscale>
<asrwt>0</asrwt>
<pdfrwt beam="1">  1        2 0.61389102E+00 0.20614144E+04</pdfrwt>
<pdfrwt beam="2">  1       -2 0.40959311E-01 0.20614144E+04</pdfrwt>
<totfact> 0.18351124E+00</totfact>
</mgrwt>
</event>
<event>
12    2  0.3555611E-008  0.3453971E+04  0.7818608E-02  0.8124786E-01
          2   -1    0    0  501    0  0.00000000000E+00  0.00000000000E+00  0.18276811970E+04  0.18276811970E+04  0.00000000000E+00 0. -1.
         -2   -1    0    0    0  501 -0.00000000000E+00 -0.00000000000E+00 -0.16318372499E+04  0.16318372499E+04  0.00000000000E+00 0.  1.
         23    2    1    2    0    0 -0.13320739098E+04  0.25702882038E+02 -0.81706234032E+03  0.15655433324E+04  0.90848876401E+02 0.  0.
        254    2    1    2    0    0  0.13320739098E+04 -0.25702882038E+02  0.10129062875E+04  0.18939751146E+04  0.88661211819E+03 0.  0.
         23    2    4    4    0    0  0.85279998714E+03 -0.33986271310E+03  0.29050880909E+03  0.96742332310E+03  0.93477463116E+02 0.  0.
         23    2    4    4    0    0  0.47927392263E+03  0.31415983107E+03  0.72239747838E+03  0.92655179145E+03  0.90775619509E+02 0.  0.
          1    1    3    3  502    0 -0.38853514331E+03 -0.58780864715E+01 -0.19313223383E+03  0.43392876055E+03  0.00000000000E+00 0. -1.
         -1    1    3    3    0  502 -0.94353876646E+03  0.31580968510E+02 -0.62393010650E+03  0.11316145718E+04  0.00000000000E+00 0.  1.
         11    1    5    5    0    0  0.81752210165E+03 -0.34186176190E+03  0.26897854083E+03  0.92604606060E+03  0.00000000000E+00 0. -1.
        -11    1    5    5    0    0  0.35277885490E+02  0.19990487994E+01  0.21530268262E+02  0.41377262502E+02  0.00000000000E+00 0.  1.
          3    1    6    6  503    0  0.44611849838E+03  0.31450226944E+03  0.69372973280E+03  0.88271985037E+03  0.00000000000E+00 0. -1.
         -3    1    6    6    0  503  0.33155424258E+02 -0.34243837257E+00  0.28667745580E+02  0.43831941075E+02  0.00000000000E+00 0.  1.
<mgrwt>
<rscale>  0 0.34539706E+04</rscale>
<asrwt>0</asrwt>
<pdfrwt beam="1">  1        2 0.28118172E+00 0.34539706E+04</pdfrwt>
<pdfrwt beam="2">  1       -2 0.25105188E+00 0.34539706E+04</pdfrwt>
<totfact> 0.43494523E-01</totfact>
</mgrwt>
</event>
<event>
12    2  0.3555611E-008  0.2892038E+04  0.7818608E-02  0.8275250E-01
          2   -1    0    0  501    0  0.00000000000E+00  0.00000000000E+00  0.10377358878E+04  0.10377358878E+04  0.00000000000E+00 0. -1.
         -2   -1    0    0    0  501 -0.00000000000E+00 -0.00000000000E+00 -0.20149352304E+04  0.20149352304E+04  0.00000000000E+00 0.  1.
         23    2    1    2    0    0  0.39223331238E+03  0.23047439613E+02  0.87891785184E+03  0.96687599294E+03  0.89299717956E+02 0.  0.
        254    2    1    2    0    0 -0.39223331238E+03 -0.23047439613E+02 -0.18561171944E+04  0.20857951252E+04  0.86659800896E+03 0.  0.
         23    2    4    4    0    0 -0.20452911060E+02 -0.38033223832E+03 -0.52120258560E+03  0.65185762220E+03  0.90527848259E+02 0.  0.
         23    2    4    4    0    0 -0.37178040132E+03  0.35728479871E+03 -0.13349146088E+04  0.14339375030E+04  0.91140855259E+02 0.  0.
          2    1    3    3  502    0  0.61152779844E+02  0.27053340828E+01  0.23115657879E+03  0.23912412098E+03  0.00000000000E+00 0.  1.
         -2    1    3    3    0  502  0.33108053254E+03  0.20342105530E+02  0.64776127305E+03  0.72775187196E+03  0.00000000000E+00 0. -1.
         11    1    5    5    0    0 -0.33427834798E+02 -0.20999126773E+03 -0.22258705745E+03  0.30782909350E+03  0.00000000000E+00 0. -1.
        -11    1    5    5    0    0  0.12974923738E+02 -0.17034097059E+03 -0.29861552815E+03  0.34402852870E+03  0.00000000000E+00 0.  1.
          1    1    6    6  503    0 -0.28692228827E+03  0.28944575405E+03 -0.94431825656E+03  0.10285135943E+04  0.00000000000E+00 0. -1.
         -1    1    6    6    0  503 -0.84858113049E+02  0.67839044659E+02 -0.39059635227E+03  0.40542390869E+03  0.00000000000E+00 0.  1.
<mgrwt>
<rscale>  0 0.28920378E+04</rscale>
<asrwt>0</asrwt>
<pdfrwt beam="1">  1        2 0.15965168E+00 0.28920378E+04</pdfrwt>
<pdfrwt beam="2">  1       -2 0.30999003E+00 0.28920378E+04</pdfrwt>
<totfact> 0.56795467E-01</totfact>
</mgrwt>
</event>
<event>
12    2  0.3555611E-008  0.2082971E+04  0.7818608E-02  0.8568782E-01
         -2   -1    0    0    0  501 -0.00000000000E+00  0.00000000000E+00  0.61872148108E+03  0.61872148108E+03  0.00000000000E+00 0. -1.
          2   -1    0    0  501    0  0.00000000000E+00 -0.00000000000E+00 -0.17531181321E+04  0.17531181321E+04  0.00000000000E+00 0.  1.
         23    2    1    2    0    0 -0.20108300796E+03  0.56614674985E+03 -0.11438480075E+04  0.12952622008E+04  0.91429677925E+02 0.  0.
        254    2    1    2    0    0  0.20108300796E+03 -0.56614674985E+03  0.94513564444E+01  0.10765774124E+04  0.89329338876E+03 0.  0.
         23    2    4    4    0    0 -0.19231207392E+02 -0.86412358182E+02 -0.38859905453E+03  0.40844367709E+03  0.89331277806E+02 0.  0.
         23    2    4    4    0    0  0.22031421535E+03 -0.47973439167E+03  0.39805041097E+03  0.66813373535E+03  0.96307417193E+02 0.  0.
          2    1    3    3  502    0 -0.10154415361E+01  0.92211439535E+02 -0.20281012160E+03  0.22279121645E+03  0.00000000000E+00 0. -1.
         -2    1    3    3    0  502 -0.20006756642E+03  0.47393531032E+03 -0.94103788588E+03  0.10724709843E+04  0.00000000000E+00 0.  1.
         11    1    5    5    0    0 -0.55169064121E+02 -0.50130718468E+02 -0.22057030852E+03  0.23282606291E+03  0.00000000000E+00 0. -1.
        -11    1    5    5    0    0  0.35937856729E+02 -0.36281639714E+02 -0.16802874601E+03  0.17561761418E+03  0.00000000000E+00 0.  1.
          1    1    6    6  503    0  0.13514554302E+03 -0.29206857778E+03  0.29978552086E+03  0.43981783780E+03  0.00000000000E+00 0. -1.
         -1    1    6    6    0  503  0.85168672325E+02 -0.18766581389E+03  0.98264890107E+02  0.22831589755E+03  0.00000000000E+00 0.  1.
<mgrwt>
<rscale>  0 0.20829708E+04</rscale>
<asrwt>0</asrwt>
<pdfrwt beam="1">  1        2 0.26971048E+00 0.20829708E+04</pdfrwt>
<pdfrwt beam="2">  1       -2 0.95187921E-01 0.20829708E+04</pdfrwt>
<totfact> 0.78437444E+00</totfact>
</mgrwt>
</event>
<event>
12    2  0.3555611E-008  0.3068317E+04  0.7818608E-02  0.8224487E-01
         -1   -1    0    0    0  501 -0.00000000000E+00  0.00000000000E+00  0.11098672957E+04  0.11098672957E+04  0.00000000000E+00 0.  1.
          1   -1    0    0  501    0  0.00000000000E+00 -0.00000000000E+00 -0.21206517442E+04  0.21206517442E+04  0.00000000000E+00 0. -1.
         23    2    1    2    0    0 -0.13652901314E+04  0.82523582535E+01 -0.11733396483E+03  0.13735059058E+04  0.93091189733E+02 0.  0.
        254    2    1    2    0    0  0.13652901314E+04 -0.82523582535E+01 -0.89345048371E+03  0.18570131341E+04  0.88665594725E+03 0.  0.
         23    2    4    4    0    0  0.26199841471E+03  0.15822549482E+03  0.12547418936E+03  0.34315661449E+03  0.91291912871E+02 0.  0.
         23    2    4    4    0    0  0.11032917167E+04 -0.16647785307E+03 -0.10189246731E+04  0.15138565196E+04  0.92663826052E+02 0.  0.
          3    1    3    3  502    0 -0.72854079880E+02 -0.72371904412E+00 -0.27660193274E+02  0.77931553407E+02  0.00000000000E+00 0. -1.
         -3    1    3    3    0  502 -0.12924360516E+04  0.89760772976E+01 -0.89673771554E+02  0.12955743524E+04  0.00000000000E+00 0.  1.
         11    1    5    5    0    0  0.37300028307E+02  0.51340808679E+02 -0.21798852297E+01  0.63497422366E+02  0.00000000000E+00 0. -1.
        -11    1    5    5    0    0  0.22469838640E+03  0.10688468614E+03  0.12765407459E+03  0.27965919213E+03  0.00000000000E+00 0.  1.
          1    1    6    6  503    0  0.86888382700E+03 -0.15649469856E+03 -0.76575382556E+03  0.11686867060E+04  0.00000000000E+00 0. -1.
         -1    1    6    6    0  503  0.23440788974E+03 -0.99831545079E+01 -0.25317084751E+03  0.34516981354E+03  0.00000000000E+00 0.  1.
<mgrwt>
<rscale>  0 0.30683168E+04</rscale>
<asrwt>0</asrwt>
<pdfrwt beam="1">  1        1 0.32625412E+00 0.30683168E+04</pdfrwt>
<pdfrwt beam="2">  1       -1 0.17074881E+00 0.30683168E+04</pdfrwt>
<totfact> 0.50718590E-01</totfact>
</mgrwt>
</event>
<event>
12    2  0.3555611E-008  0.1254696E+04  0.7818608E-02  0.9066284E-01
          1   -1    0    0  501    0  0.00000000000E+00  0.00000000000E+00  0.30491921478E+04  0.30491921478E+04  0.00000000000E+00 0. -1.
         -1   -1    0    0    0  501 -0.00000000000E+00 -0.00000000000E+00 -0.12907203201E+03  0.12907203201E+03  0.00000000000E+00 0.  1.
         23    2    1    2    0    0 -0.30373110714E+03  0.22012523019E+02  0.75869415068E+03  0.82251251278E+03  0.90403997588E+02 0.  0.
        254    2    1    2    0    0  0.30373110714E+03 -0.22012523019E+02  0.21614259651E+04  0.23557516670E+04  0.88603982840E+03 0.  0.
         23    2    4    4    0    0  0.24498829013E+03 -0.41330248390E+03  0.82640238900E+03  0.96004841857E+03  0.88959833368E+02 0.  0.
         23    2    4    4    0    0  0.58742817007E+02  0.39128996089E+03  0.13350235761E+04  0.13957032484E+04  0.95608875047E+02 0.  0.
          3    1    3    3  502    0 -0.19139639437E+03  0.11275312420E+02  0.58283884901E+03  0.61356404422E+03  0.00000000000E+00 0. -1.
         -3    1    3    3    0  502 -0.11233471277E+03  0.10737210599E+02  0.17585530168E+03  0.20894846856E+03  0.00000000000E+00 0.  1.
         11    1    5    5    0    0  0.55137639212E+02 -0.15693346514E+03  0.33765061691E+03  0.37639900484E+03  0.00000000000E+00 0. -1.
        -11    1    5    5    0    0  0.18985065092E+03 -0.25636901876E+03  0.48875177209E+03  0.58364941373E+03  0.00000000000E+00 0.  1.
          1    1    6    6  503    0  0.49228074297E+02  0.23043285158E+03  0.63328746648E+03  0.67570386827E+03  0.00000000000E+00 0. -1.
         -1    1    6    6    0  503  0.95147427095E+01  0.16085710930E+03  0.70173610959E+03  0.71999938017E+03  0.00000000000E+00 0.  1.
<mgrwt>
<rscale>  0 0.12546959E+04</rscale>
<asrwt>0</asrwt>
<pdfrwt beam="1">  1        1 0.46910643E+00 0.12546959E+04</pdfrwt>
<pdfrwt beam="2">  1       -1 0.19857238E-01 0.12546959E+04</pdfrwt>
<totfact> 0.11363448E+01</totfact>
</mgrwt>
</event>
<event>
12    2  0.3555611E-008  0.1202807E+04  0.7818608E-02  0.9110403E-01
         -1   -1    0    0    0  501 -0.00000000000E+00  0.00000000000E+00  0.58411492053E+03  0.58411492053E+03  0.00000000000E+00 0.  1.
          1   -1    0    0  501    0  0.00000000000E+00 -0.00000000000E+00 -0.61920340122E+03  0.61920340122E+03  0.00000000000E+00 0. -1.
         23    2    1    2    0    0 -0.95974571958E+02  0.15858743613E+03 -0.16395024074E+03  0.26379008278E+03  0.91347867923E+02 0.  0.
        254    2    1    2    0    0  0.95974571958E+02 -0.15858743613E+03  0.12886176004E+03  0.93952823897E+03  0.91200157086E+03 0.  0.
         23    2    4    4    0    0 -0.16305244061E+03 -0.43259025356E+03 -0.10971132591E+03  0.48385188854E+03  0.91409239945E+02 0.  0.
         23    2    4    4    0    0  0.25902701257E+03  0.27400281742E+03  0.23857308595E+03  0.45567635043E+03  0.92473140992E+02 0.  0.
          1    1    3    3  502    0 -0.16637021537E+02  0.55316685772E+02 -0.10712000788E+03  0.12170218691E+03  0.00000000000E+00 0. -1.
         -1    1    3    3    0  502 -0.79337550422E+02  0.10327075036E+03 -0.56830232860E+02  0.14208789588E+03  0.00000000000E+00 0.  1.
         11    1    5    5    0    0 -0.80194670042E+02 -0.11817964193E+03 -0.74892012735E+01  0.14301643613E+03  0.00000000000E+00 0.  1.
        -11    1    5    5    0    0 -0.82857770567E+02 -0.31441061163E+03 -0.10222212464E+03  0.34083545240E+03  0.00000000000E+00 0. -1.
          4    1    6    6  503    0  0.18002036493E+03  0.22924814993E+03  0.21400941394E+03  0.36161039157E+03  0.00000000000E+00 0. -1.
         -4    1    6    6    0  503  0.79006647641E+02  0.44754667499E+02  0.24563672007E+02  0.94065958863E+02  0.00000000000E+00 0.  1.
<mgrwt>
<rscale>  0 0.12028066E+04</rscale>
<asrwt>0</asrwt>
<pdfrwt beam="1">  1        1 0.95262061E-01 0.12028066E+04</pdfrwt>
<pdfrwt beam="2">  1       -1 0.89863835E-01 0.12028066E+04</pdfrwt>
<totfact> 0.39255540E+01</totfact>
</mgrwt>
</event>
<event>
12    2  0.3555611E-008  0.1540398E+04  0.7818608E-02  0.8858024E-01
         -1   -1    0    0    0  501 -0.00000000000E+00  0.00000000000E+00  0.59297697224E+03  0.59297697224E+03  0.00000000000E+00 0.  1.
          1   -1    0    0  501    0  0.00000000000E+00 -0.00000000000E+00 -0.10003869989E+04  0.10003869989E+04  0.00000000000E+00 0. -1.
         23    2    1    2    0    0 -0.39296307799E+02 -0.48177773505E+03 -0.28395864738E+03  0.56679665244E+03  0.83498179601E+02 0.  0.
        254    2    1    2    0    0  0.39296307799E+02  0.48177773505E+03 -0.12345137929E+03  0.10265673187E+04  0.89718795744E+03 0.  0.
         23    2    4    4    0    0  0.15848442244E+03  0.37844610143E+02  0.32641533529E+03  0.37739046635E+03  0.96576737893E+02 0.  0.
         23    2    4    4    0    0 -0.11918811464E+03  0.44393312491E+03 -0.44986671459E+03  0.64917685236E+03  0.88136817974E+02 0.  0.
          4    1    3    3  502    0 -0.20452185144E+02 -0.44827670666E+03 -0.27806185478E+03  0.52790973915E+03  0.00000000000E+00 0. -1.
         -4    1    3    3    0  502 -0.18844122655E+02 -0.33501028393E+02 -0.58967926038E+01  0.38886913288E+02  0.00000000000E+00 0.  1.
         11    1    5    5    0    0  0.12769271225E+03 -0.13056475384E+02  0.24459298345E+03  0.27622749295E+03  0.00000000000E+00 0. -1.
        -11    1    5    5    0    0  0.30791710185E+02  0.50901085527E+02  0.81822351846E+02  0.10116297339E+03  0.00000000000E+00 0.  1.
          3    1    6    6  503    0 -0.44624272762E+02  0.25795026259E+03 -0.30489441007E+03  0.40185851364E+03  0.00000000000E+00 0. -1.
         -3    1    6    6    0  503 -0.74563841876E+02  0.18598286232E+03 -0.14497230452E+03  0.24731833872E+03  0.00000000000E+00 0.  1.
<mgrwt>
<rscale>  0 0.15403979E+04</rscale>
<asrwt>0</asrwt>
<pdfrwt beam="1">  1        1 0.15390569E+00 0.15403979E+04</pdfrwt>
<pdfrwt beam="2">  1       -1 0.91227228E-01 0.15403979E+04</pdfrwt>
<totfact> 0.17094370E+01</totfact>
</mgrwt>
</event>
<event>
12    2  0.3555611E-008  0.1725438E+04  0.7818608E-02  0.8746988E-01
          2   -1    0    0  501    0  0.00000000000E+00  0.00000000000E+00  0.65750157209E+03  0.65750157209E+03  0.00000000000E+00 0.  1.
         -2   -1    0    0    0  501 -0.00000000000E+00 -0.00000000000E+00 -0.11319885735E+04  0.11319885735E+04  0.00000000000E+00 0. -1.
         23    2    1    2    0    0  0.78979835886E+01 -0.13852835518E+03  0.45795179713E+03  0.48632178162E+03  0.86813267740E+02 0.  0.
        254    2    1    2    0    0 -0.78979835886E+01  0.13852835518E+03 -0.93243879853E+03  0.13031683640E+04  0.89975173714E+03 0.  0.
         23    2    4    4    0    0 -0.37404576066E+03 -0.13062968923E+03 -0.24472109457E+03  0.47410580228E+03  0.88958141018E+02 0.  0.
         23    2    4    4    0    0  0.36614777707E+03  0.26915804441E+03 -0.68771770396E+03  0.82906256167E+03  0.88762848708E+02 0.  0.
          3    1    3    3  502    0 -0.29819266999E+02 -0.12925619571E+02  0.94703449280E+02  0.10012494011E+03  0.00000000000E+00 0. -1.
         -3    1    3    3    0  502  0.37717250588E+02 -0.12560273561E+03  0.36324834785E+03  0.38619684152E+03  0.00000000000E+00 0.  1.
         11    1    5    5    0    0 -0.12402266916E+03 -0.21814054009E+02 -0.12112873065E+03  0.17472734418E+03  0.00000000000E+00 0.  1.
        -11    1    5    5    0    0 -0.25002309150E+03 -0.10881563523E+03 -0.12359236392E+03  0.29937845810E+03  0.00000000000E+00 0. -1.
          2    1    6    6  503    0  0.27425365927E+03  0.16373572830E+03 -0.42754610943E+03  0.53368542610E+03  0.00000000000E+00 0. -1.
         -2    1    6    6    0  503  0.91894117798E+02  0.10542231611E+03 -0.26017159453E+03  0.29537713557E+03  0.00000000000E+00 0.  1.
<mgrwt>
<rscale>  0 0.17254382E+04</rscale>
<asrwt>0</asrwt>
<pdfrwt beam="1">  1        2 0.10115409E+00 0.17254382E+04</pdfrwt>
<pdfrwt beam="2">  1       -2 0.17415209E+00 0.17254382E+04</pdfrwt>
<totfact> 0.83784449E+00</totfact>
</mgrwt>
</event>
<event>
12    2  0.3555611E-008  0.2895997E+04  0.7818608E-02  0.8274070E-01
          1   -1    0    0  501    0  0.00000000000E+00  0.00000000000E+00  0.10321821543E+04  0.10321821543E+04  0.00000000000E+00 0. -1.
         -1   -1    0    0    0  501 -0.00000000000E+00 -0.00000000000E+00 -0.20313269185E+04  0.20313269185E+04  0.00000000000E+00 0.  1.
         23    2    1    2    0    0  0.12329887204E+03  0.12656121654E+04 -0.13707491968E+03  0.12807977499E+04  0.68385505642E+02 0.  0.
        254    2    1    2    0    0 -0.12329887204E+03 -0.12656121654E+04 -0.86206984453E+03  0.17827113230E+04  0.90438845599E+03 0.  0.
         23    2    4    4    0    0  0.20053801881E+03 -0.11929252560E+04 -0.62388311516E+03  0.13641187051E+04  0.91123744349E+02 0.  0.
         23    2    4    4    0    0 -0.32383689085E+03 -0.72686909393E+02 -0.23818672937E+03  0.41859261794E+03  0.91286050798E+02 0.  0.
          2    1    3    3  502    0  0.12571455586E+03  0.12270337562E+04 -0.12264962447E+03  0.12395398012E+04  0.00000000000E+00 0. -1.
         -2    1    3    3    0  502 -0.24156838134E+01  0.38578409231E+02 -0.14425295210E+02  0.41257948676E+02  0.00000000000E+00 0.  1.
         11    1    5    5    0    0  0.16655095873E+03 -0.81711164154E+03 -0.39446445129E+03  0.92250358261E+03  0.00000000000E+00 0.  1.
        -11    1    5    5    0    0  0.33987060080E+02 -0.37581361446E+03 -0.22941866387E+03  0.44161512248E+03  0.00000000000E+00 0. -1.
          3    1    6    6  503    0 -0.28846103349E+03 -0.33826048298E+02 -0.21388308730E+03  0.36069369889E+03  0.00000000000E+00 0. -1.
         -3    1    6    6    0  503 -0.35375857363E+02 -0.38860861095E+02 -0.24303642070E+02  0.57898919049E+02  0.00000000000E+00 0.  1.
<mgrwt>
<rscale>  0 0.28959968E+04</rscale>
<asrwt>0</asrwt>
<pdfrwt beam="1">  1        1 0.15879726E+00 0.28959968E+04</pdfrwt>
<pdfrwt beam="2">  1       -1 0.31251183E+00 0.28959968E+04</pdfrwt>
<totfact> 0.33584315E-01</totfact>
</mgrwt>
</event>
<event>
12    2  0.3555611E-008  0.2267681E+04  0.7818608E-02  0.8490774E-01
          1   -1    0    0  501    0  0.00000000000E+00  0.00000000000E+00  0.85735900024E+03  0.85735900024E+03  0.00000000000E+00 0. -1.
         -1   -1    0    0    0  501 -0.00000000000E+00 -0.00000000000E+00 -0.14994818695E+04  0.14994818695E+04  0.00000000000E+00 0.  1.
         23    2    1    2    0    0 -0.65931312664E+03 -0.65790285914E+03 -0.50313386609E+03  0.10620368603E+04  0.85138912910E+02 0.  0.
        254    2    1    2    0    0  0.65931312664E+03  0.65790285914E+03 -0.13898900318E+03  0.12948040094E+04  0.88863350643E+03 0.  0.
         23    2    4    4    0    0 -0.11302704280E+03  0.71089709734E+02 -0.26652301342E+03  0.31173612336E+03  0.91192295118E+02 0.  0.
         23    2    4    4    0    0  0.77234016943E+03  0.58681314940E+03  0.12753401024E+03  0.98306788605E+03  0.96428912550E+02 0.  0.
          1    1    3    3  502    0 -0.65665782424E+03 -0.63929341567E+03 -0.49162313571E+03  0.10399946524E+04  0.00000000000E+00 0. -1.
         -1    1    3    3    0  502 -0.26553024030E+01 -0.18609443470E+02 -0.11510730381E+02  0.22042207944E+02  0.00000000000E+00 0.  1.
         11    1    5    5    0    0 -0.88476012924E+02  0.48232792135E+02 -0.25821146017E+03  0.27717785854E+03  0.00000000000E+00 0. -1.
        -11    1    5    5    0    0 -0.24551029872E+02  0.22856917599E+02 -0.83115532518E+01  0.34558264820E+02  0.00000000000E+00 0.  1.
          2    1    6    6  503    0  0.18898732327E+03  0.13833240608E+03  0.72589006532E+02  0.24519630258E+03  0.00000000000E+00 0. -1.
         -2    1    6    6    0  503  0.58335284616E+03  0.44848074332E+03  0.54945003710E+02  0.73787158346E+03  0.00000000000E+00 0.  1.
<mgrwt>
<rscale>  0 0.22676810E+04</rscale>
<asrwt>0</asrwt>
<pdfrwt beam="1">  1        1 0.13190139E+00 0.22676810E+04</pdfrwt>
<pdfrwt beam="2">  1       -1 0.23068952E+00 0.22676810E+04</pdfrwt>
<totfact> 0.16713911E+00</totfact>
</mgrwt>
</event>
<event>
12    2  0.3555611E-008  0.1555785E+04  0.7818608E-02  0.8848181E-01
          1   -1    0    0  501    0  0.00000000000E+00  0.00000000000E+00  0.30381829647E+03  0.30381829647E+03  0.00000000000E+00 0. -1.
         -1   -1    0    0    0  501 -0.00000000000E+00 -0.00000000000E+00 -0.19917058836E+04  0.19917058836E+04  0.00000000000E+00 0.  1.
         23    2    1    2    0    0 -0.47776174741E+03  0.13067576566E+03 -0.97969698536E+03  0.11016124317E+04  0.91713268444E+02 0.  0.
        254    2    1    2    0    0  0.47776174741E+03 -0.13067576566E+03 -0.70819060178E+03  0.11939117483E+04  0.82374686121E+03 0.  0.
         23    2    4    4    0    0 -0.13676953204E+03 -0.27671190603E+03 -0.21958147262E+03  0.39040209829E+03  0.94458410949E+02 0.  0.
         23    2    4    4    0    0  0.61453127945E+03  0.14603614037E+03 -0.48860912916E+03  0.80350965005E+03  0.88958579716E+02 0.  0.
          1    1    3    3  502    0 -0.14655833431E+02  0.78375954295E+01 -0.85103790065E+01  0.18672115748E+02  0.00000000000E+00 0. -1.
         -1    1    3    3    0  502 -0.46310591398E+03  0.12283817023E+03 -0.97118660635E+03  0.10829403160E+04  0.00000000000E+00 0.  1.
         11    1    5    5    0    0 -0.48668325128E+02 -0.19813767333E+03 -0.12641072936E+03  0.24001419950E+03  0.00000000000E+00 0. -1.
        -11    1    5    5    0    0 -0.88101206910E+02 -0.78574232699E+02 -0.93170743260E+02  0.15038789879E+03  0.00000000000E+00 0.  1.
          3    1    6    6  503    0  0.17169155521E+03  0.73857496016E+02 -0.17543062573E+03  0.25633732520E+03  0.00000000000E+00 0. -1.
         -3    1    6    6    0  503  0.44283972424E+03  0.72178644359E+02 -0.31317850343E+03  0.54717232485E+03  0.00000000000E+00 0.  1.
<mgrwt>
<rscale>  0 0.15557849E+04</rscale>
<asrwt>0</asrwt>
<pdfrwt beam="1">  1        1 0.46741276E-01 0.15557849E+04</pdfrwt>
<pdfrwt beam="2">  1       -1 0.30641629E+00 0.15557849E+04</pdfrwt>
<totfact> 0.24979517E+00</totfact>
</mgrwt>
</event>
<event>
12    2  0.3555611E-008  0.1731880E+04  0.7818608E-02  0.8743388E-01
          2   -1    0    0  501    0  0.00000000000E+00  0.00000000000E+00  0.25569748350E+04  0.25569748350E+04  0.00000000000E+00 0.  1.
         -2   -1    0    0    0  501 -0.00000000000E+00 -0.00000000000E+00 -0.29325739189E+03  0.29325739189E+03  0.00000000000E+00 0. -1.
         23    2    1    2    0    0  0.31929549130E+03  0.17107530462E+03 -0.13118699602E+02  0.37403580729E+03  0.92273041764E+02 0.  0.
        254    2    1    2    0    0 -0.31929549130E+03 -0.17107530462E+03  0.22768361428E+04  0.24761964196E+04  0.90352062348E+03 0.  0.
         23    2    4    4    0    0 -0.62261310239E+03 -0.64555159339E+02  0.16206481604E+04  0.17397250186E+04  0.91259172306E+02 0.  0.
         23    2    4    4    0    0  0.30331761108E+03 -0.10652014528E+03  0.65618798232E+03  0.73647140105E+03  0.91974680617E+02 0.  0.
          3    1    3    3  502    0  0.32023773455E+02 -0.10004187246E+02 -0.76512008088E+01  0.34411432731E+02  0.00000000000E+00 0.  1.
         -3    1    3    3    0  502  0.28727171785E+03  0.18107949186E+03 -0.54674987929E+01  0.33962437456E+03  0.00000000000E+00 0. -1.
         11    1    5    5    0    0 -0.16933232185E+03  0.21911738472E+02  0.41172146135E+03  0.44572202238E+03  0.00000000000E+00 0.  1.
        -11    1    5    5    0    0 -0.45328078054E+03 -0.86466897811E+02  0.12089266991E+04  0.12940029962E+04  0.00000000000E+00 0. -1.
          4    1    6    6  503    0  0.19388406253E+03 -0.33138577063E+02  0.45835938796E+03  0.49878103766E+03  0.00000000000E+00 0. -1.
         -4    1    6    6    0  503  0.10943354855E+03 -0.73381568216E+02  0.19782859436E+03  0.23769036339E+03  0.00000000000E+00 0.  1.
<mgrwt>
<rscale>  0 0.17318796E+04</rscale>
<asrwt>0</asrwt>
<pdfrwt beam="1">  1        2 0.39338073E+00 0.17318796E+04</pdfrwt>
<pdfrwt beam="2">  1       -2 0.45116523E-01 0.17318796E+04</pdfrwt>
<totfact> 0.14287042E+01</totfact>
</mgrwt>
</event>
<event>
12    2  0.3555611E-008  0.1659269E+04  0.7818608E-02  0.8784942E-01
         -2   -1    0    0    0  501 -0.00000000000E+00  0.00000000000E+00  0.24788661413E+03  0.24788661413E+03  0.00000000000E+00 0.  1.
          2   -1    0    0  501    0  0.00000000000E+00 -0.00000000000E+00 -0.27766474636E+04  0.27766474636E+04  0.00000000000E+00 0. -1.
         23    2    1    2    0    0 -0.54659089616E+03 -0.29180281697E+02 -0.51916512870E+03  0.76002279342E+03  0.92136415465E+02 0.  0.
        254    2    1    2    0    0  0.54659089616E+03  0.29180281697E+02 -0.20095957208E+04  0.22645112843E+04  0.88877629313E+03 0.  0.
         23    2    4    4    0    0 -0.19380159004E+03  0.13140339010E+03 -0.27005792435E+03  0.36892807381E+03  0.91382350065E+02 0.  0.
         23    2    4    4    0    0  0.74039248620E+03 -0.10222310840E+03 -0.17395377964E+04  0.18955832105E+04  0.92808217679E+02 0.  0.
          4    1    3    3  502    0 -0.26712962305E+03 -0.67763886787E+01 -0.31574423861E+03  0.41364064014E+03  0.00000000000E+00 0.  1.
         -4    1    3    3    0  502 -0.27946127311E+03 -0.22403893019E+02 -0.20342089009E+03  0.34638215329E+03  0.00000000000E+00 0. -1.
         11    1    5    5    0    0 -0.17608743843E+03  0.84906122490E+02 -0.24433707217E+03  0.31291602778E+03  0.00000000000E+00 0. -1.
        -11    1    5    5    0    0 -0.17714151617E+02  0.46497267608E+02 -0.25720852186E+02  0.56012046023E+02  0.00000000000E+00 0.  1.
          1    1    6    6  503    0  0.31410606135E+03 -0.22131902588E+02 -0.63087774956E+03  0.70509515229E+03  0.00000000000E+00 0. -1.
         -1    1    6    6    0  503  0.42628642485E+03 -0.80091205812E+02 -0.11086600468E+04  0.11904880582E+04  0.00000000000E+00 0.  1.
<mgrwt>
<rscale>  0 0.16592694E+04</rscale>
<asrwt>0</asrwt>
<pdfrwt beam="1">  1        2 0.42717651E+00 0.16592694E+04</pdfrwt>
<pdfrwt beam="2">  1       -2 0.38136404E-01 0.16592694E+04</pdfrwt>
<totfact> 0.14854850E+01</totfact>
</mgrwt>
</event>
<event>
12    2  0.3555611E-008  0.2021943E+04  0.7818608E-02  0.8596430E-01
         -2   -1    0    0    0  501 -0.00000000000E+00  0.00000000000E+00  0.47687018901E+03  0.47687018901E+03  0.00000000000E+00 0.  1.
          2   -1    0    0  501    0  0.00000000000E+00 -0.00000000000E+00 -0.21432744376E+04  0.21432744376E+04  0.00000000000E+00 0. -1.
         23    2    1    2    0    0  0.32788751761E+03  0.65812544541E+03 -0.98222226443E+03  0.12308242247E+04  0.97613366836E+02 0.  0.
        254    2    1    2    0    0 -0.32788751761E+03 -0.65812544541E+03 -0.68418198420E+03  0.13893204019E+04  0.95993065664E+03 0.  0.
         23    2    4    4    0    0 -0.11221742214E+01 -0.82256180504E+03 -0.41556860576E+03  0.92603236910E+03  0.90716592431E+02 0.  0.
         23    2    4    4    0    0 -0.32676534338E+03  0.16443635963E+03 -0.26861337845E+03  0.46328803281E+03  0.93100742495E+02 0.  0.
          4    1    3    3  502    0  0.63570575624E+02  0.12971870210E+03 -0.13346997231E+03  0.19667840061E+03  0.00000000000E+00 0. -1.
         -4    1    3    3    0  502  0.26431694198E+03  0.52840674331E+03 -0.84875229212E+03  0.10341458241E+04  0.00000000000E+00 0.  1.
         11    1    5    5    0    0 -0.77478217763E+01 -0.19429999614E+03 -0.57085667704E+02  0.20266053069E+03  0.00000000000E+00 0. -1.
        -11    1    5    5    0    0  0.66256475549E+01 -0.62826180890E+03 -0.35848293805E+03  0.72337183841E+03  0.00000000000E+00 0.  1.
          4    1    6    6  503    0 -0.30087101865E+01  0.18805540356E+02 -0.16661623555E+01  0.19117447059E+02  0.00000000000E+00 0. -1.
         -4    1    6    6    0  503 -0.32375663320E+03  0.14563081928E+03 -0.26694721609E+03  0.44417058575E+03  0.00000000000E+00 0.  1.
<mgrwt>
<rscale>  0 0.20219433E+04</rscale>
<asrwt>0</asrwt>
<pdfrwt beam="1">  1        2 0.32973453E+00 0.20219433E+04</pdfrwt>
<pdfrwt beam="2">  1       -2 0.73364644E-01 0.20219433E+04</pdfrwt>
<totfact> 0.86407200E+00</totfact>
</mgrwt>
</event>
<event>
12    2  0.3555611E-008  0.2003230E+04  0.7818608E-02  0.8605112E-01
         -2   -1    0    0    0  501 -0.00000000000E+00  0.00000000000E+00  0.42905551914E+03  0.42905551914E+03  0.00000000000E+00 0.  1.
          2   -1    0    0  501    0  0.00000000000E+00 -0.00000000000E+00 -0.23382355770E+04  0.23382355770E+04  0.00000000000E+00 0. -1.
         23    2    1    2    0    0  0.98674290113E+02 -0.39675748856E+03  0.17695161006E+03  0.45469726359E+03  0.91019827308E+02 0.  0.
        254    2    1    2    0    0 -0.98674290113E+02  0.39675748856E+03 -0.20861316679E+04  0.23125938326E+04  0.91048985618E+03 0.  0.
         23    2    4    4    0    0 -0.27370226698E+03 -0.21886638851E+02 -0.15759426287E+03  0.32921995164E+03  0.90320922028E+02 0.  0.
         23    2    4    4    0    0  0.17502797687E+03  0.41864412741E+03 -0.19285374051E+04  0.19833738809E+04  0.92831733397E+02 0.  0.
          1    1    3    3  502    0  0.10950539932E+02 -0.45260922995E+02  0.55845411912E+02  0.72712966566E+02  0.00000000000E+00 0. -1.
         -1    1    3    3    0  502  0.87723750181E+02 -0.35149656556E+03  0.12110619815E+03  0.38198429703E+03  0.00000000000E+00 0.  1.
         11    1    5    5    0    0 -0.96932690302E+02 -0.51211559078E+02 -0.53407579022E+02  0.12194646255E+03  0.00000000000E+00 0. -1.
        -11    1    5    5    0    0 -0.17676957668E+03  0.29324920228E+02 -0.10418668385E+03  0.20727348909E+03  0.00000000000E+00 0.  1.
          3    1    6    6  503    0  0.28019661499E+02  0.12666376646E+02 -0.10455277309E+03  0.10898082808E+03  0.00000000000E+00 0.  1.
         -3    1    6    6    0  503  0.14700831537E+03  0.40597775076E+03 -0.18239846320E+04  0.18743930529E+04  0.00000000000E+00 0. -1.
<mgrwt>
<rscale>  0 0.20032303E+04</rscale>
<asrwt>0</asrwt>
<pdfrwt beam="1">  1        2 0.35972855E+00 0.20032303E+04</pdfrwt>
<pdfrwt beam="2">  1       -2 0.66008542E-01 0.20032303E+04</pdfrwt>
<totfact> 0.84602795E+00</totfact>
</mgrwt>
</event>
<event>
12    2  0.3555611E-008  0.2058996E+04  0.7818608E-02  0.8579524E-01
         -2   -1    0    0    0  501 -0.00000000000E+00  0.00000000000E+00  0.30612140582E+03  0.30612140582E+03  0.00000000000E+00 0.  1.
          2   -1    0    0  501    0  0.00000000000E+00 -0.00000000000E+00 -0.34622402481E+04  0.34622402481E+04  0.00000000000E+00 0. -1.
         23    2    1    2    0    0  0.33534228708E+02 -0.53015872892E+03 -0.24725455526E+04  0.25306002153E+04  0.90901691952E+02 0.  0.
        254    2    1    2    0    0 -0.33534228708E+02  0.53015872892E+03 -0.68357328965E+03  0.12377614386E+04  0.88464010434E+03 0.  0.
         23    2    4    4    0    0 -0.21426654080E+03  0.22287728592E+03  0.12720610409E+03  0.34631069673E+03  0.90361887222E+02 0.  0.
         23    2    4    4    0    0  0.18073231210E+03  0.30728144300E+03 -0.81077939374E+03  0.89145074187E+03  0.10116889846E+03 0.  0.
          3    1    3    3  502    0 -0.27464219808E+02 -0.27389453315E+03 -0.12250812429E+04  0.12556259595E+04  0.00000000000E+00 0. -1.
         -3    1    3    3    0  502  0.60998448516E+02 -0.25626419577E+03 -0.12474643098E+04  0.12749742558E+04  0.00000000000E+00 0.  1.
         11    1    5    5    0    0 -0.58689568432E+02  0.11159192774E+03  0.79890871874E+02  0.14926411219E+03  0.00000000000E+00 0. -1.
        -11    1    5    5    0    0 -0.15557697237E+03  0.11128535818E+03  0.47315232219E+02  0.19704658454E+03  0.00000000000E+00 0.  1.
          3    1    6    6  503    0  0.11102184923E+03  0.26429918513E+03 -0.66675795013E+03  0.72577274289E+03  0.00000000000E+00 0. -1.
         -3    1    6    6    0  503  0.69710462863E+02  0.42982257868E+02 -0.14402144361E+03  0.16567799897E+03  0.00000000000E+00 0.  1.
<mgrwt>
<rscale>  0 0.20589957E+04</rscale>
<asrwt>0</asrwt>
<pdfrwt beam="1">  1        2 0.53265235E+00 0.20589957E+04</pdfrwt>
<pdfrwt beam="2">  1       -2 0.47095600E-01 0.20589957E+04</pdfrwt>
<totfact> 0.34292585E+00</totfact>
</mgrwt>
</event>
<event>
12    2  0.3555611E-008  0.1409980E+04  0.7818608E-02  0.8946626E-01
          2   -1    0    0  501    0  0.00000000000E+00  0.00000000000E+00  0.23302697291E+04  0.23302697291E+04  0.00000000000E+00 0.  1.
         -2   -1    0    0    0  501 -0.00000000000E+00 -0.00000000000E+00 -0.21328462756E+03  0.21328462756E+03  0.00000000000E+00 0. -1.
         23    2    1    2    0    0  0.14199004056E+02  0.18606982934E+03 -0.28154943637E+02  0.21006725448E+03  0.92260270141E+02 0.  0.
        254    2    1    2    0    0 -0.14199004056E+02 -0.18606982934E+03  0.21451400452E+04  0.23334871022E+04  0.89928452089E+03 0.  0.
         23    2    4    4    0    0  0.30343800431E+02 -0.47040494567E+03  0.65120453432E+03  0.80923639806E+03  0.92707299019E+02 0.  0.
         23    2    4    4    0    0 -0.44542804487E+02  0.28433511632E+03  0.14939355109E+04  0.15242507041E+04  0.93093386494E+02 0.  0.
          4    1    3    3  502    0  0.41567579545E+02  0.17246487735E+03 -0.27299608291E+02  0.17949168839E+03  0.00000000000E+00 0. -1.
         -4    1    3    3    0  502 -0.27368575489E+02  0.13604951986E+02 -0.85533534621E+00  0.30575566085E+02  0.00000000000E+00 0.  1.
         11    1    5    5    0    0  0.42920803585E+02 -0.15050979878E+03  0.16806368346E+03  0.22965364488E+03  0.00000000000E+00 0. -1.
        -11    1    5    5    0    0 -0.12577003154E+02 -0.31989514689E+03  0.48314085087E+03  0.57958275318E+03  0.00000000000E+00 0.  1.
          4    1    6    6  503    0 -0.58320248249E+02  0.16740365306E+03  0.10554074335E+04  0.10701916113E+04  0.00000000000E+00 0. -1.
         -4    1    6    6    0  503  0.13777443762E+02  0.11693146327E+03  0.43852807741E+03  0.45405909278E+03  0.00000000000E+00 0.  1.
<mgrwt>
<rscale>  0 0.14099797E+04</rscale>
<asrwt>0</asrwt>
<pdfrwt beam="1">  1        2 0.35850302E+00 0.14099797E+04</pdfrwt>
<pdfrwt beam="2">  1       -2 0.32813021E-01 0.14099797E+04</pdfrwt>
<totfact> 0.36799040E+01</totfact>
</mgrwt>
</event>
<event>
12    2  0.3555611E-008  0.4037513E+04  0.7818608E-02  0.7997022E-01
          1   -1    0    0  501    0  0.00000000000E+00  0.00000000000E+00  0.16805608315E+04  0.16805608315E+04  0.00000000000E+00 0.  1.
         -1   -1    0    0    0  501 -0.00000000000E+00 -0.00000000000E+00 -0.24250103474E+04  0.24250103474E+04  0.00000000000E+00 0. -1.
         23    2    1    2    0    0 -0.13048399096E+04 -0.51375595533E+03 -0.16973842756E+04  0.22035763991E+04  0.89906598077E+02 0.  0.
        254    2    1    2    0    0  0.13048399096E+04  0.51375595533E+03  0.95293475963E+03  0.19019947798E+04  0.86194380022E+03 0.  0.
         23    2    4    4    0    0  0.45248819038E+03 -0.22615784371E+03  0.30298733394E+03  0.59590237308E+03  0.86054523460E+02 0.  0.
         23    2    4    4    0    0  0.85235171925E+03  0.73991379903E+03  0.64994742569E+03  0.13060924067E+04  0.97313078928E+02 0.  0.
          1    1    3    3  502    0 -0.11280935207E+04 -0.41020103004E+03 -0.14529450453E+04  0.18846509441E+04  0.00000000000E+00 0. -1.
         -1    1    3    3    0  502 -0.17674638894E+03 -0.10355492529E+03 -0.24443923023E+03  0.31892545498E+03  0.00000000000E+00 0.  1.
         11    1    5    5    0    0  0.29422595142E+03 -0.19132812180E+03  0.20144149595E+03  0.40466533947E+03  0.00000000000E+00 0. -1.
        -11    1    5    5    0    0  0.15826223896E+03 -0.34829721907E+02  0.10154583799E+03  0.19123703360E+03  0.00000000000E+00 0.  1.
          2    1    6    6  503    0  0.54209032281E+03  0.41742407541E+03  0.42223615953E+03  0.80398268092E+03  0.00000000000E+00 0. -1.
         -2    1    6    6    0  503  0.31026139644E+03  0.32248972363E+03  0.22771126615E+03  0.50210972576E+03  0.00000000000E+00 0.  1.
<mgrwt>
<rscale>  0 0.40375128E+04</rscale>
<asrwt>0</asrwt>
<pdfrwt beam="1">  1        1 0.25854782E+00 0.40375128E+04</pdfrwt>
<pdfrwt beam="2">  1       -1 0.37307851E+00 0.40375128E+04</pdfrwt>
<totfact> 0.41749196E-02</totfact>
</mgrwt>
</event>
<event>
12    2  0.3555611E-008  0.2179738E+04  0.7818608E-02  0.8526909E-01
          1   -1    0    0  501    0  0.00000000000E+00  0.00000000000E+00  0.60681975182E+03  0.60681975182E+03  0.00000000000E+00 0. -1.
         -1   -1    0    0    0  501 -0.00000000000E+00 -0.00000000000E+00 -0.19574420962E+04  0.19574420962E+04  0.00000000000E+00 0.  1.
         23    2    1    2    0    0 -0.46128471461E+03  0.10635568877E+03  0.34229440593E+03  0.59126213030E+03  0.91270619201E+02 0.  0.
        254    2    1    2    0    0  0.46128471461E+03 -0.10635568877E+03 -0.16929167503E+04  0.19729997177E+04  0.89591609102E+03 0.  0.
         23    2    4    4    0    0 -0.26109236191E+03 -0.32668632670E+02 -0.39361982793E+03  0.48156182234E+03  0.87913359532E+02 0.  0.
         23    2    4    4    0    0  0.72237707652E+03 -0.73687056105E+02 -0.12992969224E+04  0.14914378954E+04  0.94636569861E+02 0.  0.
          4    1    3    3  502    0 -0.43652266137E+02 -0.26015513509E+01  0.60749908624E+01  0.44149676356E+02  0.00000000000E+00 0.  1.
         -4    1    3    3    0  502 -0.41763244847E+03  0.10895724013E+03  0.33621941507E+03  0.54711245395E+03  0.00000000000E+00 0. -1.
         11    1    5    5    0    0 -0.21840645160E+03 -0.36151094690E+02 -0.26122991770E+03  0.34241692372E+03  0.00000000000E+00 0.  1.
        -11    1    5    5    0    0 -0.42685910310E+02  0.34824620203E+01 -0.13238991023E+03  0.13914489862E+03  0.00000000000E+00 0. -1.
          2    1    6    6  503    0  0.98814687814E+02  0.15691018241E+02 -0.22158520606E+03  0.24312662159E+03  0.00000000000E+00 0. -1.
         -2    1    6    6    0  503  0.62356238870E+03 -0.89378074346E+02 -0.10777117163E+04  0.12483112738E+04  0.00000000000E+00 0.  1.
<mgrwt>
<rscale>  0 0.21797381E+04</rscale>
<asrwt>0</asrwt>
<pdfrwt beam="1">  1        1 0.93356886E-01 0.21797381E+04</pdfrwt>
<pdfrwt beam="2">  1       -1 0.30114493E+00 0.21797381E+04</pdfrwt>
<totfact> 0.99941021E-01</totfact>
</mgrwt>
</event>
<event>
12    2  0.3555611E-008  0.1367680E+04  0.7818608E-02  0.8977551E-01
          3   -1    0    0  501    0  0.00000000000E+00  0.00000000000E+00  0.47185413528E+03  0.47185413528E+03  0.00000000000E+00 0. -1.
         -3   -1    0    0    0  501 -0.00000000000E+00 -0.00000000000E+00 -0.99106289546E+03  0.99106289546E+03  0.00000000000E+00 0.  1.
         23    2    1    2    0    0 -0.20801961103E+02 -0.36462411079E+03 -0.27793717241E+03  0.46784391916E+03  0.90804169187E+02 0.  0.
        254    2    1    2    0    0  0.20801961103E+02  0.36462411079E+03 -0.24127158778E+03  0.99507311158E+03  0.89363026727E+03 0.  0.
         23    2    4    4    0    0  0.39011606053E+03  0.14423589809E+03 -0.33810989737E+03  0.54434708821E+03  0.94873150886E+02 0.  0.
         23    2    4    4    0    0 -0.36931409943E+03  0.22038821269E+03  0.96838309597E+02  0.45072602337E+03  0.93874499260E+02 0.  0.
          4    1    3    3  502    0  0.93041924261E+01 -0.14309108576E+03 -0.59407449281E+02  0.15521234439E+03  0.00000000000E+00 0. -1.
         -4    1    3    3    0  502 -0.30106153529E+02 -0.22153302503E+03 -0.21852972313E+03  0.31263157478E+03  0.00000000000E+00 0.  1.
         11    1    5    5    0    0  0.31427476445E+03  0.12193280102E+03 -0.31649915988E+03  0.46239372156E+03  0.00000000000E+00 0. -1.
        -11    1    5    5    0    0  0.75841296082E+02  0.22303097070E+02 -0.21610737495E+02  0.81953366651E+02  0.00000000000E+00 0.  1.
          1    1    6    6  503    0 -0.28241653498E+03  0.13175217327E+03  0.97709431439E+02  0.32659587778E+03  0.00000000000E+00 0. -1.
         -1    1    6    6    0  503 -0.86897564444E+02  0.88636039425E+02 -0.87112184214E+00  0.12413014559E+03  0.00000000000E+00 0.  1.
<mgrwt>
<rscale>  0 0.13676800E+04</rscale>
<asrwt>0</asrwt>
<pdfrwt beam="1">  1        3 0.72592943E-01 0.13676800E+04</pdfrwt>
<pdfrwt beam="2">  1       -3 0.15247122E+00 0.13676800E+04</pdfrwt>
<totfact> 0.14245617E+00</totfact>
</mgrwt>
</event>
<event>
12    2  0.3555611E-008  0.1497020E+04  0.7818608E-02  0.8886437E-01
          2   -1    0    0  501    0  0.00000000000E+00  0.00000000000E+00  0.18107294713E+04  0.18107294713E+04  0.00000000000E+00 0. -1.
         -2   -1    0    0    0  501 -0.00000000000E+00 -0.00000000000E+00 -0.30941515688E+03  0.30941515688E+03  0.00000000000E+00 0.  1.
         23    2    1    2    0    0 -0.15246625014E+03 -0.13863388428E+03 -0.11920249008E+03  0.25521341788E+03  0.91974690656E+02 0.  0.
        254    2    1    2    0    0  0.15246625014E+03  0.13863388428E+03  0.16205168045E+04  0.18649312103E+04  0.89968238516E+03 0.  0.
         23    2    4    4    0    0  0.35503190422E+03 -0.11054437574E+03  0.25761555891E+03  0.46193017683E+03  0.93520051596E+02 0.  0.
         23    2    4    4    0    0 -0.20256565408E+03  0.24917826003E+03  0.13629012456E+04  0.14030010335E+04  0.88257833689E+02 0.  0.
          3    1    3    3  502    0  0.11821936387E+02 -0.20567245582E+01 -0.55673089404E+01  0.13228122493E+02  0.00000000000E+00 0. -1.
         -3    1    3    3    0  502 -0.16428818653E+03 -0.13657715972E+03 -0.11363518114E+03  0.24198529539E+03  0.00000000000E+00 0.  1.
         11    1    5    5    0    0  0.17935339709E+02  0.12994430125E+02  0.43588037259E+01  0.22572788810E+02  0.00000000000E+00 0.  1.
        -11    1    5    5    0    0  0.33709656451E+03 -0.12353880587E+03  0.25325675519E+03  0.43935738802E+03  0.00000000000E+00 0. -1.
          3    1    6    6  503    0 -0.17007389336E+03  0.23613203028E+03  0.11025904871E+04  0.11403461085E+04  0.00000000000E+00 0. -1.
         -3    1    6    6    0  503 -0.32491760716E+02  0.13046229743E+02  0.26031075852E+03  0.26265492500E+03  0.00000000000E+00 0.  1.
<mgrwt>
<rscale>  0 0.14970199E+04</rscale>
<asrwt>0</asrwt>
<pdfrwt beam="1">  1        2 0.27857376E+00 0.14970199E+04</pdfrwt>
<pdfrwt beam="2">  1       -2 0.47602333E-01 0.14970199E+04</pdfrwt>
<totfact> 0.34397800E+01</totfact>
</mgrwt>
</event>
<event>
12    2  0.3555611E-008  0.2033308E+04  0.7818608E-02  0.8591204E-01
         -1   -1    0    0    0  501 -0.00000000000E+00  0.00000000000E+00  0.77868922734E+03  0.77868922734E+03  0.00000000000E+00 0.  1.
          1   -1    0    0  501    0  0.00000000000E+00 -0.00000000000E+00 -0.13273403445E+04  0.13273403445E+04  0.00000000000E+00 0. -1.
         23    2    1    2    0    0  0.32010427719E+03  0.64152529734E+03 -0.62435914935E+03  0.95499608604E+03  0.90397575016E+02 0.  0.
        254    2    1    2    0    0 -0.32010427719E+03 -0.64152529734E+03  0.75708032161E+02  0.11510334858E+04  0.89728753695E+03 0.  0.
         23    2    4    4    0    0  0.56655077432E+02 -0.68036206614E+03  0.23793928468E+03  0.72902618626E+03  0.93604157065E+02 0.  0.
         23    2    4    4    0    0 -0.37675935462E+03  0.38836768801E+02 -0.16223125252E+03  0.42200729957E+03  0.91188133480E+02 0.  0.
          1    1    3    3  502    0  0.88449998106E+02  0.12688270846E+03 -0.96938279687E+02  0.18253671943E+03  0.00000000000E+00 0. -1.
         -1    1    3    3    0  502  0.23165427908E+03  0.51464258888E+03 -0.52742086966E+03  0.77245936661E+03  0.00000000000E+00 0.  1.
         11    1    5    5    0    0  0.74708358984E+02 -0.60440444275E+03  0.19255621580E+03  0.63872056923E+03  0.00000000000E+00 0. -1.
        -11    1    5    5    0    0 -0.18053281552E+02 -0.75957623393E+02  0.45383068884E+02  0.90305617032E+02  0.00000000000E+00 0.  1.
          2    1    6    6  503    0 -0.35596808768E+03  0.16174029245E+02 -0.13539913629E+03  0.38119260850E+03  0.00000000000E+00 0. -1.
         -2    1    6    6    0  503 -0.20791266939E+02  0.22662739556E+02 -0.26832116232E+02  0.40814691063E+02  0.00000000000E+00 0.  1.
<mgrwt>
<rscale>  0 0.20333083E+04</rscale>
<asrwt>0</asrwt>
<pdfrwt beam="1">  1        1 0.20420621E+00 0.20333083E+04</pdfrwt>
<pdfrwt beam="2">  1       -1 0.11979834E+00 0.20333083E+04</pdfrwt>
<totfact> 0.49730833E+00</totfact>
</mgrwt>
</event>
<event>
12    2  0.3555611E-008  0.1681946E+04  0.7818608E-02  0.8771729E-01
         -2   -1    0    0    0  501 -0.00000000000E+00  0.00000000000E+00  0.24001549539E+03  0.24001549539E+03  0.00000000000E+00 0.  1.
          2   -1    0    0  501    0  0.00000000000E+00 -0.00000000000E+00 -0.29466252448E+04  0.29466252448E+04  0.00000000000E+00 0. -1.
         23    2    1    2    0    0 -0.11874646958E+02 -0.20982697657E+03 -0.20188040670E+04  0.20317153308E+04  0.90160727915E+02 0.  0.
        254    2    1    2    0    0  0.11874646958E+02  0.20982697657E+03 -0.68780568235E+03  0.11549254094E+04  0.90366347567E+03 0.  0.
         23    2    4    4    0    0  0.32979112582E+03  0.35970293920E+03 -0.60545175397E+03  0.78282986007E+03  0.90013178471E+02 0.  0.
         23    2    4    4    0    0 -0.31791647887E+03 -0.14987596263E+03 -0.82353928378E+02  0.37209554932E+03  0.90217717755E+02 0.  0.
          1    1    3    3  502    0  0.95016455159E+01 -0.15817369145E+03 -0.17500343732E+04  0.17571936448E+04  0.00000000000E+00 0. -1.
         -1    1    3    3    0  502 -0.21376292474E+02 -0.51653285115E+02 -0.26876969384E+03  0.27452168598E+03  0.00000000000E+00 0.  1.
         11    1    5    5    0    0  0.97564862737E+02  0.59547774702E+02 -0.10901777744E+03  0.15795479009E+03  0.00000000000E+00 0.  1.
        -11    1    5    5    0    0  0.23222626309E+03  0.30015516449E+03 -0.49643397653E+03  0.62487506999E+03  0.00000000000E+00 0. -1.
          2    1    6    6  503    0 -0.11965953539E+03 -0.59704966672E+02 -0.76828111260E+02  0.15422595804E+03  0.00000000000E+00 0.  1.
         -2    1    6    6    0  503 -0.19825694347E+03 -0.90170995958E+02 -0.55258171184E+01  0.21786959128E+03  0.00000000000E+00 0. -1.
<mgrwt>
<rscale>  0 0.16819462E+04</rscale>
<asrwt>0</asrwt>
<pdfrwt beam="1">  1        2 0.45332700E+00 0.16819462E+04</pdfrwt>
<pdfrwt beam="2">  1       -2 0.36925458E-01 0.16819462E+04</pdfrwt>
<totfact> 0.12436882E+01</totfact>
</mgrwt>
</event>
<event>
12    2  0.3555611E-008  0.1524571E+04  0.7818608E-02  0.8868276E-01
          1   -1    0    0  501    0  0.00000000000E+00  0.00000000000E+00  0.37601794290E+03  0.37601794290E+03  0.00000000000E+00 0. -1.
         -1   -1    0    0    0  501 -0.00000000000E+00 -0.00000000000E+00 -0.15453503585E+04  0.15453503585E+04  0.00000000000E+00 0.  1.
         23    2    1    2    0    0 -0.35842553759E+03  0.18021147529E+03 -0.72249492854E+03  0.83201399363E+03  0.96453729830E+02 0.  0.
        254    2    1    2    0    0  0.35842553759E+03 -0.18021147529E+03 -0.44683748703E+03  0.10893543077E+04  0.90889164709E+03 0.  0.
         23    2    4    4    0    0  0.10868723587E+03  0.30051957753E+03  0.64469361998E+02  0.33882505689E+03  0.92310285550E+02 0.  0.
         23    2    4    4    0    0  0.24973830172E+03 -0.48073105282E+03 -0.51130684903E+03  0.75052925085E+03  0.91585468431E+02 0.  0.
          1    1    3    3  502    0 -0.97812722040E+02  0.97977312972E+02 -0.26923213865E+03  0.30274217898E+03  0.00000000000E+00 0. -1.
         -1    1    3    3    0  502 -0.26061281555E+03  0.82234162322E+02 -0.45326278990E+03  0.52927181465E+03  0.00000000000E+00 0.  1.
         11    1    5    5    0    0  0.20018361833E+02  0.18834418245E+03  0.43132232763E+02  0.19425410002E+03  0.00000000000E+00 0. -1.
        -11    1    5    5    0    0  0.88668874035E+02  0.11217539508E+03  0.21337129235E+02  0.14457095686E+03  0.00000000000E+00 0.  1.
          2    1    6    6  503    0  0.17674088253E+03 -0.40171130599E+03 -0.44005299397E+03  0.62149493193E+03  0.00000000000E+00 0. -1.
         -2    1    6    6    0  503  0.72997419193E+02 -0.79019746837E+02 -0.71253855058E+02  0.12903431892E+03  0.00000000000E+00 0.  1.
<mgrwt>
<rscale>  0 0.15245714E+04</rscale>
<asrwt>0</asrwt>
<pdfrwt beam="1">  1        1 0.57848914E-01 0.15245714E+04</pdfrwt>
<pdfrwt beam="2">  1       -1 0.23774621E+00 0.15245714E+04</pdfrwt>
<totfact> 0.52771911E+00</totfact>
</mgrwt>
</event>
<event>
12    2  0.3555611E-008  0.1246958E+04  0.7818608E-02  0.9072719E-01
         -1   -1    0    0    0  501 -0.00000000000E+00  0.00000000000E+00  0.18154401897E+03  0.18154401897E+03  0.00000000000E+00 0. -1.
          1   -1    0    0  501    0  0.00000000000E+00 -0.00000000000E+00 -0.21412212889E+04  0.21412212889E+04  0.00000000000E+00 0.  1.
         23    2    1    2    0    0  0.23199889195E+03 -0.59773446491E+02 -0.18664074587E+03  0.31666762643E+03  0.89706559617E+02 0.  0.
        254    2    1    2    0    0 -0.23199889195E+03  0.59773446491E+02 -0.17730365241E+04  0.20060976814E+04  0.90739905282E+03 0.  0.
         23    2    4    4    0    0 -0.28830060314E+01  0.60055140855E+02 -0.17539760856E+04  0.17574176374E+04  0.92031037611E+02 0.  0.
         23    2    4    4    0    0 -0.22911588592E+03 -0.28169436399E+00 -0.19060438491E+02  0.24868004403E+03  0.94785523416E+02 0.  0.
          2    1    3    3  502    0  0.13879687988E+03 -0.46087868978E+02 -0.58242562579E+02  0.15741938136E+03  0.00000000000E+00 0. -1.
         -2    1    3    3    0  502  0.93202012071E+02 -0.13685577514E+02 -0.12839818330E+03  0.15924824507E+03  0.00000000000E+00 0.  1.
         11    1    5    5    0    0 -0.20792904041E+02  0.15723616805E+02 -0.13982192333E+04  0.13984622274E+04  0.00000000000E+00 0. -1.
        -11    1    5    5    0    0  0.17909898009E+02  0.44331524050E+02 -0.35575685227E+03  0.35895541005E+03  0.00000000000E+00 0.  1.
          3    1    6    6  503    0 -0.23213522377E+03  0.13308468351E+02 -0.11413004038E+02  0.23279633610E+03  0.00000000000E+00 0. -1.
         -3    1    6    6    0  503  0.30193378455E+01 -0.13590162715E+02 -0.76474344532E+01  0.15883707922E+02  0.00000000000E+00 0.  1.
<mgrwt>
<rscale>  0 0.12469578E+04</rscale>
<asrwt>0</asrwt>
<pdfrwt beam="1">  1        1 0.32941869E+00 0.12469578E+04</pdfrwt>
<pdfrwt beam="2">  1       -1 0.27929847E-01 0.12469578E+04</pdfrwt>
<totfact> 0.27317232E+01</totfact>
</mgrwt>
</event>
<event>
12    2  0.3555611E-008  0.2155837E+04  0.7818608E-02  0.8537038E-01
         -1   -1    0    0    0  501 -0.00000000000E+00  0.00000000000E+00  0.51589712771E+03  0.51589712771E+03  0.00000000000E+00 0.  1.
          1   -1    0    0  501    0  0.00000000000E+00 -0.00000000000E+00 -0.22522082696E+04  0.22522082696E+04  0.00000000000E+00 0. -1.
         23    2    1    2    0    0  0.72140379443E+03  0.27438039781E+03 -0.16303771545E+03  0.79610912503E+03  0.10723994113E+03 0.  0.
        254    2    1    2    0    0 -0.72140379443E+03 -0.27438039781E+03 -0.15732734264E+04  0.19719962722E+04  0.90436275146E+03 0.  0.
         23    2    4    4    0    0 -0.10521647217E+03 -0.42358684754E+03 -0.27716606861E+03  0.52627715398E+03  0.98235888458E+02 0.  0.
         23    2    4    4    0    0 -0.61618732226E+03  0.14920644973E+03 -0.12961073578E+04  0.14457191183E+04  0.90885121238E+02 0.  0.
          2    1    3    3  502    0  0.10871866321E+03  0.76904216707E+02 -0.49652673086E+01  0.13326162297E+03  0.00000000000E+00 0. -1.
         -2    1    3    3    0  502  0.61268513122E+03  0.19747618110E+03 -0.15807244814E+03  0.66284750206E+03  0.00000000000E+00 0.  1.
         11    1    5    5    0    0 -0.11368385011E+03 -0.26891014978E+03 -0.16895927768E+03  0.33731872753E+03  0.00000000000E+00 0. -1.
        -11    1    5    5    0    0  0.84673779415E+01 -0.15467669776E+03 -0.10820679093E+03  0.18895842644E+03  0.00000000000E+00 0.  1.
          3    1    6    6  503    0 -0.21667477556E+03  0.47236729933E+02 -0.55442146714E+03  0.59712848721E+03  0.00000000000E+00 0. -1.
         -3    1    6    6    0  503 -0.39951254670E+03  0.10196971980E+03 -0.74168589065E+03  0.84859063106E+03  0.00000000000E+00 0.  1.
<mgrwt>
<rscale>  0 0.21558365E+04</rscale>
<asrwt>0</asrwt>
<pdfrwt beam="1">  1        1 0.34649357E+00 0.21558365E+04</pdfrwt>
<pdfrwt beam="2">  1       -1 0.79368790E-01 0.21558365E+04</pdfrwt>
<totfact> 0.29135555E+00</totfact>
</mgrwt>
</event>
<event>
12    2  0.3555611E-008  0.1919226E+04  0.7818608E-02  0.8645345E-01
          1   -1    0    0  501    0  0.00000000000E+00  0.00000000000E+00  0.11838875265E+04  0.11838875265E+04  0.00000000000E+00 0.  1.
         -1   -1    0    0    0  501 -0.00000000000E+00 -0.00000000000E+00 -0.77782484297E+03  0.77782484297E+03  0.00000000000E+00 0. -1.
         23    2    1    2    0    0  0.20373338280E+03 -0.48780122159E+03  0.69478294702E+03  0.87767412975E+03  0.90173230538E+02 0.  0.
        254    2    1    2    0    0 -0.20373338280E+03  0.48780122159E+03 -0.28872026351E+03  0.10840382397E+04  0.90128918308E+03 0.  0.
         23    2    4    4    0    0  0.23647295209E+03  0.43154012870E+03  0.71254130977E+02  0.50547638291E+03  0.91010344167E+02 0.  0.
         23    2    4    4    0    0 -0.44020633490E+03  0.56261092890E+02 -0.35997439449E+03  0.57856185680E+03  0.90583274398E+02 0.  0.
          1    1    3    3  502    0 -0.34529649225E+01 -0.28315074043E+01 -0.10362458659E+01  0.45841254816E+01  0.00000000000E+00 0. -1.
         -1    1    3    3    0  502  0.20718634772E+03 -0.48496971419E+03  0.69581919288E+03  0.87309000427E+03  0.00000000000E+00 0.  1.
         11    1    5    5    0    0  0.82568918951E+01  0.85253911985E+02  0.14929540211E+02  0.86944217424E+02  0.00000000000E+00 0. -1.
        -11    1    5    5    0    0  0.22821606020E+03  0.34628621672E+03  0.56324590766E+02  0.41853216548E+03  0.00000000000E+00 0.  1.
          3    1    6    6  503    0 -0.11450183670E+03  0.40853747343E+01 -0.46952973786E+02  0.12382222192E+03  0.00000000000E+00 0. -1.
         -3    1    6    6    0  503 -0.32570449820E+03  0.52175718155E+02 -0.31302142070E+03  0.45473963488E+03  0.00000000000E+00 0.  1.
<mgrwt>
<rscale>  0 0.19192260E+04</rscale>
<asrwt>0</asrwt>
<pdfrwt beam="1">  1        1 0.18213654E+00 0.19192260E+04</pdfrwt>
<pdfrwt beam="2">  1       -1 0.11966536E+00 0.19192260E+04</pdfrwt>
<totfact> 0.63941353E+00</totfact>
</mgrwt>
</event>
<event>
12    2  0.3555611E-008  0.2739819E+04  0.7818608E-02  0.8322199E-01
         -4   -1    0    0    0  501 -0.00000000000E+00  0.00000000000E+00  0.10853087213E+04  0.10853087213E+04  0.00000000000E+00 0.  1.
          4   -1    0    0  501    0  0.00000000000E+00 -0.00000000000E+00 -0.17291413801E+04  0.17291413801E+04  0.00000000000E+00 0. -1.
         23    2    1    2    0    0 -0.88859819702E+03  0.14824810869E+03 -0.11413161671E+04  0.14568415056E+04  0.90555627471E+02 0.  0.
        254    2    1    2    0    0  0.88859819702E+03 -0.14824810869E+03  0.49748350836E+03  0.13576085957E+04  0.88545299175E+03 0.  0.
         23    2    4    4    0    0  0.82485070919E+03 -0.60794198682E+01  0.69993967615E+03  0.10857467234E+04  0.92275377497E+02 0.  0.
         23    2    4    4    0    0  0.63747487827E+02 -0.14216868882E+03 -0.20245616780E+03  0.27186187233E+03  0.92976875947E+02 0.  0.
          3    1    3    3  502    0 -0.53679351423E+03  0.54588920659E+02 -0.63602746599E+03  0.83406124755E+03  0.00000000000E+00 0. -1.
         -3    1    3    3    0  502 -0.35180468279E+03  0.93659188033E+02 -0.50528870116E+03  0.62278025808E+03  0.00000000000E+00 0.  1.
         11    1    5    5    0    0  0.45937492276E+02  0.21270472306E+02  0.42107376115E+02  0.65846163989E+02  0.00000000000E+00 0. -1.
        -11    1    5    5    0    0  0.77891321692E+03 -0.27349892174E+02  0.65783230004E+03  0.10199005594E+04  0.00000000000E+00 0.  1.
          4    1    6    6  503    0  0.37908501952E+02 -0.60537492153E+01 -0.21635546324E+02  0.44065851456E+02  0.00000000000E+00 0. -1.
         -4    1    6    6    0  503  0.25838985876E+02 -0.13611493961E+03 -0.18082062147E+03  0.22779602087E+03  0.00000000000E+00 0.  1.
<mgrwt>
<rscale>  0 0.27398191E+04</rscale>
<asrwt>0</asrwt>
<pdfrwt beam="1">  1        4 0.26602175E+00 0.27398191E+04</pdfrwt>
<pdfrwt beam="2">  1       -4 0.16697057E+00 0.27398191E+04</pdfrwt>
<totfact> 0.19440171E-02</totfact>
</mgrwt>
</event>
<event>
12    2  0.3555611E-008  0.2028237E+04  0.7818608E-02  0.8593532E-01
         -1   -1    0    0    0  501 -0.00000000000E+00  0.00000000000E+00  0.84603516660E+03  0.84603516660E+03  0.00000000000E+00 0.  1.
          1   -1    0    0  501    0  0.00000000000E+00 -0.00000000000E+00 -0.12155950714E+04  0.12155950714E+04  0.00000000000E+00 0. -1.
         23    2    1    2    0    0  0.15460269189E+03 -0.79015738356E+03 -0.61592685888E+02  0.81124853048E+03  0.77973303800E+02 0.  0.
        254    2    1    2    0    0 -0.15460269189E+03  0.79015738356E+03 -0.30796721893E+03  0.12503817075E+04  0.90573722651E+03 0.  0.
         23    2    4    4    0    0 -0.17317832740E+03  0.46800840503E+03 -0.61353545945E+03  0.79632946072E+03  0.93232235604E+02 0.  0.
         23    2    4    4    0    0  0.18575635505E+02  0.32214897853E+03  0.30556824051E+03  0.45405224682E+03  0.93093902210E+02 0.  0.
          2    1    3    3  502    0  0.14943966464E+02 -0.10564533317E+03  0.17678346345E+02  0.10815166427E+03  0.00000000000E+00 0. -1.
         -2    1    3    3    0  502  0.13965872543E+03 -0.68451205039E+03 -0.79271032233E+02  0.70309686621E+03  0.00000000000E+00 0.  1.
         11    1    5    5    0    0 -0.16167455956E+03  0.31659862872E+03 -0.44269205583E+03  0.56775840919E+03  0.00000000000E+00 0. -1.
        -11    1    5    5    0    0 -0.11503767838E+02  0.15140977631E+03 -0.17084340362E+03  0.22857105153E+03  0.00000000000E+00 0.  1.
          1    1    6    6  503    0  0.30848371045E+01  0.31976485258E+03  0.29561908113E+03  0.43548790832E+03  0.00000000000E+00 0. -1.
         -1    1    6    6    0  503  0.15490798400E+02  0.23841259576E+01  0.99491593860E+01  0.18564338506E+02  0.00000000000E+00 0.  1.
<mgrwt>
<rscale>  0 0.20282368E+04</rscale>
<asrwt>0</asrwt>
<pdfrwt beam="1">  1        1 0.18701463E+00 0.20282368E+04</pdfrwt>
<pdfrwt beam="2">  1       -1 0.13015926E+00 0.20282368E+04</pdfrwt>
<totfact> 0.48703118E+00</totfact>
</mgrwt>
</event>
<event>
12    2  0.3555611E-008  0.1354478E+04  0.7818608E-02  0.8987445E-01
         -1   -1    0    0    0  501 -0.00000000000E+00  0.00000000000E+00  0.28033995126E+03  0.28033995126E+03  0.00000000000E+00 0.  1.
          1   -1    0    0  501    0  0.00000000000E+00 -0.00000000000E+00 -0.16360583301E+04  0.16360583301E+04  0.00000000000E+00 0. -1.
         23    2    1    2    0    0  0.24724157633E+02  0.11963887758E+03  0.12168641561E+03  0.19617409127E+03  0.93551832372E+02 0.  0.
        254    2    1    2    0    0 -0.24724157633E+02 -0.11963887758E+03 -0.14774047945E+04  0.17202241901E+04  0.87265204550E+03 0.  0.
         23    2    4    4    0    0  0.41294584753E+03 -0.22911649715E+02 -0.71052621852E+03  0.82708109703E+03  0.90368231002E+02 0.  0.
         23    2    4    4    0    0 -0.43767000516E+03 -0.96727227868E+02 -0.76687857594E+03  0.89314309307E+03  0.93223625918E+02 0.  0.
          3    1    3    3  502    0  0.24938100208E+02  0.11225057606E+03  0.52175105815E+02  0.12627090850E+03  0.00000000000E+00 0. -1.
         -3    1    3    3    0  502 -0.21394257494E+00  0.73883015245E+01  0.69511309797E+02  0.69903182764E+02  0.00000000000E+00 0.  1.
         11    1    5    5    0    0  0.34662281282E+03  0.33226369653E+01 -0.63328060206E+03  0.72194372026E+03  0.00000000000E+00 0. -1.
        -11    1    5    5    0    0  0.66323034717E+02 -0.26234286680E+02 -0.77245616466E+02  0.10513737677E+03  0.00000000000E+00 0.  1.
          2    1    6    6  503    0 -0.76686510410E+02 -0.36674028653E+02 -0.90806068179E+02  0.12438467460E+03  0.00000000000E+00 0. -1.
         -2    1    6    6    0  503 -0.36098349475E+03 -0.60053199215E+02 -0.67607250776E+03  0.76875841847E+03  0.00000000000E+00 0.  1.
<mgrwt>
<rscale>  0 0.13544778E+04</rscale>
<asrwt>0</asrwt>
<pdfrwt beam="1">  1        1 0.25170128E+00 0.13544778E+04</pdfrwt>
<pdfrwt beam="2">  1       -1 0.43129223E-01 0.13544778E+04</pdfrwt>
<totfact> 0.27340410E+01</totfact>
</mgrwt>
</event>
<event>
12    2  0.3555611E-008  0.1599901E+04  0.7818608E-02  0.8820609E-01
         -1   -1    0    0    0  501 -0.00000000000E+00  0.00000000000E+00  0.80541260769E+03  0.80541260769E+03  0.00000000000E+00 0.  1.
          1   -1    0    0  501    0  0.00000000000E+00 -0.00000000000E+00 -0.79452520125E+03  0.79452520125E+03  0.00000000000E+00 0. -1.
         23    2    1    2    0    0 -0.93228791221E+02 -0.18498195171E+03  0.48127939188E+03  0.53299834483E+03  0.97711066770E+02 0.  0.
        254    2    1    2    0    0  0.93228791221E+02  0.18498195171E+03 -0.47039198543E+03  0.10669394641E+04  0.93497661476E+03 0.  0.
         23    2    4    4    0    0  0.43680156909E+03  0.30921963093E+03 -0.12791898564E+03  0.55803876096E+03  0.92906409553E+02 0.  0.
         23    2    4    4    0    0 -0.34357277787E+03 -0.12423767922E+03 -0.34247299980E+03  0.50890070315E+03  0.90636170774E+02 0.  0.
          4    1    3    3  502    0 -0.29364166467E+02 -0.33633419656E+01  0.28810906169E+02  0.41275109397E+02  0.00000000000E+00 0. -1.
         -4    1    3    3    0  502 -0.63864624754E+02 -0.18161860975E+03  0.45246848571E+03  0.49172323543E+03  0.00000000000E+00 0.  1.
         11    1    5    5    0    0  0.10179978299E+03  0.11773711250E+03 -0.56736360159E+02  0.16566302557E+03  0.00000000000E+00 0. -1.
        -11    1    5    5    0    0  0.33500178610E+03  0.19148251843E+03 -0.71182625478E+02  0.39237573539E+03  0.00000000000E+00 0.  1.
          4    1    6    6  503    0 -0.11232341678E+03 -0.69678475302E+02 -0.16981023702E+03  0.21519097675E+03  0.00000000000E+00 0. -1.
         -4    1    6    6    0  503 -0.23124936109E+03 -0.54559203915E+02 -0.17266276278E+03  0.29370972641E+03  0.00000000000E+00 0.  1.
<mgrwt>
<rscale>  0 0.15999008E+04</rscale>
<asrwt>0</asrwt>
<pdfrwt beam="1">  1        1 0.12223465E+00 0.15999008E+04</pdfrwt>
<pdfrwt beam="2">  1       -1 0.12390963E+00 0.15999008E+04</pdfrwt>
<totfact> 0.12271792E+01</totfact>
</mgrwt>
</event>
<event>
12    2  0.3555611E-008  0.1377901E+04  0.7818608E-02  0.8969972E-01
         -2   -1    0    0    0  501 -0.00000000000E+00  0.00000000000E+00  0.88618306948E+03  0.88618306948E+03  0.00000000000E+00 0.  1.
          2   -1    0    0  501    0  0.00000000000E+00 -0.00000000000E+00 -0.53561486999E+03  0.53561486999E+03  0.00000000000E+00 0. -1.
         23    2    1    2    0    0 -0.81971677415E+02  0.35151271061E+03  0.24951210954E+03  0.44810836414E+03  0.90908039211E+02 0.  0.
        254    2    1    2    0    0  0.81971677415E+02 -0.35151271061E+03  0.10105608995E+03  0.97368957532E+03  0.89865372316E+03 0.  0.
         23    2    4    4    0    0  0.26893597584E+03 -0.13161572586E+02 -0.29781733984E+03  0.41060788363E+03  0.86045802342E+02 0.  0.
         23    2    4    4    0    0 -0.18696429843E+03 -0.33835113802E+03  0.39887342979E+03  0.56308169169E+03  0.92324628541E+02 0.  0.
          3    1    3    3  502    0 -0.67813838389E+02  0.20258578893E+03  0.97503591526E+02  0.23483327897E+03  0.00000000000E+00 0. -1.
         -3    1    3    3    0  502 -0.14157839026E+02  0.14892692168E+03  0.15200851801E+03  0.21327508517E+03  0.00000000000E+00 0.  1.
         11    1    5    5    0    0  0.25020536668E+03 -0.24723741174E+02 -0.29622308659E+03  0.38853842271E+03  0.00000000000E+00 0. -1.
        -11    1    5    5    0    0  0.18730609165E+02  0.11562168588E+02 -0.15942532456E+01  0.22069460926E+02  0.00000000000E+00 0.  1.
          4    1    6    6  503    0 -0.12874699277E+03 -0.17342326553E+03  0.27035410244E+03  0.34603866530E+03  0.00000000000E+00 0. -1.
         -4    1    6    6    0  503 -0.58217305658E+02 -0.16492787249E+03  0.12851932735E+03  0.21704302639E+03  0.00000000000E+00 0.  1.
<mgrwt>
<rscale>  0 0.13779011E+04</rscale>
<asrwt>0</asrwt>
<pdfrwt beam="1">  1        2 0.82402288E-01 0.13779011E+04</pdfrwt>
<pdfrwt beam="2">  1       -2 0.13633586E+00 0.13779011E+04</pdfrwt>
<totfact> 0.21289940E+01</totfact>
</mgrwt>
</event>
<event>
12    2  0.3555611E-008  0.1753724E+04  0.7818608E-02  0.8731303E-01
          2   -1    0    0  501    0  0.00000000000E+00  0.00000000000E+00  0.12497130521E+04  0.12497130521E+04  0.00000000000E+00 0. -1.
         -2   -1    0    0    0  501 -0.00000000000E+00 -0.00000000000E+00 -0.61525082173E+03  0.61525082173E+03  0.00000000000E+00 0.  1.
         23    2    1    2    0    0  0.51686451468E+03 -0.27830349958E+03  0.52707247995E+03  0.79315169629E+03  0.81746252512E+02 0.  0.
        254    2    1    2    0    0 -0.51686451468E+03  0.27830349958E+03  0.10738975039E+03  0.10718121775E+04  0.89030726212E+03 0.  0.
         23    2    4    4    0    0  0.87302003415E+02  0.39018137138E+03 -0.87237820022E+02  0.42055340653E+03  0.96910206532E+02 0.  0.
         23    2    4    4    0    0 -0.60416651809E+03 -0.11187787180E+03  0.19462757041E+03  0.65125877099E+03  0.93403725013E+02 0.  0.
          3    1    3    3  502    0  0.48338062205E+03 -0.26298783436E+03  0.46257688194E+03  0.71888580352E+03  0.00000000000E+00 0. -1.
         -3    1    3    3    0  502  0.33483892624E+02 -0.15315665214E+02  0.64495598011E+02  0.74265892771E+02  0.00000000000E+00 0.  1.
         11    1    5    5    0    0  0.65119723677E+02  0.25281874744E+03 -0.96674896930E+01  0.26124960828E+03  0.00000000000E+00 0. -1.
        -11    1    5    5    0    0  0.22182279738E+02  0.13736262394E+03 -0.77570330329E+02  0.15930379825E+03  0.00000000000E+00 0.  1.
          1    1    6    6  503    0 -0.22258237290E+03 -0.61888361645E+02  0.31092196621E+02  0.23310900181E+03  0.00000000000E+00 0. -1.
         -1    1    6    6    0  503 -0.38158414519E+03 -0.49989510155E+02  0.16353537379E+03  0.41814976918E+03  0.00000000000E+00 0.  1.
<mgrwt>
<rscale>  0 0.17537240E+04</rscale>
<asrwt>0</asrwt>
<pdfrwt beam="1">  1        2 0.19226355E+00 0.17537240E+04</pdfrwt>
<pdfrwt beam="2">  1       -2 0.94653973E-01 0.17537240E+04</pdfrwt>
<totfact> 0.15762716E+01</totfact>
</mgrwt>
</event>
<event>
12    2  0.3555611E-008  0.1368740E+04  0.7818608E-02  0.8976762E-01
          1   -1    0    0  501    0  0.00000000000E+00  0.00000000000E+00  0.97053644239E+02  0.97053644239E+02  0.00000000000E+00 0. -1.
         -1   -1    0    0    0  501 -0.00000000000E+00 -0.00000000000E+00 -0.48258106869E+04  0.48258106869E+04  0.00000000000E+00 0.  1.
         23    2    1    2    0    0 -0.12508730098E+03 -0.12685313874E+03 -0.14117498673E+03  0.24417496942E+03  0.89176718580E+02 0.  0.
        254    2    1    2    0    0  0.12508730098E+03  0.12685313874E+03 -0.45875820560E+04  0.46786893618E+04  0.90138031479E+03 0.  0.
         23    2    4    4    0    0 -0.29057568104E+02  0.20363135014E+03 -0.44061039951E+04  0.44118687990E+04  0.92324509917E+02 0.  0.
         23    2    4    4    0    0  0.15414486908E+03 -0.76778211392E+02 -0.18147806087E+03  0.26682056273E+03  0.92754470030E+02 0.  0.
          4    1    3    3  502    0 -0.13348786020E+03 -0.11256772395E+03 -0.14522597346E+03  0.22711469496E+03  0.00000000000E+00 0. -1.
         -4    1    3    3    0  502  0.84005592236E+01 -0.14285414792E+02  0.40509867373E+01  0.17060274459E+02  0.00000000000E+00 0.  1.
         11    1    5    5    0    0 -0.39293598191E+02  0.61192724610E+02 -0.93288314477E+03  0.93571336327E+03  0.00000000000E+00 0. -1.
        -11    1    5    5    0    0  0.10236030087E+02  0.14243862553E+03 -0.34732208503E+04  0.34761554358E+04  0.00000000000E+00 0.  1.
          2    1    6    6  503    0  0.11006296203E+03 -0.24650864820E+02 -0.60704744693E+02  0.12808819920E+03  0.00000000000E+00 0.  1.
         -2    1    6    6    0  503  0.44081907055E+02 -0.52127346572E+02 -0.12077331617E+03  0.13873236353E+03  0.00000000000E+00 0. -1.
<mgrwt>
<rscale>  0 0.13687403E+04</rscale>
<asrwt>0</asrwt>
<pdfrwt beam="1">  1        1 0.14931328E-01 0.13687403E+04</pdfrwt>
<pdfrwt beam="2">  1       -1 0.74243250E+00 0.13687403E+04</pdfrwt>
<totfact> 0.53014077E-02</totfact>
</mgrwt>
</event>
<event>
12    2  0.3555611E-008  0.1461605E+04  0.7818608E-02  0.8910395E-01
          1   -1    0    0  501    0  0.00000000000E+00  0.00000000000E+00  0.16937827252E+04  0.16937827252E+04  0.00000000000E+00 0. -1.
         -1   -1    0    0    0  501 -0.00000000000E+00 -0.00000000000E+00 -0.31531322024E+03  0.31531322024E+03  0.00000000000E+00 0.  1.
         23    2    1    2    0    0  0.29927615162E+03  0.36346191796E+02 -0.17623258812E+02  0.31481586151E+03  0.88944852694E+02 0.  0.
        254    2    1    2    0    0 -0.29927615162E+03 -0.36346191796E+02  0.13960927638E+04  0.16942800840E+04  0.91138506525E+03 0.  0.
         23    2    4    4    0    0 -0.21434638380E+03 -0.31856427115E+03  0.13182505838E+04  0.13761364008E+04  0.92407925849E+02 0.  0.
         23    2    4    4    0    0 -0.84929767819E+02  0.28221807936E+03  0.77842179983E+02  0.31814368316E+03  0.91081767499E+02 0.  0.
          1    1    3    3  502    0  0.11720620495E+03 -0.78824263728E+00  0.33852105151E+02  0.12199951159E+03  0.00000000000E+00 0. -1.
         -1    1    3    3    0  502  0.18206994667E+03  0.37134434434E+02 -0.51475363963E+02  0.19281634992E+03  0.00000000000E+00 0.  1.
         11    1    5    5    0    0 -0.62767063245E+02 -0.88218657825E+02  0.53280217706E+03  0.54369145266E+03  0.00000000000E+00 0. -1.
        -11    1    5    5    0    0 -0.15157932056E+03 -0.23034561333E+03  0.78544840678E+03  0.83244494816E+03  0.00000000000E+00 0.  1.
          4    1    6    6  503    0 -0.49502154356E+02  0.11734682654E+03 -0.10459036426E+02  0.12778940656E+03  0.00000000000E+00 0. -1.
         -4    1    6    6    0  503 -0.35427613463E+02  0.16487125281E+03  0.88301216410E+02  0.19035427660E+03  0.00000000000E+00 0.  1.
<mgrwt>
<rscale>  0 0.14616047E+04</rscale>
<asrwt>0</asrwt>
<pdfrwt beam="1">  1        1 0.26058195E+00 0.14616047E+04</pdfrwt>
<pdfrwt beam="2">  1       -1 0.48509727E-01 0.14616047E+04</pdfrwt>
<totfact> 0.19856851E+01</totfact>
</mgrwt>
</event>
<event>
12    2  0.3555611E-008  0.1354188E+04  0.7818608E-02  0.8987664E-01
         -1   -1    0    0    0  501 -0.00000000000E+00  0.00000000000E+00  0.20379687347E+03  0.20379687347E+03  0.00000000000E+00 0.  1.
          1   -1    0    0  501    0  0.00000000000E+00 -0.00000000000E+00 -0.22495762585E+04  0.22495762585E+04  0.00000000000E+00 0. -1.
         23    2    1    2    0    0 -0.14928942177E+03 -0.65640653992E+02 -0.83436067386E+01  0.19097918196E+03  0.99032344517E+02 0.  0.
        254    2    1    2    0    0  0.14928942177E+03  0.65640653992E+02 -0.20374357782E+04  0.22623939500E+04  0.96988958520E+03 0.  0.
         23    2    4    4    0    0  0.52034601355E+03 -0.85441711714E+02 -0.14497079234E+04  0.15451781805E+04  0.88669534713E+02 0.  0.
         23    2    4    4    0    0 -0.37105659178E+03  0.15108236571E+03 -0.58772785488E+03  0.71721576951E+03  0.92008440373E+02 0.  0.
          3    1    3    3  502    0  0.10234661712E+02 -0.23513525160E+02 -0.37951794267E+01  0.25923687097E+02  0.00000000000E+00 0. -1.
         -3    1    3    3    0  502 -0.15952408348E+03 -0.42127128831E+02 -0.45484273120E+01  0.16505549486E+03  0.00000000000E+00 0.  1.
         11    1    5    5    0    0  0.25535007855E+03 -0.81335682892E+02 -0.66732778880E+03  0.71912831513E+03  0.00000000000E+00 0. -1.
        -11    1    5    5    0    0  0.26499593500E+03 -0.41060288222E+01 -0.78238013457E+03  0.82604986533E+03  0.00000000000E+00 0.  1.
          1    1    6    6  503    0 -0.20665109697E+03  0.10935635780E+03 -0.40688985003E+03  0.46927906295E+03  0.00000000000E+00 0. -1.
         -1    1    6    6    0  503 -0.16440549481E+03  0.41726007902E+02 -0.18083800485E+03  0.24793670656E+03  0.00000000000E+00 0.  1.
<mgrwt>
<rscale>  0 0.13541885E+04</rscale>
<asrwt>0</asrwt>
<pdfrwt beam="1">  1        1 0.34608865E+00 0.13541885E+04</pdfrwt>
<pdfrwt beam="2">  1       -1 0.31353366E-01 0.13541885E+04</pdfrwt>
<totfact> 0.18657498E+01</totfact>
</mgrwt>
</event>
<event>
12    2  0.3555611E-008  0.1358580E+04  0.7818608E-02  0.8984358E-01
          2   -1    0    0  501    0  0.00000000000E+00  0.00000000000E+00  0.35237289882E+03  0.35237289882E+03  0.00000000000E+00 0. -1.
         -2   -1    0    0    0  501 -0.00000000000E+00 -0.00000000000E+00 -0.13095081212E+04  0.13095081212E+04  0.00000000000E+00 0.  1.
         23    2    1    2    0    0  0.10394014547E+03 -0.29924504765E+03 -0.25941181879E+02  0.33172419715E+03  0.94957072786E+02 0.  0.
        254    2    1    2    0    0 -0.10394014547E+03  0.29924504765E+03 -0.93119404051E+03  0.13301568229E+04  0.89545724632E+03 0.  0.
         23    2    4    4    0    0  0.36682377625E+03  0.12233716858E+03 -0.22004197107E+03  0.45450031936E+03  0.92876292068E+02 0.  0.
         23    2    4    4    0    0 -0.47076392172E+03  0.17690787907E+03 -0.71115206944E+03  0.87565650352E+03  0.90122020653E+02 0.  0.
          1    1    3    3  502    0  0.10887612522E+03 -0.28297334699E+03 -0.44623475493E+02  0.30646236362E+03  0.00000000000E+00 0. -1.
         -1    1    3    3    0  502 -0.49359797529E+01 -0.16271700663E+02  0.18682293614E+02  0.25261833529E+02  0.00000000000E+00 0.  1.
         11    1    5    5    0    0  0.32660845163E+03  0.11412248498E+03 -0.22567582896E+03  0.41306973023E+03  0.00000000000E+00 0. -1.
        -11    1    5    5    0    0  0.40215324623E+02  0.82146836016E+01  0.56338578931E+01  0.41430589134E+02  0.00000000000E+00 0.  1.
          3    1    6    6  503    0 -0.17226101819E+03  0.96750120016E+02 -0.22350563838E+03  0.29831060071E+03  0.00000000000E+00 0. -1.
         -3    1    6    6    0  503 -0.29850290353E+03  0.80157759050E+02 -0.48764643107E+03  0.57734590280E+03  0.00000000000E+00 0.  1.
<mgrwt>
<rscale>  0 0.13585804E+04</rscale>
<asrwt>0</asrwt>
<pdfrwt beam="1">  1        2 0.54211214E-01 0.13585804E+04</pdfrwt>
<pdfrwt beam="2">  1       -2 0.20146279E+00 0.13585804E+04</pdfrwt>
<totfact> 0.11636613E+01</totfact>
</mgrwt>
</event>
<event>
12    2  0.3555611E-008  0.1321707E+04  0.7818608E-02  0.9012526E-01
          1   -1    0    0  501    0  0.00000000000E+00  0.00000000000E+00  0.60655301634E+03  0.60655301634E+03  0.00000000000E+00 0. -1.
         -1   -1    0    0    0  501 -0.00000000000E+00 -0.00000000000E+00 -0.72001557124E+03  0.72001557124E+03  0.00000000000E+00 0.  1.
         23    2    1    2    0    0  0.10347518439E+03 -0.28920907682E+03 -0.17633864158E+03  0.36913495124E+03  0.10400140292E+03 0.  0.
        254    2    1    2    0    0 -0.10347518439E+03  0.28920907682E+03  0.62876086677E+02  0.95743363635E+03  0.90464178647E+03 0.  0.
         23    2    4    4    0    0 -0.48732535528E+03  0.23824622370E+03 -0.30486909855E+02  0.55093814708E+03  0.91411843997E+02 0.  0.
         23    2    4    4    0    0  0.38385017089E+03  0.50962853121E+02  0.93362996532E+02  0.40649548927E+03  0.81140418926E+02 0.  0.
          1    1    3    3  502    0 -0.94523873103E+01 -0.20553760614E+02 -0.43142121699E+02  0.48713934002E+02  0.00000000000E+00 0. -1.
         -1    1    3    3    0  502  0.11292757170E+03 -0.26865531621E+03 -0.13319651988E+03  0.32042101723E+03  0.00000000000E+00 0.  1.
         11    1    5    5    0    0 -0.32179998801E+03  0.10925439322E+03 -0.29073753300E+02  0.34108215704E+03  0.00000000000E+00 0.  1.
        -11    1    5    5    0    0 -0.16552536727E+03  0.12899183048E+03 -0.14131565547E+01  0.20985599003E+03  0.00000000000E+00 0. -1.
          3    1    6    6  503    0  0.25633283493E+03  0.30386901190E+01  0.36738038435E+02  0.25896995843E+03  0.00000000000E+00 0. -1.
         -3    1    6    6    0  503  0.12751733596E+03  0.47924163002E+02  0.56624958098E+02  0.14752553084E+03  0.00000000000E+00 0.  1.
<mgrwt>
<rscale>  0 0.13217074E+04</rscale>
<asrwt>0</asrwt>
<pdfrwt beam="1">  1        1 0.93315849E-01 0.13217074E+04</pdfrwt>
<pdfrwt beam="2">  1       -1 0.11077163E+00 0.13217074E+04</pdfrwt>
<totfact> 0.24835084E+01</totfact>
</mgrwt>
</event>
<event>
12    2  0.3555611E-008  0.2243500E+04  0.7818608E-02  0.8500538E-01
         -2   -1    0    0    0  501 -0.00000000000E+00  0.00000000000E+00  0.53237068854E+03  0.53237068854E+03  0.00000000000E+00 0.  1.
          2   -1    0    0  501    0  0.00000000000E+00 -0.00000000000E+00 -0.23636213037E+04  0.23636213037E+04  0.00000000000E+00 0. -1.
         23    2    1    2    0    0 -0.63393739994E+03 -0.88012214423E+02  0.11528962227E+03  0.65652117572E+03  0.90030996003E+02 0.  0.
        254    2    1    2    0    0  0.63393739994E+03  0.88012214423E+02 -0.19465402374E+04  0.22394708165E+04  0.90365251348E+03 0.  0.
         23    2    4    4    0    0  0.15414436280E+03 -0.24362912259E+03 -0.14053704740E+04  0.14375308965E+04  0.91177163611E+02 0.  0.
         23    2    4    4    0    0  0.47979303714E+03  0.33164133701E+03 -0.54116976340E+03  0.80193992001E+03  0.10027755275E+03 0.  0.
          3    1    3    3  502    0 -0.30358487288E+03 -0.21535989911E+02  0.95444446355E+02  0.31896271921E+03  0.00000000000E+00 0. -1.
         -3    1    3    3    0  502 -0.33035252705E+03 -0.66476224512E+02  0.19845175913E+02  0.33755845651E+03  0.00000000000E+00 0.  1.
         11    1    5    5    0    0  0.12160227504E+03 -0.10826800900E+03 -0.72358299150E+03  0.74167474048E+03  0.00000000000E+00 0.  1.
        -11    1    5    5    0    0  0.32542087761E+02 -0.13536111359E+03 -0.68178748248E+03  0.69585615598E+03  0.00000000000E+00 0. -1.
          4    1    6    6  503    0  0.76647357875E+02  0.10176333007E+03 -0.10566266251E+03  0.16551492701E+03  0.00000000000E+00 0. -1.
         -4    1    6    6    0  503  0.40314567926E+03  0.22987800695E+03 -0.43550710089E+03  0.63642499300E+03  0.00000000000E+00 0.  1.
<mgrwt>
<rscale>  0 0.22434997E+04</rscale>
<asrwt>0</asrwt>
<pdfrwt beam="1">  1        2 0.36363404E+00 0.22434997E+04</pdfrwt>
<pdfrwt beam="2">  1       -2 0.81903184E-01 0.22434997E+04</pdfrwt>
<totfact> 0.49791689E+00</totfact>
</mgrwt>
</event>
<event>
12    2  0.3555611E-008  0.1687653E+04  0.7818608E-02  0.8768438E-01
         -2   -1    0    0    0  501 -0.00000000000E+00  0.00000000000E+00  0.53258539211E+03  0.53258539211E+03  0.00000000000E+00 0.  1.
          2   -1    0    0  501    0  0.00000000000E+00 -0.00000000000E+00 -0.13369564725E+04  0.13369564725E+04  0.00000000000E+00 0. -1.
         23    2    1    2    0    0 -0.37210922436E+01  0.60058510669E+03 -0.30508045199E+03  0.67882229749E+03  0.83721636778E+02 0.  0.
        254    2    1    2    0    0  0.37210922436E+01 -0.60058510669E+03 -0.49929062836E+03  0.11907195671E+04  0.89878008376E+03 0.  0.
         23    2    4    4    0    0 -0.33237986089E+03  0.13613163929E+02 -0.29941662258E+03  0.45689067537E+03  0.91853607436E+02 0.  0.
         23    2    4    4    0    0  0.33610095314E+03 -0.61419827062E+03 -0.19987400578E+03  0.73382889172E+03  0.91388499307E+02 0.  0.
          3    1    3    3  502    0  0.17217346119E+02  0.80504486449E+02 -0.17520944683E+02  0.84168835374E+02  0.00000000000E+00 0. -1.
         -3    1    3    3    0  502 -0.20938438362E+02  0.52008062025E+03 -0.28755950731E+03  0.59465346211E+03  0.00000000000E+00 0.  1.
         11    1    5    5    0    0 -0.60762031389E+02 -0.32216209814E+02 -0.47252931039E+02  0.83443083147E+02  0.00000000000E+00 0. -1.
        -11    1    5    5    0    0 -0.27161782950E+03  0.45829373743E+02 -0.25216369154E+03  0.37344759222E+03  0.00000000000E+00 0.  1.
          3    1    6    6  503    0  0.31561564822E+03 -0.50958631706E+03 -0.17354462042E+03  0.62402659176E+03  0.00000000000E+00 0.  1.
         -3    1    6    6    0  503  0.20485304917E+02 -0.10461195356E+03 -0.26329385360E+02  0.10980229997E+03  0.00000000000E+00 0. -1.
<mgrwt>
<rscale>  0 0.16876534E+04</rscale>
<asrwt>0</asrwt>
<pdfrwt beam="1">  1        2 0.20568561E+00 0.16876534E+04</pdfrwt>
<pdfrwt beam="2">  1       -2 0.81936214E-01 0.16876534E+04</pdfrwt>
<totfact> 0.19626964E+01</totfact>
</mgrwt>
</event>
<event>
12    2  0.3555611E-008  0.1718247E+04  0.7818608E-02  0.8751025E-01
         -2   -1    0    0    0  501 -0.00000000000E+00  0.00000000000E+00  0.12424615988E+04  0.12424615988E+04  0.00000000000E+00 0.  1.
          2   -1    0    0  501    0  0.00000000000E+00 -0.00000000000E+00 -0.59405738982E+03  0.59405738982E+03  0.00000000000E+00 0. -1.
         23    2    1    2    0    0  0.38476764742E+03 -0.25502682329E+03 -0.20658141416E+03  0.51412956679E+03  0.92566233994E+02 0.  0.
        254    2    1    2    0    0 -0.38476764742E+03  0.25502682329E+03  0.85498562315E+03  0.13223894218E+04  0.89701089409E+03 0.  0.
         23    2    4    4    0    0  0.14401313279E+03  0.73162015161E+02  0.71565534320E+03  0.73949106759E+03  0.92693073699E+02 0.  0.
         23    2    4    4    0    0 -0.52878078021E+03  0.18186480813E+03  0.13933027995E+03  0.58289835426E+03  0.87599329501E+02 0.  0.
          1    1    3    3  502    0  0.30978611577E+03 -0.24319400305E+03 -0.16023034212E+03  0.42518763291E+03  0.00000000000E+00 0. -1.
         -1    1    3    3    0  502  0.74981531648E+02 -0.11832820236E+02 -0.46351072038E+02  0.88941933879E+02  0.00000000000E+00 0.  1.
         11    1    5    5    0    0  0.12358161725E+03  0.61521879338E+02  0.69375809197E+03  0.70735963126E+03  0.00000000000E+00 0. -1.
        -11    1    5    5    0    0  0.20431515539E+02  0.11640135823E+02  0.21897251233E+02  0.32131436332E+02  0.00000000000E+00 0.  1.
          4    1    6    6  503    0 -0.40991313234E+03  0.17739390657E+03  0.11888537672E+03  0.46220245234E+03  0.00000000000E+00 0. -1.
         -4    1    6    6    0  503 -0.11886764788E+03  0.44709015593E+01  0.20444903229E+02  0.12069590192E+03  0.00000000000E+00 0.  1.
<mgrwt>
<rscale>  0 0.17182474E+04</rscale>
<asrwt>0</asrwt>
<pdfrwt beam="1">  1        2 0.91393444E-01 0.17182474E+04</pdfrwt>
<pdfrwt beam="2">  1       -2 0.19114794E+00 0.17182474E+04</pdfrwt>
<totfact> 0.72566124E+00</totfact>
</mgrwt>
</event>
<event>
12    2  0.3555611E-008  0.1870320E+04  0.7818608E-02  0.8669773E-01
         -1   -1    0    0    0  501 -0.00000000000E+00  0.00000000000E+00  0.30990807864E+03  0.30990807864E+03  0.00000000000E+00 0.  1.
          1   -1    0    0  501    0  0.00000000000E+00 -0.00000000000E+00 -0.28218833470E+04  0.28218833470E+04  0.00000000000E+00 0. -1.
         23    2    1    2    0    0 -0.10150719193E+03  0.86256114156E+02  0.21276594917E+03  0.26710693609E+03  0.91284932706E+02 0.  0.
        254    2    1    2    0    0  0.10150719193E+03 -0.86256114156E+02 -0.27247412175E+04  0.28646844895E+04  0.87433328599E+03 0.  0.
         23    2    4    4    0    0  0.23186446669E+03  0.34036108144E+03 -0.11339921194E+04  0.12100383731E+04  0.92994304481E+02 0.  0.
         23    2    4    4    0    0 -0.13035727476E+03 -0.42661719560E+03 -0.15907490980E+04  0.16546461165E+04  0.91519544902E+02 0.  0.
          3    1    3    3  502    0 -0.46980325312E+02 -0.10771727535E+02  0.46112099101E+02  0.66704623258E+02  0.00000000000E+00 0. -1.
         -3    1    3    3    0  502 -0.54526866620E+02  0.97027841691E+02  0.16665385006E+03  0.20040231283E+03  0.00000000000E+00 0.  1.
         11    1    5    5    0    0  0.22247749072E+03  0.28981580807E+03 -0.91852160256E+03  0.98851978779E+03  0.00000000000E+00 0. -1.
        -11    1    5    5    0    0  0.93869759769E+01  0.50545273371E+02 -0.21547051689E+03  0.22151858528E+03  0.00000000000E+00 0.  1.
          3    1    6    6  503    0  0.85187644818E+01 -0.81739788627E+01 -0.80414099772E+02  0.81276138693E+02  0.00000000000E+00 0.  1.
         -3    1    6    6    0  503 -0.13887603924E+03 -0.41844321673E+03 -0.15103349983E+04  0.15733699778E+04  0.00000000000E+00 0. -1.
<mgrwt>
<rscale>  0 0.18703202E+04</rscale>
<asrwt>0</asrwt>
<pdfrwt beam="1">  1        1 0.43413589E+00 0.18703202E+04</pdfrwt>
<pdfrwt beam="2">  1       -1 0.47678167E-01 0.18703202E+04</pdfrwt>
<totfact> 0.33188617E+00</totfact>
</mgrwt>
</event>
<event>
12    2  0.3555611E-008  0.1429489E+04  0.7818608E-02  0.8932745E-01
         -1   -1    0    0    0  501 -0.00000000000E+00  0.00000000000E+00  0.67897565046E+03  0.67897565046E+03  0.00000000000E+00 0.  1.
          1   -1    0    0  501    0  0.00000000000E+00 -0.00000000000E+00 -0.75239743228E+03  0.75239743228E+03  0.00000000000E+00 0. -1.
         23    2    1    2    0    0 -0.30502436932E+03 -0.28202798793E+03  0.41472006814E+02  0.42730025284E+03  0.91027066710E+02 0.  0.
        254    2    1    2    0    0  0.30502436932E+03  0.28202798793E+03 -0.11489378863E+03  0.10040728299E+04  0.90685280681E+03 0.  0.
         23    2    4    4    0    0  0.49118736581E+03 -0.53273553766E+02 -0.28186479817E+03  0.57620363747E+03  0.91976994575E+02 0.  0.
         23    2    4    4    0    0 -0.18616299649E+03  0.33530154170E+03  0.16697100954E+03  0.42786919242E+03  0.90049667787E+02 0.  0.
          1    1    3    3  502    0 -0.27708090940E+03 -0.21018313272E+03  0.41203077769E+02  0.35021204041E+03  0.00000000000E+00 0. -1.
         -1    1    3    3    0  502 -0.27943459923E+02 -0.71844855210E+02  0.26892904546E+00  0.77088212428E+02  0.00000000000E+00 0.  1.
         11    1    5    5    0    0  0.17639828519E+03 -0.62714845188E+02 -0.11640717793E+03  0.22045438961E+03  0.00000000000E+00 0. -1.
        -11    1    5    5    0    0  0.31478908062E+03  0.94412914221E+01 -0.16545762024E+03  0.35574924786E+03  0.00000000000E+00 0.  1.
          4    1    6    6  503    0  0.75314667386E+01  0.11703587902E+02 -0.29378044366E+01  0.14224192628E+02  0.00000000000E+00 0. -1.
         -4    1    6    6    0  503 -0.19369446323E+03  0.32359795380E+03  0.16990881398E+03  0.41364499979E+03  0.00000000000E+00 0.  1.
<mgrwt>
<rscale>  0 0.14294888E+04</rscale>
<asrwt>0</asrwt>
<pdfrwt beam="1">  1        1 0.11575345E+00 0.14294888E+04</pdfrwt>
<pdfrwt beam="2">  1       -1 0.10445779E+00 0.14294888E+04</pdfrwt>
<totfact> 0.20437397E+01</totfact>
</mgrwt>
</event>
<event>
12    2  0.3555611E-008  0.1329189E+04  0.7818608E-02  0.9006733E-01
          3   -1    0    0  501    0  0.00000000000E+00  0.00000000000E+00  0.50275970269E+03  0.50275970269E+03  0.00000000000E+00 0. -1.
         -3   -1    0    0    0  501 -0.00000000000E+00 -0.00000000000E+00 -0.87852270965E+03  0.87852270965E+03  0.00000000000E+00 0.  1.
         23    2    1    2    0    0 -0.13228013289E+03  0.32755763141E+03 -0.13398679765E+03  0.38894260165E+03  0.92368013871E+02 0.  0.
        254    2    1    2    0    0  0.13228013289E+03 -0.32755763141E+03 -0.24177620931E+03  0.99233981068E+03  0.89526003431E+03 0.  0.
         23    2    4    4    0    0  0.27840685567E+03  0.21392628294E+03 -0.21758824534E+03  0.42274767175E+03  0.89978428768E+02 0.  0.
         23    2    4    4    0    0 -0.14612672278E+03 -0.54148391435E+03 -0.24187963979E+02  0.56959213893E+03  0.96396569027E+02 0.  0.
          2    1    3    3  502    0 -0.11024830275E+03  0.32311653104E+03 -0.11747105259E+03  0.36105183712E+03  0.00000000000E+00 0. -1.
         -2    1    3    3    0  502 -0.22031830139E+02  0.44411003720E+01 -0.16515745052E+02  0.27890764536E+02  0.00000000000E+00 0.  1.
         11    1    5    5    0    0  0.60616704592E+02  0.97889791208E+02 -0.58595422349E+02  0.12919063286E+03  0.00000000000E+00 0.  1.
        -11    1    5    5    0    0  0.21779015108E+03  0.11603649174E+03 -0.15899282299E+03  0.29355703889E+03  0.00000000000E+00 0. -1.
          1    1    6    6  503    0 -0.15306972346E+03 -0.53943338295E+03 -0.27963395591E+02  0.56142734737E+03  0.00000000000E+00 0. -1.
         -1    1    6    6    0  503  0.69430006766E+01 -0.20505314013E+01  0.37754316122E+01  0.81647915638E+01  0.00000000000E+00 0.  1.
<mgrwt>
<rscale>  0 0.13291890E+04</rscale>
<asrwt>0</asrwt>
<pdfrwt beam="1">  1        3 0.77347648E-01 0.13291890E+04</pdfrwt>
<pdfrwt beam="2">  1       -3 0.13515734E+00 0.13291890E+04</pdfrwt>
<totfact> 0.16925430E+00</totfact>
</mgrwt>
</event>
<event>
12    2  0.3555611E-008  0.2037740E+04  0.7818608E-02  0.8589177E-01
         -2   -1    0    0    0  501 -0.00000000000E+00  0.00000000000E+00  0.12380939332E+04  0.12380939332E+04  0.00000000000E+00 0. -1.
          2   -1    0    0  501    0  0.00000000000E+00 -0.00000000000E+00 -0.83846280203E+03  0.83846280203E+03  0.00000000000E+00 0.  1.
         23    2    1    2    0    0  0.42075208982E+02 -0.58762159709E+03 -0.42533607182E+03  0.73248356415E+03  0.92476662883E+02 0.  0.
        254    2    1    2    0    0 -0.42075208982E+02  0.58762159709E+03  0.82496720302E+03  0.13440731711E+04  0.88254877410E+03 0.  0.
         23    2    4    4    0    0  0.21093853846E+03  0.66294025169E+02  0.70639315818E+03  0.74558412404E+03  0.89523333922E+02 0.  0.
         23    2    4    4    0    0 -0.25301374745E+03  0.52132757192E+03  0.11857404484E+03  0.59848904707E+03  0.91273992508E+02 0.  0.
          1    1    3    3  502    0 -0.21988426245E+02 -0.18818783926E+03 -0.10608080023E+03  0.21714347771E+03  0.00000000000E+00 0. -1.
         -1    1    3    3    0  502  0.64063635227E+02 -0.39943375783E+03 -0.31925527159E+03  0.51534008644E+03  0.00000000000E+00 0.  1.
         11    1    5    5    0    0  0.20919582553E+03  0.51554517432E+02  0.58736942288E+03  0.62563855430E+03  0.00000000000E+00 0.  1.
        -11    1    5    5    0    0  0.17427129325E+01  0.14739507737E+02  0.11902373530E+03  0.11994556975E+03  0.00000000000E+00 0. -1.
          3    1    6    6  503    0 -0.26465756607E+02  0.81626491884E+02  0.49482416868E+02  0.99054682016E+02  0.00000000000E+00 0. -1.
         -3    1    6    6    0  503 -0.22654799084E+03  0.43970108004E+03  0.69091627969E+02  0.49943436505E+03  0.00000000000E+00 0.  1.
<mgrwt>
<rscale>  0 0.20377396E+04</rscale>
<asrwt>0</asrwt>
<pdfrwt beam="1">  1        2 0.12899428E+00 0.20377396E+04</pdfrwt>
<pdfrwt beam="2">  1       -2 0.19047599E+00 0.20377396E+04</pdfrwt>
<totfact> 0.46061745E+00</totfact>
</mgrwt>
</event>
<event>
12    2  0.3555611E-008  0.1820816E+04  0.7818608E-02  0.8695308E-01
         -1   -1    0    0    0  501 -0.00000000000E+00  0.00000000000E+00  0.76221181093E+03  0.76221181093E+03  0.00000000000E+00 0.  1.
          1   -1    0    0  501    0  0.00000000000E+00 -0.00000000000E+00 -0.10874173493E+04  0.10874173493E+04  0.00000000000E+00 0. -1.
         23    2    1    2    0    0 -0.68079653592E+03 -0.18213982129E+02 -0.10267838831E+03  0.69496075439E+03  0.92800464714E+02 0.  0.
        254    2    1    2    0    0  0.68079653592E+03  0.18213982129E+02 -0.22252715005E+03  0.11546684058E+04  0.90549716866E+03 0.  0.
         23    2    4    4    0    0  0.23984684803E+03 -0.42428981444E+03 -0.38765080203E+02  0.49727289760E+03  0.90715192180E+02 0.  0.
         23    2    4    4    0    0  0.44094968790E+03  0.44250379657E+03 -0.18376206985E+03  0.65739550824E+03  0.90300158926E+02 0.  0.
          1    1    3    3  502    0 -0.39084252164E+03  0.20579460963E+02 -0.24464440707E+02  0.39214780350E+03  0.00000000000E+00 0.  1.
         -1    1    3    3    0  502 -0.28995401428E+03 -0.38793443092E+02 -0.78213947598E+02  0.30281295089E+03  0.00000000000E+00 0. -1.
         11    1    5    5    0    0  0.48659124801E+02 -0.31385058257E+02  0.50886161247E+01  0.58125952227E+02  0.00000000000E+00 0.  1.
        -11    1    5    5    0    0  0.19118772322E+03 -0.39290475619E+03 -0.43853696328E+02  0.43914694537E+03  0.00000000000E+00 0. -1.
          4    1    6    6  503    0  0.13049265880E+03  0.16703734906E+03 -0.26779936038E+02  0.21365152692E+03  0.00000000000E+00 0.  1.
         -4    1    6    6    0  503  0.31045702910E+03  0.27546644751E+03 -0.15698213381E+03  0.44374398132E+03  0.00000000000E+00 0. -1.
<mgrwt>
<rscale>  0 0.18208156E+04</rscale>
<asrwt>0</asrwt>
<pdfrwt beam="1">  1        1 0.16729498E+00 0.18208156E+04</pdfrwt>
<pdfrwt beam="2">  1       -1 0.11726336E+00 0.18208156E+04</pdfrwt>
<totfact> 0.79954531E+00</totfact>
</mgrwt>
</event>
<event>
12    2  0.3555611E-008  0.1412798E+04  0.7818608E-02  0.8944606E-01
          2   -1    0    0  501    0  0.00000000000E+00  0.00000000000E+00  0.97907422955E+03  0.97907422955E+03  0.00000000000E+00 0. -1.
         -2   -1    0    0    0  501 -0.00000000000E+00 -0.00000000000E+00 -0.50966479659E+03  0.50966479659E+03  0.00000000000E+00 0.  1.
         23    2    1    2    0    0 -0.99550021764E+01 -0.34012975400E+03 -0.10495940842E+03  0.36711097380E+03  0.89256025244E+02 0.  0.
        254    2    1    2    0    0  0.99550021764E+01  0.34012975400E+03  0.57436884138E+03  0.11216280523E+04  0.90131158331E+03 0.  0.
         23    2    4    4    0    0  0.11398251937E+03  0.36962532968E+03  0.77819514149E+03  0.87389778648E+03  0.92167043543E+02 0.  0.
         23    2    4    4    0    0 -0.10402751720E+03 -0.29495575674E+02 -0.20382630012E+03  0.24773026585E+03  0.90185423878E+02 0.  0.
          2    1    3    3  502    0 -0.34561754870E+02 -0.12668417889E+03 -0.71941087580E+02  0.14972947660E+03  0.00000000000E+00 0. -1.
         -2    1    3    3    0  502  0.24606752694E+02 -0.21344557512E+03 -0.33018320835E+02  0.21738149720E+03  0.00000000000E+00 0.  1.
         11    1    5    5    0    0  0.11059142711E+03  0.37357309367E+03  0.74926245113E+03  0.84450076420E+03  0.00000000000E+00 0. -1.
        -11    1    5    5    0    0  0.33910922643E+01 -0.39477639948E+01  0.28932690366E+02  0.29397022283E+02  0.00000000000E+00 0.  1.
          4    1    6    6  503    0 -0.48398902855E+02 -0.60132954496E+02 -0.10708491693E+03  0.13200608111E+03  0.00000000000E+00 0. -1.
         -4    1    6    6    0  503 -0.55628614342E+02  0.30637378821E+02 -0.96741383182E+02  0.11572418474E+03  0.00000000000E+00 0.  1.
<mgrwt>
<rscale>  0 0.14127982E+04</rscale>
<asrwt>0</asrwt>
<pdfrwt beam="1">  1        2 0.15062680E+00 0.14127982E+04</pdfrwt>
<pdfrwt beam="2">  1       -2 0.78409969E-01 0.14127982E+04</pdfrwt>
<totfact> 0.36550075E+01</totfact>
</mgrwt>
</event>
<event>
12    2  0.3555611E-008  0.1074089E+04  0.7818608E-02  0.9230821E-01
         -1   -1    0    0    0  501 -0.00000000000E+00  0.00000000000E+00  0.18786261306E+03  0.18786261306E+03  0.00000000000E+00 0.  1.
          1   -1    0    0  501    0  0.00000000000E+00 -0.00000000000E+00 -0.15352536115E+04  0.15352536115E+04  0.00000000000E+00 0. -1.
         23    2    1    2    0    0  0.13166357581E+03  0.51870046125E+02 -0.32862814896E+03  0.36951865702E+03  0.92313480721E+02 0.  0.
        254    2    1    2    0    0 -0.13166357581E+03 -0.51870046125E+02 -0.10187628495E+04  0.13535975676E+04  0.87995615373E+03 0.  0.
         23    2    4    4    0    0  0.31853528153E+03 -0.81697070426E+02 -0.15231841137E+03  0.37246270054E+03  0.85955965207E+02 0.  0.
         23    2    4    4    0    0 -0.45019885734E+03  0.29827024302E+02 -0.86644443813E+03  0.98113486701E+03  0.91274313829E+02 0.  0.
          4    1    3    3  502    0  0.31162013653E+02  0.26463173274E+02 -0.20090109306E+03  0.20501858410E+03  0.00000000000E+00 0. -1.
         -4    1    3    3    0  502  0.10050156215E+03  0.25406872851E+02 -0.12772705590E+03  0.16450007292E+03  0.00000000000E+00 0.  1.
         11    1    5    5    0    0  0.56993963745E+02 -0.46983336734E+02 -0.16343777949E+02  0.75649619375E+02  0.00000000000E+00 0. -1.
        -11    1    5    5    0    0  0.26154131779E+03 -0.34713733692E+02 -0.13597463342E+03  0.29681308116E+03  0.00000000000E+00 0.  1.
          4    1    6    6  503    0 -0.14978206104E+03  0.47325450154E+02 -0.25181301686E+03  0.29678975639E+03  0.00000000000E+00 0. -1.
         -4    1    6    6    0  503 -0.30041679630E+03 -0.17498425852E+02 -0.61463142128E+03  0.68434511062E+03  0.00000000000E+00 0.  1.
<mgrwt>
<rscale>  0 0.10740889E+04</rscale>
<asrwt>0</asrwt>
<pdfrwt beam="1">  1        1 0.23619286E+00 0.10740889E+04</pdfrwt>
<pdfrwt beam="2">  1       -1 0.28901941E-01 0.10740889E+04</pdfrwt>
<totfact> 0.67234129E+01</totfact>
</mgrwt>
</event>
<event>
12    2  0.3555611E-008  0.1844050E+04  0.7818608E-02  0.8683219E-01
         -1   -1    0    0    0  501 -0.00000000000E+00  0.00000000000E+00  0.53471971069E+03  0.53471971069E+03  0.00000000000E+00 0.  1.
          1   -1    0    0  501    0  0.00000000000E+00 -0.00000000000E+00 -0.15898608539E+04  0.15898608539E+04  0.00000000000E+00 0. -1.
         23    2    1    2    0    0 -0.42713920938E+02 -0.66133128285E+03 -0.14807654036E+03  0.68867344212E+03  0.11472098046E+03 0.  0.
        254    2    1    2    0    0  0.42713920938E+02  0.66133128285E+03 -0.90706460281E+03  0.14359071224E+04  0.89435984137E+03 0.  0.
         23    2    4    4    0    0 -0.10238306184E+03  0.43689068103E+03 -0.10297673327E+04  0.11271543145E+04  0.93275563624E+02 0.  0.
         23    2    4    4    0    0  0.14509698278E+03  0.22444060182E+03  0.12270272986E+03  0.30875280792E+03  0.94051147369E+02 0.  0.
          4    1    3    3  502    0  0.32458557745E+02 -0.11438018812E+03 -0.44485266664E+02  0.12694614746E+03  0.00000000000E+00 0. -1.
         -4    1    3    3    0  502 -0.75172478683E+02 -0.54695109473E+03 -0.10359127370E+03  0.56172729466E+03  0.00000000000E+00 0.  1.
         11    1    5    5    0    0 -0.10790381836E+03  0.27327722912E+03 -0.69276731394E+03  0.75249599948E+03  0.00000000000E+00 0.  1.
        -11    1    5    5    0    0  0.55207565214E+01  0.16361345190E+03 -0.33700001874E+03  0.37465831503E+03  0.00000000000E+00 0. -1.
          3    1    6    6  503    0  0.10689862958E+03  0.20512263365E+03  0.12999240463E+03  0.26533118382E+03  0.00000000000E+00 0. -1.
         -3    1    6    6    0  503  0.38198353198E+02  0.19317968168E+02 -0.72896747679E+01  0.43421624099E+02  0.00000000000E+00 0.  1.
<mgrwt>
<rscale>  0 0.18440498E+04</rscale>
<asrwt>0</asrwt>
<pdfrwt beam="1">  1        1 0.24459398E+00 0.18440498E+04</pdfrwt>
<pdfrwt beam="2">  1       -1 0.82264571E-01 0.18440498E+04</pdfrwt>
<totfact> 0.78320439E+00</totfact>
</mgrwt>
</event>
<event>
12    2  0.3555611E-008  0.1758606E+04  0.7818608E-02  0.8728627E-01
          2   -1    0    0  501    0  0.00000000000E+00  0.00000000000E+00  0.82200534247E+03  0.82200534247E+03  0.00000000000E+00 0. -1.
         -2   -1    0    0    0  501 -0.00000000000E+00 -0.00000000000E+00 -0.94059447654E+03  0.94059447654E+03  0.00000000000E+00 0.  1.
         23    2    1    2    0    0  0.31155351634E+03  0.37012696197E+03  0.38224189029E+03  0.62313240697E+03  0.90141956948E+02 0.  0.
        254    2    1    2    0    0 -0.31155351634E+03 -0.37012696197E+03 -0.50083102436E+03  0.11394674120E+04  0.90193941404E+03 0.  0.
         23    2    4    4    0    0 -0.31863383440E+03 -0.50865495617E+03 -0.66899954598E+03  0.90364270320E+03  0.93554036111E+02 0.  0.
         23    2    4    4    0    0  0.70803180663E+01  0.13852799419E+03  0.16816852162E+03  0.23582470883E+03  0.89958354543E+02 0.  0.
          2    1    3    3  502    0  0.30244762282E+03  0.36935203945E+03  0.35647689876E+03  0.59579465669E+03  0.00000000000E+00 0. -1.
         -2    1    3    3    0  502  0.91058935154E+01  0.77492252839E+00  0.25764991536E+02  0.27337750283E+02  0.00000000000E+00 0.  1.
         11    1    5    5    0    0 -0.25493882610E+03 -0.39565654715E+03 -0.46318393432E+03  0.66036146569E+03  0.00000000000E+00 0.  1.
        -11    1    5    5    0    0 -0.63695008304E+02 -0.11299840902E+03 -0.20581561166E+03  0.24328123752E+03  0.00000000000E+00 0. -1.
          4    1    6    6  503    0  0.17170160190E+02 -0.76460094151E+01  0.19881481157E+02  0.27359626349E+02  0.00000000000E+00 0. -1.
         -4    1    6    6    0  503 -0.10089842124E+02  0.14617400361E+03  0.14828704046E+03  0.20846508248E+03  0.00000000000E+00 0.  1.
<mgrwt>
<rscale>  0 0.17586059E+04</rscale>
<asrwt>0</asrwt>
<pdfrwt beam="1">  1        2 0.12646236E+00 0.17586059E+04</pdfrwt>
<pdfrwt beam="2">  1       -2 0.14470684E+00 0.17586059E+04</pdfrwt>
<totfact> 0.10360748E+01</totfact>
</mgrwt>
</event>
<event>
12    2  0.3555611E-008  0.1469616E+04  0.7818608E-02  0.8904913E-01
         -3   -1    0    0    0  501 -0.00000000000E+00  0.00000000000E+00  0.49579315426E+03  0.49579315426E+03  0.00000000000E+00 0.  1.
          3   -1    0    0  501    0  0.00000000000E+00 -0.00000000000E+00 -0.10890490223E+04  0.10890490223E+04  0.00000000000E+00 0. -1.
         23    2    1    2    0    0  0.42226541367E+03 -0.13023072480E+03 -0.85191586779E+02  0.45896529118E+03  0.90129966069E+02 0.  0.
        254    2    1    2    0    0 -0.42226541367E+03  0.13023072480E+03 -0.50806428128E+03  0.11258768854E+04  0.90233105117E+03 0.  0.
         23    2    4    4    0    0 -0.47882417614E+03 -0.29004387445E+03 -0.33112509159E+03  0.65722554374E+03  0.94358615420E+02 0.  0.
         23    2    4    4    0    0  0.56558762472E+02  0.42027459925E+03 -0.17693918969E+03  0.46865134166E+03  0.92179014977E+02 0.  0.
          4    1    3    3  502    0  0.24237689088E+03 -0.47808051464E+02 -0.84479617296E+02  0.26109188566E+03  0.00000000000E+00 0. -1.
         -4    1    3    3    0  502  0.17988852279E+03 -0.82422673340E+02 -0.71196948295E+00  0.19787340552E+03  0.00000000000E+00 0.  1.
         11    1    5    5    0    0 -0.30004658139E+03 -0.12992731430E+03 -0.20757059678E+03  0.38729137694E+03  0.00000000000E+00 0. -1.
        -11    1    5    5    0    0 -0.17877759476E+03 -0.16011656015E+03 -0.12355449481E+03  0.26993416681E+03  0.00000000000E+00 0.  1.
          2    1    6    6  503    0  0.12686603239E+02  0.34642906335E+02  0.94684494251E+01  0.38088481140E+02  0.00000000000E+00 0. -1.
         -2    1    6    6    0  503  0.43872159233E+02  0.38563169292E+03 -0.18640763911E+03  0.43056286052E+03  0.00000000000E+00 0.  1.
<mgrwt>
<rscale>  0 0.14696163E+04</rscale>
<asrwt>0</asrwt>
<pdfrwt beam="1">  1        3 0.16754600E+00 0.14696163E+04</pdfrwt>
<pdfrwt beam="2">  1       -3 0.76275871E-01 0.14696163E+04</pdfrwt>
<totfact> 0.99061617E-01</totfact>
</mgrwt>
</event>
<event>
12    2  0.3555611E-008  0.2204074E+04  0.7818608E-02  0.8516734E-01
          2   -1    0    0  501    0  0.00000000000E+00  0.00000000000E+00  0.17044701786E+04  0.17044701786E+04  0.00000000000E+00 0. -1.
         -2   -1    0    0    0  501 -0.00000000000E+00 -0.00000000000E+00 -0.71252970897E+03  0.71252970897E+03  0.00000000000E+00 0.  1.
         23    2    1    2    0    0 -0.22710220739E+03 -0.84762875872E+03  0.13592907569E+03  0.89269040886E+03  0.91485120323E+02 0.  0.
        254    2    1    2    0    0  0.22710220739E+03  0.84762875872E+03  0.85601139392E+03  0.15243094787E+04  0.90593264379E+03 0.  0.
         23    2    4    4    0    0 -0.27253614619E+03  0.76575969198E+02  0.55866908401E+02  0.30258036093E+03  0.91071034524E+02 0.  0.
         23    2    4    4    0    0  0.49963835358E+03  0.77105278952E+03  0.80014448552E+03  0.12217291178E+04  0.90719076703E+02 0.  0.
          1    1    3    3  502    0 -0.19444318087E+03 -0.58735072650E+03  0.73544039052E+02  0.62305517587E+03  0.00000000000E+00 0. -1.
         -1    1    3    3    0  502 -0.32659026526E+02 -0.26027803222E+03  0.62385036639E+02  0.26963523299E+03  0.00000000000E+00 0.  1.
         11    1    5    5    0    0 -0.20540297566E+03  0.20656500576E+02  0.60392169687E+02  0.21509134707E+03  0.00000000000E+00 0. -1.
        -11    1    5    5    0    0 -0.67133170524E+02  0.55919468622E+02 -0.45252612863E+01  0.87489013855E+02  0.00000000000E+00 0.  1.
          2    1    6    6  503    0  0.27408934019E+03  0.48911783282E+03  0.45225444133E+03  0.72034387656E+03  0.00000000000E+00 0. -1.
         -2    1    6    6    0  503  0.22554901339E+03  0.28193495670E+03  0.34789004419E+03  0.50138524120E+03  0.00000000000E+00 0.  1.
<mgrwt>
<rscale>  0 0.22040741E+04</rscale>
<asrwt>0</asrwt>
<pdfrwt beam="1">  1        2 0.26222618E+00 0.22040741E+04</pdfrwt>
<pdfrwt beam="2">  1       -2 0.10961996E+00 0.22040741E+04</pdfrwt>
<totfact> 0.59036021E+00</totfact>
</mgrwt>
</event>
<event>
12    2  0.3555611E-008  0.1223598E+04  0.7818608E-02  0.9092449E-01
         -2   -1    0    0    0  501 -0.00000000000E+00  0.00000000000E+00  0.17906535176E+03  0.17906535176E+03  0.00000000000E+00 0.  1.
          2   -1    0    0  501    0  0.00000000000E+00 -0.00000000000E+00 -0.20902861562E+04  0.20902861562E+04  0.00000000000E+00 0. -1.
         23    2    1    2    0    0  0.20852650743E+02  0.30478388866E+02 -0.92534570221E+03  0.93125030304E+03  0.97972920157E+02 0.  0.
        254    2    1    2    0    0 -0.20852650743E+02 -0.30478388866E+02 -0.98587510222E+03  0.13381012049E+04  0.90399189829E+03 0.  0.
         23    2    4    4    0    0 -0.41153183671E+03 -0.15644651866E+03 -0.32644060899E+03  0.55605365699E+03  0.93798893548E+02 0.  0.
         23    2    4    4    0    0  0.39067918597E+03  0.12596812979E+03 -0.65943449323E+03  0.78204754792E+03  0.90809252109E+02 0.  0.
          4    1    3    3  502    0  0.52451511754E+02  0.91368112689E+01 -0.74591888306E+03  0.74781657010E+03  0.00000000000E+00 0. -1.
         -4    1    3    3    0  502 -0.31598861011E+02  0.21341577597E+02 -0.17942681915E+03  0.18343373294E+03  0.00000000000E+00 0.  1.
         11    1    5    5    0    0 -0.26091285729E+03 -0.79650467757E+02 -0.14848978216E+03  0.31059448082E+03  0.00000000000E+00 0. -1.
        -11    1    5    5    0    0 -0.15061897943E+03 -0.76796050898E+02 -0.17795082683E+03  0.24545917617E+03  0.00000000000E+00 0.  1.
          1    1    6    6  503    0  0.36138637531E+03  0.13988689672E+03 -0.61771383367E+03  0.72920424879E+03  0.00000000000E+00 0. -1.
         -1    1    6    6    0  503  0.29292810657E+02 -0.13918766934E+02 -0.41720659558E+02  0.52843299132E+02  0.00000000000E+00 0.  1.
<mgrwt>
<rscale>  0 0.12235977E+04</rscale>
<asrwt>0</asrwt>
<pdfrwt beam="1">  1        2 0.32158248E+00 0.12235977E+04</pdfrwt>
<pdfrwt beam="2">  1       -2 0.27548516E-01 0.12235977E+04</pdfrwt>
<totfact> 0.70544092E+01</totfact>
</mgrwt>
</event>
<event>
12    2  0.3555611E-008  0.1706070E+04  0.7818608E-02  0.8757910E-01
         -3   -1    0    0    0  501 -0.00000000000E+00  0.00000000000E+00  0.11678134530E+04  0.11678134530E+04  0.00000000000E+00 0.  1.
          3   -1    0    0  501    0  0.00000000000E+00 -0.00000000000E+00 -0.62310361464E+03  0.62310361464E+03  0.00000000000E+00 0. -1.
         23    2    1    2    0    0 -0.50729938469E+03  0.33060476799E+03  0.81137611333E+02  0.61847540490E+03  0.96313738222E+02 0.  0.
        254    2    1    2    0    0  0.50729938469E+03 -0.33060476799E+03  0.46357222708E+03  0.11724416628E+04  0.89054369045E+03 0.  0.
         23    2    4    4    0    0  0.10750157633E+03  0.86222868483E+02  0.55610822388E+03  0.58013849491E+03  0.91177544629E+02 0.  0.
         23    2    4    4    0    0  0.39979780836E+03 -0.41682763647E+03 -0.92535996807E+02  0.59230316787E+03  0.93148085700E+02 0.  0.
          1    1    3    3  502    0 -0.77434162122E+02  0.54533534751E+02 -0.22131962913E+02  0.97261398604E+02  0.00000000000E+00 0. -1.
         -1    1    3    3    0  502 -0.42986522257E+03  0.27607123324E+03  0.10326957425E+03  0.52121400630E+03  0.00000000000E+00 0.  1.
         11    1    5    5    0    0  0.96855276972E+02  0.75025350772E+02  0.30687805359E+03  0.33042985293E+03  0.00000000000E+00 0.  1.
        -11    1    5    5    0    0  0.10646299358E+02  0.11197517710E+02  0.24923017030E+03  0.24970864198E+03  0.00000000000E+00 0. -1.
          1    1    6    6  503    0  0.22007951318E+02 -0.90451221512E+00 -0.10699421803E+02  0.24487664047E+02  0.00000000000E+00 0. -1.
         -1    1    6    6    0  503  0.37778985704E+03 -0.41592312426E+03 -0.81836575005E+02  0.56781550383E+03  0.00000000000E+00 0.  1.
<mgrwt>
<rscale>  0 0.17060701E+04</rscale>
<asrwt>0</asrwt>
<pdfrwt beam="1">  1        3 0.95862095E-01 0.17060701E+04</pdfrwt>
<pdfrwt beam="2">  1       -3 0.17966361E+00 0.17060701E+04</pdfrwt>
<totfact> 0.47727966E-01</totfact>
</mgrwt>
</event>
<event>
12    2  0.3555611E-008  0.1548601E+04  0.7818608E-02  0.8852762E-01
          2   -1    0    0  501    0  0.00000000000E+00  0.00000000000E+00  0.69456983340E+03  0.69456983340E+03  0.00000000000E+00 0. -1.
         -2   -1    0    0    0  501 -0.00000000000E+00 -0.00000000000E+00 -0.86318408778E+03  0.86318408778E+03  0.00000000000E+00 0.  1.
         23    2    1    2    0    0  0.28603242133E+03  0.10681607754E+03  0.34112707984E+03  0.46682757155E+03  0.91302116521E+02 0.  0.
        254    2    1    2    0    0 -0.28603242133E+03 -0.10681607754E+03 -0.50974133422E+03  0.10909263496E+04  0.91490975076E+03 0.  0.
         23    2    4    4    0    0  0.28935643917E+03 -0.33689880032E+02  0.11466162437E+02  0.30566932569E+03  0.91870054326E+02 0.  0.
         23    2    4    4    0    0 -0.57538886050E+03 -0.73126197511E+02 -0.52120749666E+03  0.78525702394E+03  0.92474631803E+02 0.  0.
          1    1    3    3  502    0  0.16992508225E+03  0.94788927913E+02  0.25969612100E+03  0.32450200260E+03  0.00000000000E+00 0. -1.
         -1    1    3    3    0  502  0.11610733908E+03  0.12027149631E+02  0.81430958844E+02  0.14232556894E+03  0.00000000000E+00 0.  1.
         11    1    5    5    0    0  0.19711000284E+03 -0.23223897395E+02  0.50754146217E+02  0.20486016203E+03  0.00000000000E+00 0. -1.
        -11    1    5    5    0    0  0.92246436329E+02 -0.10465982637E+02 -0.39287983779E+02  0.10080916366E+03  0.00000000000E+00 0.  1.
          1    1    6    6  503    0 -0.51581394709E+03 -0.48975234041E+02 -0.49249416489E+03  0.71485180563E+03  0.00000000000E+00 0. -1.
         -1    1    6    6    0  503 -0.59574913410E+02 -0.24150963470E+02 -0.28713331770E+02  0.70405218313E+02  0.00000000000E+00 0.  1.
<mgrwt>
<rscale>  0 0.15486015E+04</rscale>
<asrwt>0</asrwt>
<pdfrwt beam="1">  1        2 0.10685690E+00 0.15486015E+04</pdfrwt>
<pdfrwt beam="2">  1       -2 0.13279755E+00 0.15486015E+04</pdfrwt>
<totfact> 0.16383644E+01</totfact>
</mgrwt>
</event>
<event>
12    2  0.3555611E-008  0.1041251E+04  0.7818608E-02  0.9264424E-01
          2   -1    0    0  501    0  0.00000000000E+00  0.00000000000E+00  0.19509056927E+04  0.19509056927E+04  0.00000000000E+00 0. -1.
         -2   -1    0    0    0  501 -0.00000000000E+00 -0.00000000000E+00 -0.13893589898E+03  0.13893589898E+03  0.00000000000E+00 0.  1.
         23    2    1    2    0    0  0.10423567752E+02  0.28815383275E+02  0.43304658588E+03  0.44336614611E+03  0.90028978087E+02 0.  0.
        254    2    1    2    0    0 -0.10423567752E+02 -0.28815383275E+02  0.13789232078E+04  0.16464754456E+04  0.89917362211E+03 0.  0.
         23    2    4    4    0    0  0.37753667909E+03 -0.19253568459E+03  0.91825049606E+03  0.10156192328E+04  0.93244402803E+02 0.  0.
         23    2    4    4    0    0 -0.38796024684E+03  0.16372030132E+03  0.46067271178E+03  0.63085621276E+03  0.91884294667E+02 0.  0.
          2    1    3    3  502    0  0.10816543468E+02 -0.87143307300E+01  0.67909698086E+01  0.15461385566E+02  0.00000000000E+00 0.  1.
         -2    1    3    3    0  502 -0.39297571575E+00  0.37529714005E+02  0.42625561607E+03  0.42790476054E+03  0.00000000000E+00 0. -1.
         11    1    5    5    0    0  0.33560585038E+03 -0.17048221910E+03  0.72802450859E+03  0.81958230761E+03  0.00000000000E+00 0.  1.
        -11    1    5    5    0    0  0.41930828714E+02 -0.22053465494E+02  0.19022598747E+03  0.19603692521E+03  0.00000000000E+00 0. -1.
          2    1    6    6  503    0 -0.12493548432E+03  0.36768142458E+02  0.87136419370E+02  0.15669565125E+03  0.00000000000E+00 0. -1.
         -2    1    6    6    0  503 -0.26302476252E+03  0.12695215886E+03  0.37353629241E+03  0.47416056150E+03  0.00000000000E+00 0.  1.
<mgrwt>
<rscale>  0 0.10412509E+04</rscale>
<asrwt>0</asrwt>
<pdfrwt beam="1">  1        2 0.30013932E+00 0.10412509E+04</pdfrwt>
<pdfrwt beam="2">  1       -2 0.21374755E-01 0.10412509E+04</pdfrwt>
<totfact> 0.13502864E+02</totfact>
</mgrwt>
</event>
<event>
12    2  0.3555611E-008  0.1928203E+04  0.7818608E-02  0.8640944E-01
          2   -1    0    0  501    0  0.00000000000E+00  0.00000000000E+00  0.92752989525E+03  0.92752989525E+03  0.00000000000E+00 0. -1.
         -2   -1    0    0    0  501 -0.00000000000E+00 -0.00000000000E+00 -0.10021149562E+04  0.10021149562E+04  0.00000000000E+00 0.  1.
         23    2    1    2    0    0 -0.16702365031E+03 -0.62544691194E+03 -0.35792037161E+03  0.74535918299E+03  0.91501802406E+02 0.  0.
        254    2    1    2    0    0  0.16702365031E+03  0.62544691194E+03  0.28333531069E+03  0.11842856684E+04  0.95035409543E+03 0.  0.
         23    2    4    4    0    0 -0.78937393740E+02  0.76780497441E+03  0.22935959970E+01  0.77669580225E+03  0.86576658508E+02 0.  0.
         23    2    4    4    0    0  0.24596104405E+03 -0.14235806247E+03  0.28104171470E+03  0.40758986616E+03  0.79889927122E+02 0.  0.
          3    1    3    3  502    0 -0.26361105460E+02 -0.17054070627E+03 -0.13755473357E+03  0.22068154681E+03  0.00000000000E+00 0. -1.
         -3    1    3    3    0  502 -0.14066254485E+03 -0.45490620567E+03 -0.22036563804E+03  0.52467763619E+03  0.00000000000E+00 0.  1.
         11    1    5    5    0    0 -0.30312362846E+01  0.15810987535E+03  0.32927199779E+02  0.16153055922E+03  0.00000000000E+00 0.  1.
        -11    1    5    5    0    0 -0.75906157456E+02  0.60969509906E+03 -0.30633603782E+02  0.61516524304E+03  0.00000000000E+00 0. -1.
          2    1    6    6  503    0  0.14506662164E+03 -0.38826767649E+02  0.15465420850E+03  0.21556847359E+03  0.00000000000E+00 0. -1.
         -2    1    6    6    0  503  0.10089442241E+03 -0.10353129482E+03  0.12638750620E+03  0.19202139257E+03  0.00000000000E+00 0.  1.
<mgrwt>
<rscale>  0 0.19282029E+04</rscale>
<asrwt>0</asrwt>
<pdfrwt beam="1">  1        2 0.14269691E+00 0.19282029E+04</pdfrwt>
<pdfrwt beam="2">  1       -2 0.15417153E+00 0.19282029E+04</pdfrwt>
<totfact> 0.73105570E+00</totfact>
</mgrwt>
</event>
<event>
12    2  0.3555611E-008  0.1957662E+04  0.7818608E-02  0.8626675E-01
         -2   -1    0    0    0  501 -0.00000000000E+00  0.00000000000E+00  0.22227706673E+03  0.22227706673E+03  0.00000000000E+00 0.  1.
          2   -1    0    0  501    0  0.00000000000E+00 -0.00000000000E+00 -0.43104301743E+04  0.43104301743E+04  0.00000000000E+00 0. -1.
         23    2    1    2    0    0  0.43197498763E+03 -0.31983697476E+02 -0.30076585041E+04  0.30400930139E+04  0.92360752975E+02 0.  0.
        254    2    1    2    0    0 -0.43197498763E+03  0.31983697476E+02 -0.10804946035E+04  0.14926142272E+04  0.93423942125E+03 0.  0.
         23    2    4    4    0    0  0.10465687889E+03 -0.32863495550E+03 -0.52863107605E+03  0.63762254412E+03  0.90319975248E+02 0.  0.
         23    2    4    4    0    0 -0.53663186652E+03  0.36061865297E+03 -0.55186352743E+03  0.85499168307E+03  0.91857782363E+02 0.  0.
          1    1    3    3  502    0  0.40954419225E+03 -0.24076508446E+02 -0.26420479174E+04  0.26737096554E+04  0.00000000000E+00 0. -1.
         -1    1    3    3    0  502  0.22430795378E+02 -0.79071890292E+01 -0.36561058673E+03  0.36638335844E+03  0.00000000000E+00 0.  1.
         11    1    5    5    0    0  0.56997547781E+01 -0.16423276030E+03 -0.23068035178E+03  0.28322837332E+03  0.00000000000E+00 0. -1.
        -11    1    5    5    0    0  0.98957124109E+02 -0.16440219520E+03 -0.29795072427E+03  0.35439417080E+03  0.00000000000E+00 0.  1.
          4    1    6    6  503    0 -0.51224153219E+02  0.46500929369E+02 -0.27498335117E+02  0.74447355489E+02  0.00000000000E+00 0. -1.
         -4    1    6    6    0  503 -0.48540771330E+03  0.31411772360E+03 -0.52436519231E+03  0.78054432758E+03  0.00000000000E+00 0.  1.
<mgrwt>
<rscale>  0 0.19576616E+04</rscale>
<asrwt>0</asrwt>
<pdfrwt beam="1">  1        2 0.66314305E+00 0.19576616E+04</pdfrwt>
<pdfrwt beam="2">  1       -2 0.34196474E-01 0.19576616E+04</pdfrwt>
<totfact> 0.14069255E+00</totfact>
</mgrwt>
</event>
<event>
12    2  0.3555611E-008  0.1449949E+04  0.7818608E-02  0.8918436E-01
          1   -1    0    0  501    0  0.00000000000E+00  0.00000000000E+00  0.17644807588E+04  0.17644807588E+04  0.00000000000E+00 0. -1.
         -1   -1    0    0    0  501 -0.00000000000E+00 -0.00000000000E+00 -0.29787136807E+03  0.29787136807E+03  0.00000000000E+00 0.  1.
         23    2    1    2    0    0 -0.42590150756E+03 -0.83146992212E+02  0.35315268579E+03  0.56620807992E+03  0.87001458790E+02 0.  0.
        254    2    1    2    0    0  0.42590150756E+03  0.83146992212E+02  0.11134567050E+04  0.14961440470E+04  0.90019756664E+03 0.  0.
         23    2    4    4    0    0  0.47183056439E+03 -0.18339608831E+02  0.12225474963E+04  0.13142229230E+04  0.97974935676E+02 0.  0.
         23    2    4    4    0    0 -0.45929056824E+02  0.10148660104E+03 -0.10909079130E+03  0.18192112394E+03  0.93730924131E+02 0.  0.
          1    1    3    3  502    0 -0.51519528904E+02  0.93360532271E+01  0.18246943814E+02  0.55447044168E+02  0.00000000000E+00 0. -1.
         -1    1    3    3    0  502 -0.37438197866E+03 -0.92483045439E+02  0.33490574197E+03  0.51076103575E+03  0.00000000000E+00 0.  1.
         11    1    5    5    0    0  0.43567301712E+03  0.79429383585E+01  0.11382763764E+04  0.12188302495E+04  0.00000000000E+00 0. -1.
        -11    1    5    5    0    0  0.36157547263E+02 -0.26282547189E+02  0.84271119923E+02  0.95392673534E+02  0.00000000000E+00 0.  1.
          3    1    6    6  503    0  0.22083685219E+02  0.27214859091E+02 -0.60928282758E+02  0.70289354443E+02  0.00000000000E+00 0. -1.
         -3    1    6    6    0  503 -0.68012742043E+02  0.74271741952E+02 -0.48162508543E+02  0.11163176950E+03  0.00000000000E+00 0.  1.
<mgrwt>
<rscale>  0 0.14499494E+04</rscale>
<asrwt>0</asrwt>
<pdfrwt beam="1">  1        1 0.27145857E+00 0.14499494E+04</pdfrwt>
<pdfrwt beam="2">  1       -1 0.45826365E-01 0.14499494E+04</pdfrwt>
<totfact> 0.19804713E+01</totfact>
</mgrwt>
</event>
<event>
12    2  0.3555611E-008  0.1381809E+04  0.7818608E-02  0.8967092E-01
          2   -1    0    0  501    0  0.00000000000E+00  0.00000000000E+00  0.16602952750E+04  0.16602952750E+04  0.00000000000E+00 0. -1.
         -2   -1    0    0    0  501 -0.00000000000E+00 -0.00000000000E+00 -0.28750859051E+03  0.28750859051E+03  0.00000000000E+00 0.  1.
         23    2    1    2    0    0 -0.28317722839E+03 -0.49426358722E+02  0.79834267180E+03  0.85347072011E+03  0.91809263447E+02 0.  0.
        254    2    1    2    0    0  0.28317722839E+03  0.49426358722E+02  0.57444401272E+03  0.10943331454E+04  0.88597223535E+03 0.  0.
         23    2    4    4    0    0  0.58362528128E+03  0.12205985658E+03  0.43206521307E+03  0.74191851994E+03  0.90805640542E+02 0.  0.
         23    2    4    4    0    0 -0.30044805289E+03 -0.72633497854E+02  0.14237879965E+03  0.35241462548E+03  0.91540636700E+02 0.  0.
          3    1    3    3  502    0 -0.19794764122E+03 -0.36183723696E+02  0.66401114251E+03  0.69383234856E+03  0.00000000000E+00 0. -1.
         -3    1    3    3    0  502 -0.85229587166E+02 -0.13242635026E+02  0.13433152929E+03  0.15963837155E+03  0.00000000000E+00 0.  1.
         11    1    5    5    0    0  0.70875520659E+02  0.35826973773E+02  0.30971904655E+02  0.85241834543E+02  0.00000000000E+00 0. -1.
        -11    1    5    5    0    0  0.51274976062E+03  0.86232882803E+02  0.40109330841E+03  0.65667668540E+03  0.00000000000E+00 0.  1.
          1    1    6    6  503    0 -0.10691713411E+02  0.16094258896E+02  0.77554926530E+01  0.20820316312E+02  0.00000000000E+00 0. -1.
         -1    1    6    6    0  503 -0.28975633948E+03 -0.88727756749E+02  0.13462330699E+03  0.33159430917E+03  0.00000000000E+00 0.  1.
<mgrwt>
<rscale>  0 0.13818092E+04</rscale>
<asrwt>0</asrwt>
<pdfrwt beam="1">  1        2 0.25543004E+00 0.13818092E+04</pdfrwt>
<pdfrwt beam="2">  1       -2 0.44232092E-01 0.13818092E+04</pdfrwt>
<totfact> 0.48739902E+01</totfact>
</mgrwt>
</event>
<event>
12    2  0.3555611E-008  0.2063462E+04  0.7818608E-02  0.8577512E-01
          1   -1    0    0  501    0  0.00000000000E+00  0.00000000000E+00  0.15480107549E+04  0.15480107549E+04  0.00000000000E+00 0. -1.
         -1   -1    0    0    0  501 -0.00000000000E+00 -0.00000000000E+00 -0.68763664254E+03  0.68763664254E+03  0.00000000000E+00 0.  1.
         23    2    1    2    0    0  0.51031161081E+03 -0.59666905415E+03 -0.18666166599E+02  0.79059549787E+03  0.90889576806E+02 0.  0.
        254    2    1    2    0    0 -0.51031161081E+03  0.59666905415E+03  0.87904027897E+03  0.14450518996E+04  0.83608090525E+03 0.  0.
         23    2    4    4    0    0 -0.36706896817E+03  0.48019295409E+03  0.10241715135E+04  0.11928878454E+04  0.93430305521E+02 0.  0.
         23    2    4    4    0    0 -0.14324264264E+03  0.11647610006E+03 -0.14513123457E+03  0.25216405419E+03  0.91861299916E+02 0.  0.
          3    1    3    3  502    0  0.17374789066E+03 -0.14297753239E+03  0.68887057070E+01  0.22511854332E+03  0.00000000000E+00 0. -1.
         -3    1    3    3    0  502  0.33656372015E+03 -0.45369152176E+03 -0.25554872306E+02  0.56547695456E+03  0.00000000000E+00 0.  1.
         11    1    5    5    0    0 -0.36767171250E+03  0.47121641993E+03  0.98055715514E+03  0.11483552312E+04  0.00000000000E+00 0.  1.
        -11    1    5    5    0    0  0.60274432371E+00  0.89765341572E+01  0.43614358397E+02  0.44532614167E+02  0.00000000000E+00 0. -1.
          1    1    6    6  503    0 -0.33997353678E+02  0.84511768889E+02 -0.50603327672E+02  0.10420535451E+03  0.00000000000E+00 0. -1.
         -1    1    6    6    0  503 -0.10924528896E+03  0.31964331171E+02 -0.94527906896E+02  0.14795869967E+03  0.00000000000E+00 0.  1.
<mgrwt>
<rscale>  0 0.20634621E+04</rscale>
<asrwt>0</asrwt>
<pdfrwt beam="1">  1        1 0.23815550E+00 0.20634621E+04</pdfrwt>
<pdfrwt beam="2">  1       -1 0.10579025E+00 0.20634621E+04</pdfrwt>
<totfact> 0.46768401E+00</totfact>
</mgrwt>
</event>
<event>
12    2  0.3555611E-008  0.1474888E+04  0.7818608E-02  0.8901326E-01
          1   -1    0    0  501    0  0.00000000000E+00  0.00000000000E+00  0.27380960382E+03  0.27380960382E+03  0.00000000000E+00 0. -1.
         -1   -1    0    0    0  501 -0.00000000000E+00 -0.00000000000E+00 -0.19861381490E+04  0.19861381490E+04  0.00000000000E+00 0.  1.
         23    2    1    2    0    0 -0.10005941918E+02 -0.11468180728E+03  0.13592447712E+03  0.19986152471E+03  0.90648385444E+02 0.  0.
        254    2    1    2    0    0  0.10005941918E+02  0.11468180728E+03 -0.18482530223E+04  0.20600862281E+04  0.90258739024E+03 0.  0.
         23    2    4    4    0    0 -0.16038324281E+03  0.40606223589E+03 -0.51341783173E+03  0.68013481231E+03  0.91521412782E+02 0.  0.
         23    2    4    4    0    0  0.17038918472E+03 -0.29138042861E+03 -0.13348351906E+04  0.13799514158E+04  0.92444012899E+02 0.  0.
          4    1    3    3  502    0 -0.14516051521E+02 -0.96661909497E+02  0.14824653055E+03  0.17757047705E+03  0.00000000000E+00 0. -1.
         -4    1    3    3    0  502  0.45101096035E+01 -0.18019897783E+02 -0.12322053435E+02  0.22291047656E+02  0.00000000000E+00 0.  1.
         11    1    5    5    0    0 -0.11322624308E+03  0.29956212421E+03 -0.30987637901E+03  0.44562430213E+03  0.00000000000E+00 0. -1.
        -11    1    5    5    0    0 -0.47156999723E+02  0.10650011168E+03 -0.20354145272E+03  0.23451051018E+03  0.00000000000E+00 0.  1.
          4    1    6    6  503    0  0.78503379676E+02 -0.13776321134E+03 -0.81162848032E+03  0.82697174867E+03  0.00000000000E+00 0. -1.
         -4    1    6    6    0  503  0.91885805048E+02 -0.15361721727E+03 -0.52320671025E+03  0.55297966713E+03  0.00000000000E+00 0.  1.
<mgrwt>
<rscale>  0 0.14748881E+04</rscale>
<asrwt>0</asrwt>
<pdfrwt beam="1">  1        1 0.42124555E-01 0.14748881E+04</pdfrwt>
<pdfrwt beam="2">  1       -1 0.30555971E+00 0.14748881E+04</pdfrwt>
<totfact> 0.29187938E+00</totfact>
</mgrwt>
</event>
<event>
12    2  0.3555611E-008  0.2537538E+04  0.7818608E-02  0.8389733E-01
          1   -1    0    0  501    0  0.00000000000E+00  0.00000000000E+00  0.10278799521E+04  0.10278799521E+04  0.00000000000E+00 0. -1.
         -1   -1    0    0    0  501 -0.00000000000E+00 -0.00000000000E+00 -0.15661122481E+04  0.15661122481E+04  0.00000000000E+00 0.  1.
         23    2    1    2    0    0  0.44565460673E+03  0.67001029125E+03 -0.10104406673E+04  0.12947744279E+04  0.89043012855E+02 0.  0.
        254    2    1    2    0    0 -0.44565460673E+03 -0.67001029125E+03  0.47220837134E+03  0.12992177723E+04  0.90413729881E+03 0.  0.
         23    2    4    4    0    0 -0.62489568641E+03 -0.72962316569E+03  0.50145803783E+03  0.10875744066E+04  0.92267780376E+02 0.  0.
         23    2    4    4    0    0  0.17924107968E+03  0.59612874439E+02 -0.29249666489E+02  0.21164336577E+03  0.90864249526E+02 0.  0.
          3    1    3    3  502    0  0.87900985177E+02  0.19970900671E+03 -0.25269834617E+03  0.33386632761E+03  0.00000000000E+00 0. -1.
         -3    1    3    3    0  502  0.35775362156E+03  0.47030128455E+03 -0.75774232114E+03  0.96090810031E+03  0.00000000000E+00 0.  1.
         11    1    5    5    0    0 -0.64471174476E+02 -0.94920798177E+02  0.91899615796E+02  0.14701030457E+03  0.00000000000E+00 0. -1.
        -11    1    5    5    0    0 -0.56042451194E+03 -0.63470236752E+03  0.40955842204E+03  0.94056410200E+03  0.00000000000E+00 0.  1.
          3    1    6    6  503    0 -0.10220912039E+02  0.74443035477E+01 -0.51691723173E+01  0.13660345554E+02  0.00000000000E+00 0. -1.
         -3    1    6    6    0  503  0.18946199172E+03  0.52168570891E+02 -0.24080494172E+02  0.19798302022E+03  0.00000000000E+00 0.  1.
<mgrwt>
<rscale>  0 0.25375385E+04</rscale>
<asrwt>0</asrwt>
<pdfrwt beam="1">  1        1 0.15813538E+00 0.25375385E+04</pdfrwt>
<pdfrwt beam="2">  1       -1 0.24094034E+00 0.25375385E+04</pdfrwt>
<totfact> 0.10186918E+00</totfact>
</mgrwt>
</event>
<event>
12    2  0.3555611E-008  0.2628664E+04  0.7818608E-02  0.8358529E-01
         -1   -1    0    0    0  501 -0.00000000000E+00  0.00000000000E+00  0.86127117065E+03  0.86127117065E+03  0.00000000000E+00 0.  1.
          1   -1    0    0  501    0  0.00000000000E+00 -0.00000000000E+00 -0.20057199194E+04  0.20057199194E+04  0.00000000000E+00 0. -1.
         23    2    1    2    0    0  0.70329805167E+02 -0.38499383525E+03 -0.17030235166E+04  0.17499861916E+04  0.94847446024E+02 0.  0.
        254    2    1    2    0    0 -0.70329805167E+02  0.38499383525E+03  0.55857476785E+03  0.11170048985E+04  0.88460592199E+03 0.  0.
         23    2    4    4    0    0  0.32898754810E+03  0.34799981593E+02  0.36953765874E+01  0.34354983249E+03  0.92568818039E+02 0.  0.
         23    2    4    4    0    0 -0.39931735327E+03  0.35019385366E+03  0.55487939126E+03  0.77345506596E+03  0.90837858037E+02 0.  0.
          4    1    3    3  502    0  0.56480007942E+01 -0.27146375773E+03 -0.11901758352E+04  0.12207550903E+04  0.00000000000E+00 0. -1.
         -4    1    3    3    0  502  0.64681804373E+02 -0.11353007752E+03 -0.51284768140E+03  0.52923110135E+03  0.00000000000E+00 0.  1.
         11    1    5    5    0    0 -0.50395645138E+01 -0.38758683828E+01  0.35693512873E+01  0.72910791260E+01  0.00000000000E+00 0. -1.
        -11    1    5    5    0    0  0.33402711262E+03  0.38675849976E+02  0.12602530009E+00  0.33625875337E+03  0.00000000000E+00 0.  1.
          1    1    6    6  503    0  0.40815477803E+01 -0.98176679849E-01  0.76462578798E+01  0.86679830703E+01  0.00000000000E+00 0. -1.
         -1    1    6    6    0  503 -0.40339890105E+03  0.35029203034E+03  0.54723313338E+03  0.76478708289E+03  0.00000000000E+00 0.  1.
<mgrwt>
<rscale>  0 0.26286641E+04</rscale>
<asrwt>0</asrwt>
<pdfrwt beam="1">  1        1 0.30857229E+00 0.26286641E+04</pdfrwt>
<pdfrwt beam="2">  1       -1 0.13250326E+00 0.26286641E+04</pdfrwt>
<totfact> 0.12535303E+00</totfact>
</mgrwt>
</event>
<event>
12    2  0.3555611E-008  0.1951739E+04  0.7818608E-02  0.8629523E-01
         -2   -1    0    0    0  501 -0.00000000000E+00  0.00000000000E+00  0.30355291930E+03  0.30355291930E+03  0.00000000000E+00 0.  1.
          2   -1    0    0  501    0  0.00000000000E+00 -0.00000000000E+00 -0.31372490993E+04  0.31372490993E+04  0.00000000000E+00 0. -1.
         23    2    1    2    0    0  0.25072890009E+03  0.50055506384E+01  0.15681150906E+03  0.30980599755E+03  0.92194738829E+02 0.  0.
        254    2    1    2    0    0 -0.25072890009E+03 -0.50055506384E+01 -0.29905076891E+04  0.31309960211E+04  0.89281006300E+03 0.  0.
         23    2    4    4    0    0  0.61102550256E+02 -0.36301852196E+03 -0.77117041735E+03  0.85946340884E+03  0.91965045603E+02 0.  0.
         23    2    4    4    0    0 -0.31183145035E+03  0.35801297132E+03 -0.22193372717E+04  0.22715326122E+04  0.94817412050E+02 0.  0.
          2    1    3    3  502    0  0.30797829899E+02  0.33067467703E+02  0.32045580710E+02  0.55397499852E+02  0.00000000000E+00 0. -1.
         -2    1    3    3    0  502  0.21993107019E+03 -0.28061917065E+02  0.12476592835E+03  0.25440849770E+03  0.00000000000E+00 0.  1.
         11    1    5    5    0    0  0.21627117416E+02 -0.29077624102E+03 -0.65613416444E+03  0.71800459351E+03  0.00000000000E+00 0.  1.
        -11    1    5    5    0    0  0.39475432840E+02 -0.72242280941E+02 -0.11503625290E+03  0.14145881533E+03  0.00000000000E+00 0. -1.
          3    1    6    6  503    0 -0.15936806920E+03  0.11396335574E+03 -0.85030312303E+03  0.87258307855E+03  0.00000000000E+00 0. -1.
         -3    1    6    6    0  503 -0.15246338115E+03  0.24404961558E+03 -0.13690341487E+04  0.13989495337E+04  0.00000000000E+00 0.  1.
<mgrwt>
<rscale>  0 0.19517388E+04</rscale>
<asrwt>0</asrwt>
<pdfrwt beam="1">  1        2 0.48265373E+00 0.19517388E+04</pdfrwt>
<pdfrwt beam="2">  1       -2 0.46700447E-01 0.19517388E+04</pdfrwt>
<totfact> 0.57943038E+00</totfact>
</mgrwt>
</event>
<event>
12    2  0.3555611E-008  0.4179981E+04  0.7818608E-02  0.7969191E-01
          1   -1    0    0  501    0  0.00000000000E+00  0.00000000000E+00  0.30190100556E+04  0.30190100556E+04  0.00000000000E+00 0. -1.
         -1   -1    0    0    0  501 -0.00000000000E+00 -0.00000000000E+00 -0.14468518310E+04  0.14468518310E+04  0.00000000000E+00 0.  1.
         23    2    1    2    0    0  0.39650800740E+03  0.12658037119E+04  0.23374546653E+04  0.26892532420E+04  0.94398358284E+02 0.  0.
        254    2    1    2    0    0 -0.39650800740E+03 -0.12658037119E+04 -0.76529644070E+03  0.17766086447E+04  0.90065642564E+03 0.  0.
         23    2    4    4    0    0 -0.11894498227E+03 -0.84797437706E+01 -0.41189400071E+03  0.43844874311E+03  0.91437506825E+02 0.  0.
         23    2    4    4    0    0 -0.27756302513E+03 -0.12573239682E+04 -0.35340243999E+03  0.13381599015E+04  0.88734681321E+02 0.  0.
          3    1    3    3  502    0  0.10898016379E+03  0.24793266232E+03  0.43030902854E+03  0.50844187591E+03  0.00000000000E+00 0. -1.
         -3    1    3    3    0  502  0.28752784361E+03  0.10178710496E+04  0.19071456368E+04  0.21808113661E+04  0.00000000000E+00 0.  1.
         11    1    5    5    0    0 -0.88846824137E+02  0.36573641015E+02 -0.26144614988E+03  0.27854170004E+03  0.00000000000E+00 0. -1.
        -11    1    5    5    0    0 -0.30098158136E+02 -0.45053384785E+02 -0.15044785083E+03  0.15990704307E+03  0.00000000000E+00 0.  1.
          2    1    6    6  503    0 -0.15238186013E+03 -0.76000387762E+03 -0.17027974469E+03  0.79361282547E+03  0.00000000000E+00 0. -1.
         -2    1    6    6    0  503 -0.12518116500E+03 -0.49732009055E+03 -0.18312269530E+03  0.54454707608E+03  0.00000000000E+00 0.  1.
<mgrwt>
<rscale>  0 0.41799810E+04</rscale>
<asrwt>0</asrwt>
<pdfrwt beam="1">  1        1 0.46446308E+00 0.41799810E+04</pdfrwt>
<pdfrwt beam="2">  1       -1 0.22259259E+00 0.41799810E+04</pdfrwt>
<totfact> 0.47189792E-02</totfact>
</mgrwt>
</event>
<event>
12    2  0.3555611E-008  0.1862172E+04  0.7818608E-02  0.8673918E-01
          2   -1    0    0  501    0  0.00000000000E+00  0.00000000000E+00  0.13137965550E+04  0.13137965550E+04  0.00000000000E+00 0. -1.
         -2   -1    0    0    0  501 -0.00000000000E+00 -0.00000000000E+00 -0.65985924229E+03  0.65985924229E+03  0.00000000000E+00 0.  1.
         23    2    1    2    0    0 -0.34031285988E+03  0.59911058354E+03  0.43328426771E+03  0.81903074721E+03  0.91267597294E+02 0.  0.
        254    2    1    2    0    0  0.34031285988E+03 -0.59911058354E+03  0.22065304500E+03  0.11546250501E+04  0.89984715706E+03 0.  0.
         23    2    4    4    0    0  0.44181722493E+03 -0.70447809523E+03  0.38038286973E+03  0.91902806197E+03  0.91812876049E+02 0.  0.
         23    2    4    4    0    0 -0.10150436505E+03  0.10536751169E+03 -0.15972982473E+03  0.23559698809E+03  0.92665394004E+02 0.  0.
          4    1    3    3  502    0 -0.19731442093E+03  0.28143062130E+03  0.25286038376E+03  0.42670194397E+03  0.00000000000E+00 0. -1.
         -4    1    3    3    0  502 -0.14299843896E+03  0.31767996224E+03  0.18042388395E+03  0.39232880324E+03  0.00000000000E+00 0.  1.
         11    1    5    5    0    0  0.42353921853E+03 -0.68560649297E+03  0.38367314596E+03  0.89255073569E+03  0.00000000000E+00 0.  1.
        -11    1    5    5    0    0  0.18278006397E+02 -0.18871602258E+02 -0.32902762345E+01  0.26477326287E+02  0.00000000000E+00 0. -1.
          2    1    6    6  503    0 -0.52987633466E+02 -0.43928283862E+01 -0.50120400540E+02  0.73068740182E+02  0.00000000000E+00 0. -1.
         -2    1    6    6    0  503 -0.48516731579E+02  0.10976034008E+03 -0.10960942419E+03  0.16252824791E+03  0.00000000000E+00 0.  1.
<mgrwt>
<rscale>  0 0.18621716E+04</rscale>
<asrwt>0</asrwt>
<pdfrwt beam="1">  1        2 0.20212255E+00 0.18621716E+04</pdfrwt>
<pdfrwt beam="2">  1       -2 0.10151681E+00 0.18621716E+04</pdfrwt>
<totfact> 0.12150708E+01</totfact>
</mgrwt>
</event>
<event>
12    2  0.3555611E-008  0.5280233E+04  0.7818608E-02  0.7786675E-01
          2   -1    0    0  501    0  0.00000000000E+00  0.00000000000E+00  0.28818027512E+04  0.28818027512E+04  0.00000000000E+00 0. -1.
         -2   -1    0    0    0  501 -0.00000000000E+00 -0.00000000000E+00 -0.24186995439E+04  0.24186995439E+04  0.00000000000E+00 0.  1.
         23    2    1    2    0    0 -0.28477353276E+03  0.32196850709E+03 -0.23139226874E+04  0.23553659763E+04  0.93546750144E+02 0.  0.
        254    2    1    2    0    0  0.28477353276E+03 -0.32196850709E+03  0.27770258948E+04  0.29451363188E+04  0.88158688262E+03 0.  0.
         23    2    4    4    0    0  0.53958404886E+03 -0.20552649806E+03  0.23815208890E+04  0.24520667044E+04  0.87162441607E+02 0.  0.
         23    2    4    4    0    0 -0.25481051610E+03 -0.11644200904E+03  0.39550500578E+03  0.49306961435E+03  0.90588599805E+02 0.  0.
          1    1    3    3  502    0  0.71624852922E+01  0.11049613040E+02 -0.57256143529E+02  0.58750839277E+02  0.00000000000E+00 0. -1.
         -1    1    3    3    0  502 -0.29193601805E+03  0.31091889405E+03 -0.22566665439E+04  0.22966151371E+04  0.00000000000E+00 0.  1.
         11    1    5    5    0    0  0.35342615482E+03 -0.17648114224E+03  0.16589133540E+04  0.17053003127E+04  0.00000000000E+00 0. -1.
        -11    1    5    5    0    0  0.18615789404E+03 -0.29045355821E+02  0.72260753500E+03  0.74676639175E+03  0.00000000000E+00 0.  1.
          2    1    6    6  503    0 -0.21999175969E+03 -0.13018196107E+03  0.32759154406E+03  0.41552369013E+03  0.00000000000E+00 0. -1.
         -2    1    6    6    0  503 -0.34818756405E+02  0.13739952039E+02  0.67913461723E+02  0.77545924218E+02  0.00000000000E+00 0.  1.
<mgrwt>
<rscale>  0 0.52802329E+04</rscale>
<asrwt>0</asrwt>
<pdfrwt beam="1">  1        2 0.44335427E+00 0.52802329E+04</pdfrwt>
<pdfrwt beam="2">  1       -2 0.37210762E+00 0.52802329E+04</pdfrwt>
<totfact> 0.16521297E-02</totfact>
</mgrwt>
</event>
<event>
12    2  0.3555611E-008  0.1391514E+04  0.7818608E-02  0.8959984E-01
         -2   -1    0    0    0  501 -0.00000000000E+00  0.00000000000E+00  0.31006703570E+03  0.31006703570E+03  0.00000000000E+00 0.  1.
          2   -1    0    0  501    0  0.00000000000E+00 -0.00000000000E+00 -0.15612028281E+04  0.15612028281E+04  0.00000000000E+00 0. -1.
         23    2    1    2    0    0 -0.13894356680E+03 -0.36500274368E+03 -0.28066333103E+03  0.48994375770E+03  0.93491511257E+02 0.  0.
        254    2    1    2    0    0  0.13894356680E+03  0.36500274368E+03 -0.97047246140E+03  0.13813261061E+04  0.90206025047E+03 0.  0.
         23    2    4    4    0    0  0.50894767813E+03  0.20038307820E+03 -0.66264535242E+03  0.86488553583E+03  0.98726946228E+02 0.  0.
         23    2    4    4    0    0 -0.37000411134E+03  0.16461966548E+03 -0.30782710898E+03  0.51644057029E+03  0.89166456390E+02 0.  0.
          4    1    3    3  502    0 -0.76505681237E+02 -0.19948091299E+03 -0.20960576648E+03  0.29929973480E+03  0.00000000000E+00 0. -1.
         -4    1    3    3    0  502 -0.62437885558E+02 -0.16552183068E+03 -0.71057564542E+02  0.19064402289E+03  0.00000000000E+00 0.  1.
         11    1    5    5    0    0  0.39005592492E+03  0.19588096978E+03 -0.50772454872E+03  0.66954999534E+03  0.00000000000E+00 0. -1.
        -11    1    5    5    0    0  0.11889175321E+03  0.45021084178E+01 -0.15492080370E+03  0.19533554049E+03  0.00000000000E+00 0.  1.
          4    1    6    6  503    0 -0.26312425289E+03  0.15904996275E+03 -0.22146306912E+03  0.37891576121E+03  0.00000000000E+00 0. -1.
         -4    1    6    6    0  503 -0.10687985844E+03  0.55697027293E+01 -0.86364039865E+02  0.13752480908E+03  0.00000000000E+00 0.  1.
<mgrwt>
<rscale>  0 0.13915136E+04</rscale>
<asrwt>0</asrwt>
<pdfrwt beam="1">  1        2 0.24018505E+00 0.13915136E+04</pdfrwt>
<pdfrwt beam="2">  1       -2 0.47702621E-01 0.13915136E+04</pdfrwt>
<totfact> 0.47539245E+01</totfact>
</mgrwt>
</event>
<event>
12    2  0.3555611E-008  0.2323741E+04  0.7818608E-02  0.8468619E-01
          2   -1    0    0  501    0  0.00000000000E+00  0.00000000000E+00  0.11831091913E+04  0.11831091913E+04  0.00000000000E+00 0. -1.
         -2   -1    0    0    0  501 -0.00000000000E+00 -0.00000000000E+00 -0.11410126119E+04  0.11410126119E+04  0.00000000000E+00 0.  1.
         23    2    1    2    0    0 -0.54621505919E+03 -0.75500095272E+03  0.32227725122E+03  0.99080781849E+03  0.97263441338E+02 0.  0.
        254    2    1    2    0    0  0.54621505919E+03  0.75500095272E+03 -0.28018067181E+03  0.13333139846E+04  0.91150844386E+03 0.  0.
         23    2    4    4    0    0 -0.28478614360E+02  0.57997775716E+03  0.12701057655E+03  0.60179249542E+03  0.94006865235E+02 0.  0.
         23    2    4    4    0    0  0.57469367355E+03  0.17502319556E+03 -0.40719124836E+03  0.73152148920E+03  0.91722619970E+02 0.  0.
          1    1    3    3  502    0 -0.52702207930E+03 -0.73178812780E+03  0.32899141804E+03  0.95994869092E+03  0.00000000000E+00 0. -1.
         -1    1    3    3    0  502 -0.19192979896E+02 -0.23212824925E+02 -0.67141668188E+01  0.30859127569E+02  0.00000000000E+00 0.  1.
         11    1    5    5    0    0  0.12568638986E+02  0.31376254296E+03  0.10677951310E+03  0.33167268273E+03  0.00000000000E+00 0.  1.
        -11    1    5    5    0    0 -0.41047253345E+02  0.26621521421E+03  0.20231063442E+02  0.27011981270E+03  0.00000000000E+00 0. -1.
          2    1    6    6  503    0  0.10943503216E+02  0.11333710540E+02  0.20947334219E+01  0.15893431516E+02  0.00000000000E+00 0. -1.
         -2    1    6    6    0  503  0.56375017034E+03  0.16368948502E+03 -0.40928598178E+03  0.71562805768E+03  0.00000000000E+00 0.  1.
<mgrwt>
<rscale>  0 0.23237405E+04</rscale>
<asrwt>0</asrwt>
<pdfrwt beam="1">  1        2 0.18201680E+00 0.23237405E+04</pdfrwt>
<pdfrwt beam="2">  1       -2 0.17554040E+00 0.23237405E+04</pdfrwt>
<totfact> 0.34169244E+00</totfact>
</mgrwt>
</event>
<event>
12    2  0.3555611E-008  0.2329592E+04  0.7818608E-02  0.8466344E-01
         -2   -1    0    0    0  501 -0.00000000000E+00  0.00000000000E+00  0.60855895224E+03  0.60855895224E+03  0.00000000000E+00 0.  1.
          2   -1    0    0  501    0  0.00000000000E+00 -0.00000000000E+00 -0.22294474204E+04  0.22294474204E+04  0.00000000000E+00 0. -1.
         23    2    1    2    0    0  0.31276534171E+03 -0.80770268414E+03 -0.12339537266E+04  0.15104959852E+04  0.93544304959E+02 0.  0.
        254    2    1    2    0    0 -0.31276534171E+03  0.80770268414E+03 -0.38693474154E+03  0.13275103874E+04  0.92863316199E+03 0.  0.
         23    2    4    4    0    0 -0.31646712811E+03  0.40591011228E+03 -0.65350204763E+03  0.83670091982E+03  0.89939093525E+02 0.  0.
         23    2    4    4    0    0  0.37017864040E+01  0.40179257186E+03  0.26656730609E+03  0.49080946760E+03  0.91568721661E+02 0.  0.
          3    1    3    3  502    0  0.24053101399E+03 -0.63089620874E+03 -0.89078558905E+03  0.11177585430E+04  0.00000000000E+00 0. -1.
         -3    1    3    3    0  502  0.72234327717E+02 -0.17680647539E+03 -0.34316813753E+03  0.39273744214E+03  0.00000000000E+00 0.  1.
         11    1    5    5    0    0 -0.13136986772E+03  0.10539944712E+03 -0.18587660699E+03  0.25083300944E+03  0.00000000000E+00 0.  1.
        -11    1    5    5    0    0 -0.18509726039E+03  0.30051066516E+03 -0.46762544064E+03  0.58586791038E+03  0.00000000000E+00 0. -1.
          2    1    6    6  503    0 -0.31981950999E+02  0.58137314933E+02  0.49407084636E+02  0.82727580585E+02  0.00000000000E+00 0. -1.
         -2    1    6    6    0  503  0.35683737403E+02  0.34365525692E+03  0.21716022145E+03  0.40808188701E+03  0.00000000000E+00 0.  1.
<mgrwt>
<rscale>  0 0.23295924E+04</rscale>
<asrwt>0</asrwt>
<pdfrwt beam="1">  1        2 0.34299191E+00 0.23295924E+04</pdfrwt>
<pdfrwt beam="2">  1       -2 0.93624455E-01 0.23295924E+04</pdfrwt>
<totfact> 0.43341089E+00</totfact>
</mgrwt>
</event>
<event>
12    2  0.3555611E-008  0.1871146E+04  0.7818608E-02  0.8669353E-01
         -1   -1    0    0    0  501 -0.00000000000E+00  0.00000000000E+00  0.82733112827E+03  0.82733112827E+03  0.00000000000E+00 0.  1.
          1   -1    0    0  501    0  0.00000000000E+00 -0.00000000000E+00 -0.10579769034E+04  0.10579769034E+04  0.00000000000E+00 0. -1.
         23    2    1    2    0    0  0.35263395759E+03  0.35963004155E+03  0.41245958984E+03  0.65715236885E+03  0.89676350335E+02 0.  0.
        254    2    1    2    0    0 -0.35263395759E+03 -0.35963004155E+03 -0.64310536496E+03  0.12281556628E+04  0.91711359538E+03 0.  0.
         23    2    4    4    0    0  0.29867168983E+03 -0.19009370535E+03 -0.26783719903E+03  0.45238022175E+03  0.87009796730E+02 0.  0.
         23    2    4    4    0    0 -0.65130564742E+03 -0.16953633620E+03 -0.37526816592E+03  0.77577544106E+03  0.89775959730E+02 0.  0.
          2    1    3    3  502    0  0.12664963058E+02  0.36510782032E+01  0.33299490484E+02  0.35813233975E+02  0.00000000000E+00 0. -1.
         -2    1    3    3    0  502  0.33996899453E+03  0.35597896335E+03  0.37916009935E+03  0.62133913488E+03  0.00000000000E+00 0.  1.
         11    1    5    5    0    0  0.22790006806E+03 -0.13100816315E+03 -0.24031959109E+03  0.35616721592E+03  0.00000000000E+00 0.  1.
        -11    1    5    5    0    0  0.70771621766E+02 -0.59085542196E+02 -0.27517607946E+02  0.96213005831E+02  0.00000000000E+00 0. -1.
          2    1    6    6  503    0 -0.39085445426E+02  0.58804382918E+01 -0.70986092495E+01  0.40157712234E+02  0.00000000000E+00 0. -1.
         -2    1    6    6    0  503 -0.61222020199E+03 -0.17541677450E+03 -0.36816955667E+03  0.73561772883E+03  0.00000000000E+00 0.  1.
<mgrwt>
<rscale>  0 0.18711464E+04</rscale>
<asrwt>0</asrwt>
<pdfrwt beam="1">  1        1 0.16276568E+00 0.18711464E+04</pdfrwt>
<pdfrwt beam="2">  1       -1 0.12728171E+00 0.18711464E+04</pdfrwt>
<totfact> 0.68465729E+00</totfact>
</mgrwt>
</event>
<event>
12    2  0.3555611E-008  0.2251771E+04  0.7818608E-02  0.8497184E-01
          1   -1    0    0  501    0  0.00000000000E+00  0.00000000000E+00  0.15977552703E+04  0.15977552703E+04  0.00000000000E+00 0. -1.
         -1   -1    0    0    0  501 -0.00000000000E+00 -0.00000000000E+00 -0.79337414246E+03  0.79337414246E+03  0.00000000000E+00 0.  1.
         23    2    1    2    0    0 -0.51079063715E+03 -0.40095027429E+03  0.10583416726E+04  0.12450424830E+04  0.91517708689E+02 0.  0.
        254    2    1    2    0    0  0.51079063715E+03  0.40095027429E+03 -0.25396054477E+03  0.11460869298E+04  0.90958842058E+03 0.  0.
         23    2    4    4    0    0 -0.11799945059E+03 -0.12905006233E+03 -0.25074800846E+03  0.31870863944E+03  0.90126822752E+02 0.  0.
         23    2    4    4    0    0  0.62879008774E+03  0.53000033662E+03 -0.32125363061E+01  0.82737829033E+03  0.90924054375E+02 0.  0.
          2    1    3    3  502    0 -0.46575548644E+03 -0.39337902150E+03  0.99582601789E+03  0.11676235205E+04  0.00000000000E+00 0. -1.
         -2    1    3    3    0  502 -0.45035150707E+02 -0.75712527900E+01  0.62515654718E+02  0.77418962489E+02  0.00000000000E+00 0.  1.
         11    1    5    5    0    0 -0.62201851000E+02 -0.26948546023E+02 -0.15074396230E+03  0.16528471366E+03  0.00000000000E+00 0. -1.
        -11    1    5    5    0    0 -0.55797599590E+02 -0.10210151631E+03 -0.10000404616E+03  0.15342392578E+03  0.00000000000E+00 0.  1.
          1    1    6    6  503    0  0.59349486217E+02  0.25380495018E+02  0.15137056955E+02  0.66299785330E+02  0.00000000000E+00 0. -1.
         -1    1    6    6    0  503  0.56944060152E+03  0.50461984160E+03 -0.18349593261E+02  0.76107850500E+03  0.00000000000E+00 0.  1.
<mgrwt>
<rscale>  0 0.22517706E+04</rscale>
<asrwt>0</asrwt>
<pdfrwt beam="1">  1        1 0.24580850E+00 0.22517706E+04</pdfrwt>
<pdfrwt beam="2">  1       -1 0.12205756E+00 0.22517706E+04</pdfrwt>
<totfact> 0.30175791E+00</totfact>
</mgrwt>
</event>
<event>
12    2  0.3555611E-008  0.2077424E+04  0.7818608E-02  0.8571254E-01
         -1   -1    0    0    0  501 -0.00000000000E+00  0.00000000000E+00  0.63933814443E+03  0.63933814443E+03  0.00000000000E+00 0.  1.
          1   -1    0    0  501    0  0.00000000000E+00 -0.00000000000E+00 -0.16875618952E+04  0.16875618952E+04  0.00000000000E+00 0. -1.
         23    2    1    2    0    0  0.58805304630E+03 -0.59969482489E+03 -0.48266701312E+03  0.97301072933E+03  0.91335456305E+02 0.  0.
        254    2    1    2    0    0 -0.58805304630E+03  0.59969482489E+03 -0.56555673768E+03  0.13538893103E+04  0.89873331574E+03 0.  0.
         23    2    4    4    0    0 -0.31309417311E+03  0.73072813389E+03 -0.12323383487E+03  0.80959030458E+03  0.90875278910E+02 0.  0.
         23    2    4    4    0    0 -0.27495887319E+03 -0.13103330901E+03 -0.44232290281E+03  0.54429900575E+03  0.88542347424E+02 0.  0.
          1    1    3    3  502    0  0.33118249034E+02 -0.19570937462E+02 -0.48579342850E+01  0.38774212278E+02  0.00000000000E+00 0. -1.
         -1    1    3    3    0  502  0.55493479727E+03 -0.58012388743E+03 -0.47780907883E+03  0.93423651705E+03  0.00000000000E+00 0.  1.
         11    1    5    5    0    0 -0.11470490758E+03  0.37887056057E+03 -0.48698940935E+02  0.39883794245E+03  0.00000000000E+00 0.  1.
        -11    1    5    5    0    0 -0.19838926553E+03  0.35185757333E+03 -0.74534893932E+02  0.41075236214E+03  0.00000000000E+00 0. -1.
          2    1    6    6  503    0 -0.11662316821E+03 -0.15720514045E+02 -0.12742073005E+03  0.17344780302E+03  0.00000000000E+00 0.  1.
         -2    1    6    6    0  503 -0.15833570498E+03 -0.11531279496E+03 -0.31490217276E+03  0.37085120273E+03  0.00000000000E+00 0. -1.
<mgrwt>
<rscale>  0 0.20774241E+04</rscale>
<asrwt>0</asrwt>
<pdfrwt beam="1">  1        1 0.25962491E+00 0.20774241E+04</pdfrwt>
<pdfrwt beam="2">  1       -1 0.98359715E-01 0.20774241E+04</pdfrwt>
<totfact> 0.44323675E+00</totfact>
</mgrwt>
</event>
<event>
12    2  0.3555611E-008  0.1271957E+04  0.7818608E-02  0.9052104E-01
         -1   -1    0    0    0  501 -0.00000000000E+00  0.00000000000E+00  0.31757365635E+03  0.31757365635E+03  0.00000000000E+00 0.  1.
          1   -1    0    0  501    0  0.00000000000E+00 -0.00000000000E+00 -0.12736209744E+04  0.12736209744E+04  0.00000000000E+00 0. -1.
         23    2    1    2    0    0  0.73484685127E+02 -0.12936371796E+03 -0.57836202864E+03  0.60404883801E+03  0.90760079611E+02 0.  0.
        254    2    1    2    0    0 -0.73484685127E+02  0.12936371796E+03 -0.37768528942E+03  0.98714579276E+03  0.89981979743E+03 0.  0.
         23    2    4    4    0    0 -0.12555138528E+03  0.11436909443E+02  0.27598828654E+03  0.31562981465E+03  0.86940740416E+02 0.  0.
         23    2    4    4    0    0  0.52066700154E+02  0.11792680851E+03 -0.65367357596E+03  0.67151597811E+03  0.83826556205E+02 0.  0.
          2    1    3    3  502    0  0.40068729699E+02 -0.13260033269E+03 -0.42310710792E+03  0.44520554365E+03  0.00000000000E+00 0. -1.
         -2    1    3    3    0  502  0.33415955428E+02  0.32366147325E+01 -0.15525492073E+03  0.15884329436E+03  0.00000000000E+00 0.  1.
         11    1    5    5    0    0 -0.92125006692E+02  0.27174659019E+02  0.25642637301E+03  0.27382469525E+03  0.00000000000E+00 0.  1.
        -11    1    5    5    0    0 -0.33426378588E+02 -0.15737749575E+02  0.19561913526E+02  0.41805119400E+02  0.00000000000E+00 0. -1.
          2    1    6    6  503    0 -0.15184710748E+02  0.29379852738E+02 -0.27116311190E+03  0.27317244452E+03  0.00000000000E+00 0. -1.
         -2    1    6    6    0  503  0.67251410902E+02  0.88546955775E+02 -0.38251046406E+03  0.39834353360E+03  0.00000000000E+00 0.  1.
<mgrwt>
<rscale>  0 0.12719567E+04</rscale>
<asrwt>0</asrwt>
<pdfrwt beam="1">  1        1 0.19594169E+00 0.12719567E+04</pdfrwt>
<pdfrwt beam="2">  1       -1 0.48857486E-01 0.12719567E+04</pdfrwt>
<totfact> 0.39009527E+01</totfact>
</mgrwt>
</event>
<event>
12    2  0.3555611E-008  0.1486274E+04  0.7818608E-02  0.8893632E-01
          1   -1    0    0  501    0  0.00000000000E+00  0.00000000000E+00  0.55215599091E+03  0.55215599091E+03  0.00000000000E+00 0. -1.
         -1   -1    0    0    0  501 -0.00000000000E+00 -0.00000000000E+00 -0.10001755566E+04  0.10001755566E+04  0.00000000000E+00 0.  1.
         23    2    1    2    0    0  0.86705628051E+02 -0.45348204133E+01  0.33488174920E+03  0.35786749122E+03  0.91569234983E+02 0.  0.
        254    2    1    2    0    0 -0.86705628051E+02  0.45348204133E+01 -0.78290131494E+03  0.11944640563E+04  0.89792621211E+03 0.  0.
         23    2    4    4    0    0  0.10936689294E+03 -0.44095859110E+02  0.16393014680E+03  0.22200178013E+03  0.92228711834E+02 0.  0.
         23    2    4    4    0    0 -0.19607252099E+03  0.48630679523E+02 -0.94683146174E+03  0.97246227620E+03  0.91562466116E+02 0.  0.
          1    1    3    3  502    0  0.34376283949E+02 -0.10479838841E+02  0.27813509619E+03  0.28044729925E+03  0.00000000000E+00 0. -1.
         -1    1    3    3    0  502  0.52329344103E+02  0.59450184274E+01  0.56746653007E+02  0.77420191977E+02  0.00000000000E+00 0.  1.
         11    1    5    5    0    0  0.45161358367E+02 -0.65498151468E+02  0.68352515828E+02  0.10488861976E+03  0.00000000000E+00 0.  1.
        -11    1    5    5    0    0  0.64205534575E+02  0.21402292359E+02  0.95577630977E+02  0.11711316037E+03  0.00000000000E+00 0. -1.
          1    1    6    6  503    0  0.32805381507E+01  0.20095219287E+02 -0.93007606994E+02  0.95210265873E+02  0.00000000000E+00 0. -1.
         -1    1    6    6    0  503 -0.19935305914E+03  0.28535460236E+02 -0.85382385475E+03  0.87725201032E+03  0.00000000000E+00 0.  1.
<mgrwt>
<rscale>  0 0.14862744E+04</rscale>
<asrwt>0</asrwt>
<pdfrwt beam="1">  1        1 0.84947076E-01 0.14862744E+04</pdfrwt>
<pdfrwt beam="2">  1       -1 0.15387316E+00 0.14862744E+04</pdfrwt>
<totfact> 0.12162916E+01</totfact>
</mgrwt>
</event>
<event>
12    2  0.3555611E-008  0.1492329E+04  0.7818608E-02  0.8889570E-01
         -2   -1    0    0    0  501 -0.00000000000E+00  0.00000000000E+00  0.33661999681E+03  0.33661999681E+03  0.00000000000E+00 0.  1.
          2   -1    0    0  501    0  0.00000000000E+00 -0.00000000000E+00 -0.16539766401E+04  0.16539766401E+04  0.00000000000E+00 0. -1.
         23    2    1    2    0    0 -0.31804758984E+03  0.14477728768E+03 -0.82912325484E+03  0.90472817632E+03  0.94725756188E+02 0.  0.
        254    2    1    2    0    0  0.31804758984E+03 -0.14477728768E+03 -0.48823338847E+03  0.10858684606E+04  0.90477828207E+03 0.  0.
         23    2    4    4    0    0  0.51859889569E+03 -0.23512062208E+02  0.10841800650E+02  0.52728706487E+03  0.91741334520E+02 0.  0.
         23    2    4    4    0    0 -0.20055130584E+03 -0.12126522547E+03 -0.49907518912E+03  0.55858139574E+03  0.89504469680E+02 0.  0.
          3    1    3    3  502    0 -0.29969096725E+03  0.13974984667E+03 -0.69957504317E+03  0.77378933601E+03  0.00000000000E+00 0. -1.
         -3    1    3    3    0  502 -0.18356622596E+02  0.50274410062E+01 -0.12954821167E+03  0.13093884032E+03  0.00000000000E+00 0.  1.
         11    1    5    5    0    0  0.25458506959E+03 -0.29425527038E+02 -0.36910560035E+02  0.25892433015E+03  0.00000000000E+00 0.  1.
        -11    1    5    5    0    0  0.26401382609E+03  0.59134648304E+01  0.47752360685E+02  0.26836273472E+03  0.00000000000E+00 0. -1.
          4    1    6    6  503    0 -0.58662698570E+01 -0.35955107578E+02 -0.10000944962E+03  0.10643811768E+03  0.00000000000E+00 0. -1.
         -4    1    6    6    0  503 -0.19468503598E+03 -0.85310117889E+02 -0.39906573950E+03  0.45214327806E+03  0.00000000000E+00 0.  1.
<mgrwt>
<rscale>  0 0.14923292E+04</rscale>
<asrwt>0</asrwt>
<pdfrwt beam="1">  1        2 0.25445794E+00 0.14923292E+04</pdfrwt>
<pdfrwt beam="2">  1       -2 0.51787692E-01 0.14923292E+04</pdfrwt>
<totfact> 0.35410356E+01</totfact>
</mgrwt>
</event>
<event>
12    2  0.3555611E-008  0.1177891E+04  0.7818608E-02  0.9132432E-01
         -4   -1    0    0    0  501 -0.00000000000E+00  0.00000000000E+00  0.15428146494E+04  0.15428146494E+04  0.00000000000E+00 0.  1.
          4   -1    0    0  501    0  0.00000000000E+00 -0.00000000000E+00 -0.22482072965E+03  0.22482072965E+03  0.00000000000E+00 0. -1.
         23    2    1    2    0    0 -0.16041450976E+02 -0.16456031060E+03  0.37712990978E+03  0.42142909249E+03  0.89655380084E+02 0.  0.
        254    2    1    2    0    0  0.16041450976E+02  0.16456031060E+03  0.94086400995E+03  0.13462062865E+04  0.94852983964E+03 0.  0.
         23    2    4    4    0    0  0.29299720057E+03 -0.19909662305E+03  0.76509242933E+03  0.84814594733E+03  0.92186212067E+02 0.  0.
         23    2    4    4    0    0 -0.27695574959E+03  0.36365693365E+03  0.17577158062E+03  0.49806033920E+03  0.90650980721E+02 0.  0.
          1    1    3    3  502    0 -0.26039140870E+02 -0.51160919878E+02  0.53923569835E+02  0.78760573663E+02  0.00000000000E+00 0. -1.
         -1    1    3    3    0  502  0.99976898934E+01 -0.11339939072E+03  0.32320633994E+03  0.34266851883E+03  0.00000000000E+00 0.  1.
         11    1    5    5    0    0  0.13402313680E+03 -0.62894771902E+02  0.41036326488E+03  0.43625217787E+03  0.00000000000E+00 0.  1.
        -11    1    5    5    0    0  0.15897406377E+03 -0.13620185115E+03  0.35472916445E+03  0.41189376946E+03  0.00000000000E+00 0. -1.
          2    1    6    6  503    0 -0.16846316965E+02  0.63705140420E+02  0.46012641610E+02  0.80369810869E+02  0.00000000000E+00 0. -1.
         -2    1    6    6    0  503 -0.26010943263E+03  0.29995179323E+03  0.12975893901E+03  0.41769052833E+03  0.00000000000E+00 0.  1.
<mgrwt>
<rscale>  0 0.11778909E+04</rscale>
<asrwt>0</asrwt>
<pdfrwt beam="1">  1        4 0.34587805E-01 0.11778909E+04</pdfrwt>
<pdfrwt beam="2">  1       -4 0.23735609E+00 0.11778909E+04</pdfrwt>
<totfact> 0.12229836E+00</totfact>
</mgrwt>
</event>
<event>
12    2  0.3555611E-008  0.1828010E+04  0.7818608E-02  0.8691544E-01
         -2   -1    0    0    0  501 -0.00000000000E+00  0.00000000000E+00  0.18351833860E+03  0.18351833860E+03  0.00000000000E+00 0.  1.
          2   -1    0    0  501    0  0.00000000000E+00 -0.00000000000E+00 -0.45521598899E+04  0.45521598899E+04  0.00000000000E+00 0. -1.
         23    2    1    2    0    0 -0.14422246435E+03 -0.17870962992E+03  0.18134990702E+02  0.25015869966E+03  0.97535870750E+02 0.  0.
        254    2    1    2    0    0  0.14422246435E+03  0.17870962992E+03 -0.43867765420E+04  0.44855195289E+04  0.90738071558E+03 0.  0.
         23    2    4    4    0    0 -0.29812353976E+03 -0.98417930518E+02 -0.86580466147E+03  0.92491861145E+03  0.85399016177E+02 0.  0.
         23    2    4    4    0    0  0.44234600410E+03  0.27712756043E+03 -0.35209718806E+04  0.35606009174E+04  0.90367235761E+02 0.  0.
          4    1    3    3  502    0  0.11467864406E+02 -0.97564569786E+01 -0.10891951179E+02  0.18583190450E+02  0.00000000000E+00 0. -1.
         -4    1    3    3    0  502 -0.15569032875E+03 -0.16895317294E+03  0.29026941881E+02  0.23157550921E+03  0.00000000000E+00 0.  1.
         11    1    5    5    0    0 -0.88600107859E+02 -0.67863967290E+02 -0.34935768723E+03  0.36675099290E+03  0.00000000000E+00 0.  1.
        -11    1    5    5    0    0 -0.20952343190E+03 -0.30553963227E+02 -0.51644697424E+03  0.55816761854E+03  0.00000000000E+00 0. -1.
          4    1    6    6  503    0  0.43941120946E+03  0.26233224729E+03 -0.34667699417E+04  0.35043393454E+04  0.00000000000E+00 0. -1.
         -4    1    6    6    0  503  0.29347946461E+01  0.14795313141E+02 -0.54201938851E+02  0.56261572017E+02  0.00000000000E+00 0.  1.
<mgrwt>
<rscale>  0 0.18280096E+04</rscale>
<asrwt>0</asrwt>
<pdfrwt beam="1">  1        2 0.70033222E+00 0.18280096E+04</pdfrwt>
<pdfrwt beam="2">  1       -2 0.28233593E-01 0.18280096E+04</pdfrwt>
<totfact> 0.12085285E+00</totfact>
</mgrwt>
</event>
<event>
12    2  0.3555611E-008  0.1350461E+04  0.7818608E-02  0.8990480E-01
         -1   -1    0    0    0  501 -0.00000000000E+00  0.00000000000E+00  0.19493329020E+03  0.19493329020E+03  0.00000000000E+00 0.  1.
          1   -1    0    0  501    0  0.00000000000E+00 -0.00000000000E+00 -0.23389329598E+04  0.23389329598E+04  0.00000000000E+00 0. -1.
         23    2    1    2    0    0  0.83421715369E+02 -0.22166603314E+03 -0.10208198071E+04  0.10519498789E+04  0.91817515960E+02 0.  0.
        254    2    1    2    0    0 -0.83421715369E+02  0.22166603314E+03 -0.11231798624E+04  0.14819163711E+04  0.93725562929E+03 0.  0.
         23    2    4    4    0    0  0.61723679562E+02  0.95405425610E+01  0.14387519496E+03  0.18593344179E+03  0.99851582259E+02 0.  0.
         23    2    4    4    0    0 -0.14514539493E+03  0.21212549058E+03 -0.12670550574E+04  0.12959829293E+04  0.89882284697E+02 0.  0.
          1    1    3    3  502    0  0.39192961637E+02 -0.20171230142E+03 -0.82989101593E+03  0.85495206831E+03  0.00000000000E+00 0. -1.
         -1    1    3    3    0  502  0.44228753732E+02 -0.19953731712E+02 -0.19092879122E+03  0.19699781060E+03  0.00000000000E+00 0.  1.
         11    1    5    5    0    0 -0.20145590778E+02  0.26526993651E+02  0.31333347024E+02  0.45730786737E+02  0.00000000000E+00 0.  1.
        -11    1    5    5    0    0  0.81869270339E+02 -0.16986451090E+02  0.11254184794E+03  0.14020265505E+03  0.00000000000E+00 0. -1.
          2    1    6    6  503    0 -0.12043245076E+03  0.11137209243E+03 -0.65686734600E+03  0.67703945853E+03  0.00000000000E+00 0. -1.
         -2    1    6    6    0  503 -0.24712944167E+02  0.10075339815E+03 -0.61018771142E+03  0.61894347077E+03  0.00000000000E+00 0.  1.
<mgrwt>
<rscale>  0 0.13504605E+04</rscale>
<asrwt>0</asrwt>
<pdfrwt beam="1">  1        1 0.35983583E+00 0.13504605E+04</pdfrwt>
<pdfrwt beam="2">  1       -1 0.29989737E-01 0.13504605E+04</pdfrwt>
<totfact> 0.17540389E+01</totfact>
</mgrwt>
</event>
<event>
12    2  0.3555611E-008  0.2867236E+04  0.7818608E-02  0.8282693E-01
          1   -1    0    0  501    0  0.00000000000E+00  0.00000000000E+00  0.22152761429E+04  0.22152761429E+04  0.00000000000E+00 0. -1.
         -1   -1    0    0    0  501 -0.00000000000E+00 -0.00000000000E+00 -0.92776704188E+03  0.92776704188E+03  0.00000000000E+00 0.  1.
         23    2    1    2    0    0  0.96090183966E+03 -0.82070529963E+03  0.29400239949E+03  0.13006499893E+04  0.91451897569E+02 0.  0.
        254    2    1    2    0    0 -0.96090183966E+03  0.82070529963E+03  0.99350670152E+03  0.18423931954E+04  0.90025973268E+03 0.  0.
         23    2    4    4    0    0  0.13875299788E+03  0.87648702777E+02  0.28409599673E+03  0.33979361071E+03  0.88399507926E+02 0.  0.
         23    2    4    4    0    0 -0.10996548375E+04  0.73305659685E+03  0.70941070479E+03  0.15025995847E+04  0.89046212668E+02 0.  0.
          4    1    3    3  502    0  0.11149846540E+03 -0.11136782001E+03  0.65542676648E+02  0.17067671659E+03  0.00000000000E+00 0. -1.
         -4    1    3    3    0  502  0.84940337426E+03 -0.70933747961E+03  0.22845972284E+03  0.11299732728E+04  0.00000000000E+00 0.  1.
         11    1    5    5    0    0  0.14923056062E+03  0.84566940270E+02  0.27951987471E+03  0.32795226477E+03  0.00000000000E+00 0. -1.
        -11    1    5    5    0    0 -0.10477562732E+02  0.30817625071E+01  0.45761220163E+01  0.11841345940E+02  0.00000000000E+00 0.  1.
          1    1    6    6  503    0 -0.10548030401E+04  0.72105679620E+03  0.69157706836E+03  0.14528631037E+04  0.00000000000E+00 0. -1.
         -1    1    6    6    0  503 -0.44851797495E+02  0.11999800650E+02  0.17833636429E+02  0.49736481002E+02  0.00000000000E+00 0.  1.
<mgrwt>
<rscale>  0 0.28672357E+04</rscale>
<asrwt>0</asrwt>
<pdfrwt beam="1">  1        1 0.34081171E+00 0.28672357E+04</pdfrwt>
<pdfrwt beam="2">  1       -1 0.14273339E+00 0.28672357E+04</pdfrwt>
<totfact> 0.72915710E-01</totfact>
</mgrwt>
</event>
<event>
12    2  0.3555611E-008  0.1201826E+04  0.7818608E-02  0.9111259E-01
         -2   -1    0    0    0  501 -0.00000000000E+00  0.00000000000E+00  0.28656991000E+03  0.28656991000E+03  0.00000000000E+00 0.  1.
          2   -1    0    0  501    0  0.00000000000E+00 -0.00000000000E+00 -0.12600650397E+04  0.12600650397E+04  0.00000000000E+00 0. -1.
         23    2    1    2    0    0  0.18400562709E+03 -0.16447505205E+03 -0.10172967103E+03  0.28150413816E+03  0.89361850297E+02 0.  0.
        254    2    1    2    0    0 -0.18400562709E+03  0.16447505205E+03 -0.87176545868E+03  0.12651308115E+04  0.88298971785E+03 0.  0.
         23    2    4    4    0    0 -0.27048247345E+03 -0.22921893379E+02 -0.97733426606E+03  0.10185491483E+04  0.92595455304E+02 0.  0.
         23    2    4    4    0    0  0.86476846360E+02  0.18739694543E+03  0.10556880737E+03  0.24658166320E+03  0.84035013094E+02 0.  0.
          1    1    3    3  502    0  0.48440513757E+02 -0.42714545299E+02  0.13404373021E+02  0.65959782968E+02  0.00000000000E+00 0. -1.
         -1    1    3    3    0  502  0.13556511333E+03 -0.12176050675E+03 -0.11513404405E+03  0.21554435520E+03  0.00000000000E+00 0.  1.
         11    1    5    5    0    0  0.20499382606E+01 -0.10555494346E+02 -0.78262571253E+02  0.78997789633E+02  0.00000000000E+00 0. -1.
        -11    1    5    5    0    0 -0.27253241171E+03 -0.12366399033E+02 -0.89907169481E+03  0.93955135871E+03  0.00000000000E+00 0.  1.
          3    1    6    6  503    0  0.76587465382E+02  0.79217687097E+02  0.76467955230E+02  0.13412095280E+03  0.00000000000E+00 0. -1.
         -3    1    6    6    0  503  0.98893809776E+01  0.10817925833E+03  0.29100852144E+02  0.11246071040E+03  0.00000000000E+00 0.  1.
<mgrwt>
<rscale>  0 0.12018265E+04</rscale>
<asrwt>0</asrwt>
<pdfrwt beam="1">  1        2 0.19385616E+00 0.12018265E+04</pdfrwt>
<pdfrwt beam="2">  1       -2 0.44087678E-01 0.12018265E+04</pdfrwt>
<totfact> 0.83944239E+01</totfact>
</mgrwt>
</event>
<event>
12    2  0.3555611E-008  0.2480198E+04  0.7818608E-02  0.8410074E-01
         -1   -1    0    0    0  501 -0.00000000000E+00  0.00000000000E+00  0.88300480753E+03  0.88300480753E+03  0.00000000000E+00 0.  1.
          1   -1    0    0  501    0  0.00000000000E+00 -0.00000000000E+00 -0.17416048478E+04  0.17416048478E+04  0.00000000000E+00 0. -1.
         23    2    1    2    0    0  0.29390848817E+03 -0.36658966141E+03  0.64136560553E+03  0.79981741842E+03  0.87108458732E+02 0.  0.
        254    2    1    2    0    0 -0.29390848817E+03  0.36658966141E+03 -0.14999656458E+04  0.18247922369E+04  0.92693019695E+03 0.  0.
         23    2    4    4    0    0 -0.49317043957E+03  0.37053518327E+03 -0.14786376600E+04  0.16045667265E+04  0.88043430503E+02 0.  0.
         23    2    4    4    0    0  0.19926195140E+03 -0.39455218636E+01 -0.21327985741E+02  0.22022551037E+03  0.91233217774E+02 0.  0.
          2    1    3    3  502    0  0.13563222236E+03 -0.12875126859E+03  0.19778715372E+03  0.27219982932E+03  0.00000000000E+00 0. -1.
         -2    1    3    3    0  502  0.15827626581E+03 -0.23783839281E+03  0.44357845181E+03  0.52761758910E+03  0.00000000000E+00 0.  1.
         11    1    5    5    0    0 -0.13206419432E+03  0.14396455409E+03 -0.41521717099E+03  0.45888129548E+03  0.00000000000E+00 0.  1.
        -11    1    5    5    0    0 -0.36110624526E+03  0.22657062919E+03 -0.10634204890E+04  0.11456854310E+04  0.00000000000E+00 0. -1.
          2    1    6    6  503    0  0.35291160706E+02 -0.11237252407E+02 -0.40611287417E+02  0.54963792912E+02  0.00000000000E+00 0.  1.
         -2    1    6    6    0  503  0.16397079069E+03  0.72917305438E+01  0.19283301675E+02  0.16526171746E+03  0.00000000000E+00 0. -1.
<mgrwt>
<rscale>  0 0.24801979E+04</rscale>
<asrwt>0</asrwt>
<pdfrwt beam="1">  1        1 0.26793920E+00 0.24801979E+04</pdfrwt>
<pdfrwt beam="2">  1       -1 0.13584690E+00 0.24801979E+04</pdfrwt>
<totfact> 0.18009010E+00</totfact>
</mgrwt>
</event>
<event>
12    2  0.3555611E-008  0.1107060E+04  0.7818608E-02  0.9198338E-01
          2   -1    0    0  501    0  0.00000000000E+00  0.00000000000E+00  0.36501827075E+04  0.36501827075E+04  0.00000000000E+00 0.  1.
         -2   -1    0    0    0  501 -0.00000000000E+00 -0.00000000000E+00 -0.83939699420E+02  0.83939699420E+02  0.00000000000E+00 0. -1.
         23    2    1    2    0    0  0.79653775040E+02 -0.16478202054E+03  0.78197425872E+03  0.80827495847E+03  0.91251460351E+02 0.  0.
        254    2    1    2    0    0 -0.79653775040E+02  0.16478202054E+03  0.27842687494E+04  0.29258474485E+04  0.88030278018E+03 0.  0.
         23    2    4    4    0    0  0.12781636993E+03 -0.23936880998E+03  0.36882698763E+03  0.46642443316E+03  0.88791629307E+02 0.  0.
         23    2    4    4    0    0 -0.20747014497E+03  0.40415083052E+03  0.24154417618E+04  0.24594230153E+04  0.89559527397E+02 0.  0.
          1    1    3    3  502    0  0.23448142272E+02 -0.11910815500E+03  0.60493117506E+03  0.61699132451E+03  0.00000000000E+00 0. -1.
         -1    1    3    3    0  502  0.56205632768E+02 -0.45673865531E+02  0.17704308366E+03  0.19128363396E+03  0.00000000000E+00 0.  1.
         11    1    5    5    0    0  0.49485422626E+02 -0.31631879784E+02  0.11552910538E+03  0.12960076027E+03  0.00000000000E+00 0. -1.
        -11    1    5    5    0    0  0.78330947304E+02 -0.20773693020E+03  0.25329788224E+03  0.33682367290E+03  0.00000000000E+00 0.  1.
          4    1    6    6  503    0 -0.15876275858E+03  0.21378455814E+03  0.13497584498E+04  0.13757751719E+04  0.00000000000E+00 0. -1.
         -4    1    6    6    0  503 -0.48707386388E+02  0.19036627238E+03  0.10656833120E+04  0.10836478434E+04  0.00000000000E+00 0.  1.
<mgrwt>
<rscale>  0 0.11070596E+04</rscale>
<asrwt>0</asrwt>
<pdfrwt beam="1">  1        2 0.56156645E+00 0.11070596E+04</pdfrwt>
<pdfrwt beam="2">  1       -2 0.12913803E-01 0.11070596E+04</pdfrwt>
<totfact> 0.29500828E+01</totfact>
</mgrwt>
</event>
<event>
12    2  0.3555611E-008  0.1581198E+04  0.7818608E-02  0.8832183E-01
          1   -1    0    0  501    0  0.00000000000E+00  0.00000000000E+00  0.81461748421E+03  0.81461748421E+03  0.00000000000E+00 0. -1.
         -1   -1    0    0    0  501 -0.00000000000E+00 -0.00000000000E+00 -0.76728846596E+03  0.76728846596E+03  0.00000000000E+00 0.  1.
         23    2    1    2    0    0  0.28123595914E+03 -0.26443072931E+03 -0.33911767467E+03  0.52139754557E+03  0.88528684294E+02 0.  0.
        254    2    1    2    0    0 -0.28123595914E+03  0.26443072931E+03  0.38644669292E+03  0.10605084046E+04  0.90902131683E+03 0.  0.
         23    2    4    4    0    0  0.26335835631E+03  0.11387284262E+02  0.35686927304E+03  0.45304810824E+03  0.91703959905E+02 0.  0.
         23    2    4    4    0    0 -0.54459431544E+03  0.25304344504E+03  0.29577419876E+02  0.60746029636E+03  0.86713519100E+02 0.  0.
          3    1    3    3  502    0  0.24045520617E+03 -0.22377370429E+03 -0.32505686645E+03  0.46212048573E+03  0.00000000000E+00 0.  1.
         -3    1    3    3    0  502  0.40780752968E+02 -0.40657025014E+02 -0.14060808219E+02  0.59277059841E+02  0.00000000000E+00 0. -1.
         11    1    5    5    0    0  0.14178402340E+02 -0.19922569809E+02  0.56217168531E+02  0.61305023598E+02  0.00000000000E+00 0. -1.
        -11    1    5    5    0    0  0.24917995397E+03  0.31309854071E+02  0.30065210451E+03  0.39174308465E+03  0.00000000000E+00 0.  1.
          3    1    6    6  503    0 -0.63918030937E+01  0.70574808013E+01  0.12169407139E+02  0.15451784757E+02  0.00000000000E+00 0. -1.
         -3    1    6    6    0  503 -0.53820251235E+03  0.24598596424E+03  0.17408012737E+02  0.59200851160E+03  0.00000000000E+00 0.  1.
<mgrwt>
<rscale>  0 0.15811978E+04</rscale>
<asrwt>0</asrwt>
<pdfrwt beam="1">  1        1 0.12532577E+00 0.15811978E+04</pdfrwt>
<pdfrwt beam="2">  1       -1 0.11804438E+00 0.15811978E+04</pdfrwt>
<totfact> 0.13301858E+01</totfact>
</mgrwt>
</event>
<event>
12    2  0.3555611E-008  0.1359002E+04  0.7818608E-02  0.8984042E-01
          2   -1    0    0  501    0  0.00000000000E+00  0.00000000000E+00  0.18864953472E+04  0.18864953472E+04  0.00000000000E+00 0. -1.
         -2   -1    0    0    0  501 -0.00000000000E+00 -0.00000000000E+00 -0.24475098344E+03  0.24475098344E+03  0.00000000000E+00 0.  1.
         23    2    1    2    0    0  0.28603019691E+03 -0.14560493343E+03  0.75972857279E+03  0.82969138145E+03  0.90477698593E+02 0.  0.
        254    2    1    2    0    0 -0.28603019691E+03  0.14560493343E+03  0.88201579099E+03  0.13015549492E+04  0.90170913274E+03 0.  0.
         23    2    4    4    0    0 -0.32261028492E+02 -0.36240118381E+03  0.27318637786E+03  0.46425683819E+03  0.92348377180E+02 0.  0.
         23    2    4    4    0    0 -0.25376916842E+03  0.50800611724E+03  0.60882941313E+03  0.83729811102E+03  0.89027335342E+02 0.  0.
          3    1    3    3  502    0  0.22841862357E+03 -0.94900276791E+02  0.65265351929E+03  0.69795253877E+03  0.00000000000E+00 0. -1.
         -3    1    3    3    0  502  0.57611573344E+02 -0.50704656638E+02  0.10707505350E+03  0.13173884268E+03  0.00000000000E+00 0.  1.
         11    1    5    5    0    0 -0.33559889463E+02 -0.36653671946E+03  0.27510198448E+03  0.45951771974E+03  0.00000000000E+00 0.  1.
        -11    1    5    5    0    0  0.12988609702E+01  0.41355356485E+01 -0.19156066181E+01  0.47391184449E+01  0.00000000000E+00 0. -1.
          4    1    6    6  503    0 -0.43561684922E+02  0.44752858364E+02  0.39953745778E+02  0.74140006250E+02  0.00000000000E+00 0. -1.
         -4    1    6    6    0  503 -0.21020748350E+03  0.46325325888E+03  0.56887566735E+03  0.76315810477E+03  0.00000000000E+00 0.  1.
<mgrwt>
<rscale>  0 0.13590020E+04</rscale>
<asrwt>0</asrwt>
<pdfrwt beam="1">  1        2 0.29023004E+00 0.13590020E+04</pdfrwt>
<pdfrwt beam="2">  1       -2 0.37653999E-01 0.13590020E+04</pdfrwt>
<totfact> 0.50196313E+01</totfact>
</mgrwt>
</event>
<event>
12    2  0.3555611E-008  0.2151650E+04  0.7818608E-02  0.8538826E-01
          1   -1    0    0  501    0  0.00000000000E+00  0.00000000000E+00  0.12418591282E+04  0.12418591282E+04  0.00000000000E+00 0. -1.
         -1   -1    0    0    0  501 -0.00000000000E+00 -0.00000000000E+00 -0.93198941511E+03  0.93198941511E+03  0.00000000000E+00 0.  1.
         23    2    1    2    0    0  0.63277197634E+03  0.56911199872E+03  0.38141494297E+03  0.93716314633E+03  0.92241872187E+02 0.  0.
        254    2    1    2    0    0 -0.63277197634E+03 -0.56911199872E+03 -0.71545229857E+02  0.12366853970E+04  0.89441780513E+03 0.  0.
         23    2    4    4    0    0 -0.54571432104E+03 -0.10493426450E+03 -0.36674582433E+03  0.67214142124E+03  0.91957981906E+02 0.  0.
         23    2    4    4    0    0 -0.87057655300E+02 -0.46417773422E+03  0.29520059447E+03  0.56454397576E+03  0.92339077878E+02 0.  0.
          3    1    3    3  502    0  0.59290461630E+03  0.53583547311E+03  0.38075532968E+03  0.88522887399E+03  0.00000000000E+00 0. -1.
         -3    1    3    3    0  502  0.39867360038E+02  0.33276525612E+02  0.65961329318E+00  0.51934272335E+02  0.00000000000E+00 0.  1.
         11    1    5    5    0    0 -0.33530698042E+03 -0.63097490169E+02 -0.17061993154E+03  0.38147506527E+03  0.00000000000E+00 0. -1.
        -11    1    5    5    0    0 -0.21040734062E+03 -0.41836774327E+02 -0.19612589279E+03  0.29066635598E+03  0.00000000000E+00 0.  1.
          4    1    6    6  503    0 -0.46764201452E+01 -0.64298825905E+02  0.71131401186E+01  0.64859884987E+02  0.00000000000E+00 0. -1.
         -4    1    6    6    0  503 -0.82381235155E+02 -0.39987890832E+03  0.28808745435E+03  0.49968409078E+03  0.00000000000E+00 0.  1.
<mgrwt>
<rscale>  0 0.21516501E+04</rscale>
<asrwt>0</asrwt>
<pdfrwt beam="1">  1        1 0.19105525E+00 0.21516501E+04</pdfrwt>
<pdfrwt beam="2">  1       -1 0.14338299E+00 0.21516501E+04</pdfrwt>
<totfact> 0.35901324E+00</totfact>
</mgrwt>
</event>
<event>
12    2  0.3555611E-008  0.1068512E+04  0.7818608E-02  0.9236437E-01
         -2   -1    0    0    0  501 -0.00000000000E+00  0.00000000000E+00  0.81117586789E+03  0.81117586789E+03  0.00000000000E+00 0.  1.
          2   -1    0    0  501    0  0.00000000000E+00 -0.00000000000E+00 -0.35187130446E+03  0.35187130446E+03  0.00000000000E+00 0. -1.
         23    2    1    2    0    0 -0.54533053228E+02  0.11314411488E+03  0.28826678330E+02  0.15776500880E+03  0.91013053970E+02 0.  0.
        254    2    1    2    0    0  0.54533053228E+02 -0.11314411488E+03  0.43047788510E+03  0.10052821635E+04  0.89972527704E+03 0.  0.
         23    2    4    4    0    0 -0.18239334958E+03 -0.37844125274E+03 -0.13023799889E+02  0.42987270378E+03  0.90198704796E+02 0.  0.
         23    2    4    4    0    0  0.23692640281E+03  0.26529713786E+03  0.44350168499E+03  0.57540945976E+03  0.88800957706E+02 0.  0.
          3    1    3    3  502    0 -0.77503402440E+01  0.47697588025E+02 -0.31086077863E+02  0.57458436406E+02  0.00000000000E+00 0. -1.
         -3    1    3    3    0  502 -0.46782712984E+02  0.65446526851E+02  0.59912756193E+02  0.10030657240E+03  0.00000000000E+00 0.  1.
         11    1    5    5    0    0 -0.14188617277E+03 -0.21489821098E+03 -0.35301490722E+02  0.25992137725E+03  0.00000000000E+00 0. -1.
        -11    1    5    5    0    0 -0.40507176819E+02 -0.16354304175E+03  0.22277690833E+02  0.16995132653E+03  0.00000000000E+00 0.  1.
          1    1    6    6  503    0  0.44344649077E+02  0.10474637373E+03  0.16813847632E+03  0.20299950230E+03  0.00000000000E+00 0.  1.
         -1    1    6    6    0  503  0.19258175374E+03  0.16055076413E+03  0.27536320867E+03  0.37240995747E+03  0.00000000000E+00 0. -1.
<mgrwt>
<rscale>  0 0.10685121E+04</rscale>
<asrwt>0</asrwt>
<pdfrwt beam="1">  1        2 0.54134047E-01 0.10685121E+04</pdfrwt>
<pdfrwt beam="2">  1       -2 0.12479629E+00 0.10685121E+04</pdfrwt>
<totfact> 0.43965807E+01</totfact>
</mgrwt>
</event>
<event>
12    2  0.3555611E-008  0.1775994E+04  0.7818608E-02  0.8719171E-01
          2   -1    0    0  501    0  0.00000000000E+00  0.00000000000E+00  0.86650794083E+03  0.86650794083E+03  0.00000000000E+00 0. -1.
         -2   -1    0    0    0  501 -0.00000000000E+00 -0.00000000000E+00 -0.91001919359E+03  0.91001919359E+03  0.00000000000E+00 0.  1.
         23    2    1    2    0    0 -0.63048564376E+03  0.10559447696E+03 -0.16549400876E+03  0.66712651301E+03  0.94906147695E+02 0.  0.
        254    2    1    2    0    0  0.63048564376E+03 -0.10559447696E+03  0.12198275600E+03  0.11094006214E+04  0.89845846064E+03 0.  0.
         23    2    4    4    0    0  0.82339582512E+03 -0.28145855842E+02 -0.37895188056E+02  0.83024114723E+03  0.95349060071E+02 0.  0.
         23    2    4    4    0    0 -0.19291018136E+03 -0.77448621121E+02  0.15987794406E+03  0.27915947419E+03  0.95689226403E+02 0.  0.
          2    1    3    3  502    0 -0.91519654743E+01 -0.10596274878E+02 -0.14074365604E+01  0.14071971824E+02  0.00000000000E+00 0. -1.
         -2    1    3    3    0  502 -0.62133367829E+03  0.11619075184E+03 -0.16408657220E+03  0.65305454119E+03  0.00000000000E+00 0.  1.
         11    1    5    5    0    0  0.78246207079E+03 -0.43870393940E+02 -0.23339838249E+02  0.78403842491E+03  0.00000000000E+00 0. -1.
        -11    1    5    5    0    0  0.40933754330E+02  0.15724538098E+02 -0.14555349807E+02  0.46202722322E+02  0.00000000000E+00 0.  1.
          2    1    6    6  503    0 -0.16184090708E+03 -0.99626463288E+02  0.12514790383E+03  0.22755199235E+03  0.00000000000E+00 0. -1.
         -2    1    6    6    0  503 -0.31069274279E+02  0.22177842166E+02  0.34730040227E+02  0.51607481837E+02  0.00000000000E+00 0.  1.
<mgrwt>
<rscale>  0 0.17759942E+04</rscale>
<asrwt>0</asrwt>
<pdfrwt beam="1">  1        2 0.13330891E+00 0.17759942E+04</pdfrwt>
<pdfrwt beam="2">  1       -2 0.14000295E+00 0.17759942E+04</pdfrwt>
<totfact> 0.10498281E+01</totfact>
</mgrwt>
</event>
<event>
12    2  0.3555611E-008  0.1374898E+04  0.7818608E-02  0.8972192E-01
         -2   -1    0    0    0  501 -0.00000000000E+00  0.00000000000E+00  0.38021266368E+03  0.38021266368E+03  0.00000000000E+00 0.  1.
          2   -1    0    0  501    0  0.00000000000E+00 -0.00000000000E+00 -0.12429518699E+04  0.12429518699E+04  0.00000000000E+00 0. -1.
         23    2    1    2    0    0 -0.25105392369E+03  0.17536830641E+03  0.25979857301E+02  0.32041332020E+03  0.90595956208E+02 0.  0.
        254    2    1    2    0    0  0.25105392369E+03 -0.17536830641E+03 -0.88871906352E+03  0.13027512134E+04  0.90197396559E+03 0.  0.
         23    2    4    4    0    0  0.65726964190E+02 -0.24143971526E+03  0.10640693591E+03  0.28443920174E+03  0.83486846579E+02 0.  0.
         23    2    4    4    0    0  0.18532695950E+03  0.66071408843E+02 -0.99512599942E+03  0.10183120116E+04  0.89286534987E+02 0.  0.
          1    1    3    3  502    0 -0.26731577681E+02 -0.84132268393E+01  0.10766077459E+02  0.30021126811E+02  0.00000000000E+00 0. -1.
         -1    1    3    3    0  502 -0.22432234600E+03  0.18378153325E+03  0.15213779842E+02  0.29039219338E+03  0.00000000000E+00 0.  1.
         11    1    5    5    0    0  0.57519549166E+02 -0.13581659126E+03  0.10021065918E+03  0.17831663190E+03  0.00000000000E+00 0.  1.
        -11    1    5    5    0    0  0.82074150233E+01 -0.10562312400E+03  0.61962767253E+01  0.10612256984E+03  0.00000000000E+00 0. -1.
          2    1    6    6  503    0  0.55258198149E+02  0.64637085438E+02 -0.44093293410E+03  0.44905820742E+03  0.00000000000E+00 0. -1.
         -2    1    6    6    0  503  0.13006876135E+03  0.14343234050E+01 -0.55419306533E+03  0.56925380422E+03  0.00000000000E+00 0.  1.
<mgrwt>
<rscale>  0 0.13748979E+04</rscale>
<asrwt>0</asrwt>
<pdfrwt beam="1">  1        2 0.19122336E+00 0.13748979E+04</pdfrwt>
<pdfrwt beam="2">  1       -2 0.58494256E-01 0.13748979E+04</pdfrwt>
<totfact> 0.47581872E+01</totfact>
</mgrwt>
</event>
<event>
12    2  0.3555611E-008  0.2156887E+04  0.7818608E-02  0.8536590E-01
          1   -1    0    0  501    0  0.00000000000E+00  0.00000000000E+00  0.54906514240E+03  0.54906514240E+03  0.00000000000E+00 0. -1.
         -1   -1    0    0    0  501 -0.00000000000E+00 -0.00000000000E+00 -0.21182186231E+04  0.21182186231E+04  0.00000000000E+00 0.  1.
         23    2    1    2    0    0  0.26474755074E+03  0.79740634838E+03 -0.28680916999E+03  0.89216335671E+03  0.88021616645E+02 0.  0.
        254    2    1    2    0    0 -0.26474755074E+03 -0.79740634838E+03 -0.12823443107E+04  0.17751204088E+04  0.89481695585E+03 0.  0.
         23    2    4    4    0    0 -0.45260208971E+03 -0.67597558417E+02 -0.54430760914E+03  0.71643662555E+03  0.87135432251E+02 0.  0.
         23    2    4    4    0    0  0.18785453897E+03 -0.72980878997E+03 -0.73803670161E+03  0.10586837833E+04  0.90570317056E+02 0.  0.
          2    1    3    3  502    0  0.17427790333E+03  0.57613613808E+03 -0.16637490972E+03  0.62448878915E+03  0.00000000000E+00 0. -1.
         -2    1    3    3    0  502  0.90469647410E+02  0.22127021030E+03 -0.12043426027E+03  0.26767456756E+03  0.00000000000E+00 0.  1.
         11    1    5    5    0    0 -0.64489737356E+02 -0.90409483599E+01 -0.13192346860E+03  0.14712058503E+03  0.00000000000E+00 0.  1.
        -11    1    5    5    0    0 -0.38811235235E+03 -0.58556610057E+02 -0.41238414053E+03  0.56931604052E+03  0.00000000000E+00 0. -1.
          4    1    6    6  503    0  0.38967159389E+02 -0.32172980969E+03 -0.33533807711E+03  0.46634765563E+03  0.00000000000E+00 0. -1.
         -4    1    6    6    0  503  0.14888737958E+03 -0.40807898028E+03 -0.40269862450E+03  0.59233612765E+03  0.00000000000E+00 0.  1.
<mgrwt>
<rscale>  0 0.21568867E+04</rscale>
<asrwt>0</asrwt>
<pdfrwt beam="1">  1        1 0.84471561E-01 0.21568867E+04</pdfrwt>
<pdfrwt beam="2">  1       -1 0.32587979E+00 0.21568867E+04</pdfrwt>
<totfact> 0.79777560E-01</totfact>
</mgrwt>
</event>
<event>
12    2  0.3555611E-008  0.1130762E+04  0.7818608E-02  0.9175717E-01
         -2   -1    0    0    0  501 -0.00000000000E+00  0.00000000000E+00  0.24217455671E+04  0.24217455671E+04  0.00000000000E+00 0.  1.
          2   -1    0    0  501    0  0.00000000000E+00 -0.00000000000E+00 -0.13199399403E+03  0.13199399403E+03  0.00000000000E+00 0. -1.
         23    2    1    2    0    0 -0.17227355288E+03 -0.63858574781E+02  0.18413897833E+03  0.27551218731E+03  0.90794864503E+02 0.  0.
        254    2    1    2    0    0  0.17227355288E+03  0.63858574781E+02  0.21056125947E+04  0.22782273738E+04  0.85027023535E+03 0.  0.
         23    2    4    4    0    0  0.15184550672E+02  0.14889748002E+03  0.20670110406E+04  0.20742838680E+04  0.87851539261E+02 0.  0.
         23    2    4    4    0    0  0.15708900221E+03 -0.85038905234E+02  0.38601554075E+02  0.20394350576E+03  0.90522392512E+02 0.  0.
          4    1    3    3  502    0 -0.75829592627E+02 -0.65133191746E+02  0.54270572518E+02  0.11374425184E+03  0.00000000000E+00 0. -1.
         -4    1    3    3    0  502 -0.96443960255E+02  0.12746169655E+01  0.12986840581E+03  0.16176793547E+03  0.00000000000E+00 0.  1.
         11    1    5    5    0    0 -0.36109633126E+02  0.78230958296E+02  0.99821270295E+03  0.10019244426E+04  0.00000000000E+00 0. -1.
        -11    1    5    5    0    0  0.51294183798E+02  0.70666521720E+02  0.10687983377E+04  0.10723594254E+04  0.00000000000E+00 0.  1.
          4    1    6    6  503    0  0.16818491997E+03 -0.84498040754E+02  0.40871950806E+02  0.19260478332E+03  0.00000000000E+00 0. -1.
         -4    1    6    6    0  503 -0.11095917756E+02 -0.54086448010E+00 -0.22703967315E+01  0.11338722440E+02  0.00000000000E+00 0.  1.
<mgrwt>
<rscale>  0 0.11307623E+04</rscale>
<asrwt>0</asrwt>
<pdfrwt beam="1">  1        2 0.20306770E-01 0.11307623E+04</pdfrwt>
<pdfrwt beam="2">  1       -2 0.37257621E+00 0.11307623E+04</pdfrwt>
<totfact> 0.31583771E+00</totfact>
</mgrwt>
</event>
<event>
12    2  0.3555611E-008  0.2931255E+04  0.7818608E-02  0.8263638E-01
          1   -1    0    0  501    0  0.00000000000E+00  0.00000000000E+00  0.26758622269E+04  0.26758622269E+04  0.00000000000E+00 0. -1.
         -1   -1    0    0    0  501 -0.00000000000E+00 -0.00000000000E+00 -0.80275608038E+03  0.80275608038E+03  0.00000000000E+00 0.  1.
         23    2    1    2    0    0  0.44287368544E+03 -0.10611541143E+04  0.16212938920E+04  0.19899578119E+04  0.95671590074E+02 0.  0.
        254    2    1    2    0    0 -0.44287368544E+03  0.10611541143E+04  0.25181225454E+03  0.14886604954E+04  0.91132623331E+03 0.  0.
         23    2    4    4    0    0  0.13413620282E+03  0.71415940605E+03  0.33353300933E+03  0.80500194074E+03  0.93635880534E+02 0.  0.
         23    2    4    4    0    0 -0.57700988826E+03  0.34699470828E+03 -0.81720754790E+02  0.68365855469E+03  0.85819571871E+02 0.  0.
          4    1    3    3  502    0  0.37791687501E+02 -0.11351837340E+03  0.12439666212E+03  0.17259537158E+03  0.00000000000E+00 0. -1.
         -4    1    3    3    0  502  0.40508199794E+03 -0.94763574094E+03  0.14968972299E+04  0.18173624403E+04  0.00000000000E+00 0.  1.
         11    1    5    5    0    0  0.22813758371E+02  0.67321576943E+02  0.56311028571E+01  0.71304779731E+02  0.00000000000E+00 0. -1.
        -11    1    5    5    0    0  0.11132244445E+03  0.64683782911E+03  0.32790190648E+03  0.73369716101E+03  0.00000000000E+00 0.  1.
          1    1    6    6  503    0 -0.17361029404E+02  0.30969109936E+02  0.17623182153E+01  0.35547107867E+02  0.00000000000E+00 0. -1.
         -1    1    6    6    0  503 -0.55964885886E+03  0.31602559834E+03 -0.83483073005E+02  0.64811144682E+03  0.00000000000E+00 0.  1.
<mgrwt>
<rscale>  0 0.29312555E+04</rscale>
<asrwt>0</asrwt>
<pdfrwt beam="1">  1        1 0.41167111E+00 0.29312555E+04</pdfrwt>
<pdfrwt beam="2">  1       -1 0.12350094E+00 0.29312555E+04</pdfrwt>
<totfact> 0.50358653E-01</totfact>
</mgrwt>
</event>
<event>
12    2  0.3555611E-008  0.1821742E+04  0.7818608E-02  0.8694822E-01
         -2   -1    0    0    0  501 -0.00000000000E+00  0.00000000000E+00  0.69936158730E+03  0.69936158730E+03  0.00000000000E+00 0.  1.
          2   -1    0    0  501    0  0.00000000000E+00 -0.00000000000E+00 -0.11863478459E+04  0.11863478459E+04  0.00000000000E+00 0. -1.
         23    2    1    2    0    0  0.10432217909E+03  0.35352415759E+03  0.41132317660E+03  0.55972280999E+03  0.90776766635E+02 0.  0.
        254    2    1    2    0    0 -0.10432217909E+03 -0.35352415759E+03 -0.89830943520E+03  0.13259866232E+04  0.90300511434E+03 0.  0.
         23    2    4    4    0    0  0.77567441534E+02  0.16968701645E+03  0.59981825063E+02  0.21536040717E+03  0.89285464104E+02 0.  0.
         23    2    4    4    0    0 -0.18188962063E+03 -0.52321117404E+03 -0.95829126026E+03  0.11106262160E+04  0.91294498908E+02 0.  0.
          2    1    3    3  502    0  0.11574615218E+03  0.34164938677E+03  0.40424482783E+03  0.54178903280E+03  0.00000000000E+00 0.  1.
         -2    1    3    3    0  502 -0.11423973090E+02  0.11874770814E+02  0.70783487695E+01  0.17933777191E+02  0.00000000000E+00 0. -1.
         11    1    5    5    0    0  0.51876028203E+02  0.53993860439E+02 -0.13262459328E+02  0.76041778613E+02  0.00000000000E+00 0.  1.
        -11    1    5    5    0    0  0.25691413332E+02  0.11569315601E+03  0.73244284391E+02  0.13931862856E+03  0.00000000000E+00 0. -1.
          3    1    6    6  503    0 -0.13423171912E+02 -0.10829226479E+03 -0.24809942058E+03  0.27103637883E+03  0.00000000000E+00 0. -1.
         -3    1    6    6    0  503 -0.16846644872E+03 -0.41491890925E+03 -0.71019183968E+03  0.83958983721E+03  0.00000000000E+00 0.  1.
<mgrwt>
<rscale>  0 0.18217421E+04</rscale>
<asrwt>0</asrwt>
<pdfrwt beam="1">  1        2 0.18251505E+00 0.18217421E+04</pdfrwt>
<pdfrwt beam="2">  1       -2 0.10759409E+00 0.18217421E+04</pdfrwt>
<totfact> 0.12610241E+01</totfact>
</mgrwt>
</event>
<event>
12    2  0.3555611E-008  0.1931889E+04  0.7818608E-02  0.8639144E-01
         -1   -1    0    0    0  501 -0.00000000000E+00  0.00000000000E+00  0.13369194021E+04  0.13369194021E+04  0.00000000000E+00 0.  1.
          1   -1    0    0  501    0  0.00000000000E+00 -0.00000000000E+00 -0.69790984398E+03  0.69790984398E+03  0.00000000000E+00 0. -1.
         23    2    1    2    0    0 -0.54479766572E+03  0.17397168547E+03 -0.26054675635E+03  0.63563919330E+03  0.95299149506E+02 0.  0.
        254    2    1    2    0    0  0.54479766572E+03 -0.17397168547E+03  0.89955631448E+03  0.13991900528E+04  0.90634463479E+03 0.  0.
         23    2    4    4    0    0  0.59309089562E+03 -0.27634057153E+03  0.20789349782E+03  0.69247789278E+03  0.90471009774E+02 0.  0.
         23    2    4    4    0    0 -0.48293229908E+02  0.10236888606E+03  0.69166281666E+03  0.70671216002E+03  0.90735881944E+02 0.  0.
          2    1    3    3  502    0 -0.41802964042E+03  0.13314700081E+03 -0.24238819946E+03  0.50122743674E+03  0.00000000000E+00 0. -1.
         -2    1    3    3    0  502 -0.12676802529E+03  0.40824684654E+02 -0.18158556888E+02  0.13441175656E+03  0.00000000000E+00 0.  1.
         11    1    5    5    0    0  0.10623969354E+02 -0.16971242550E+02  0.18697319285E+02  0.27394918269E+02  0.00000000000E+00 0. -1.
        -11    1    5    5    0    0  0.58246692627E+03 -0.25936932898E+03  0.18919617853E+03  0.66508297451E+03  0.00000000000E+00 0.  1.
          3    1    6    6  503    0  0.40982009053E+01 -0.52402964197E+01  0.23032619699E+01  0.70399554635E+01  0.00000000000E+00 0. -1.
         -3    1    6    6    0  503 -0.52391430813E+02  0.10760918248E+03  0.68935955469E+03  0.69967220455E+03  0.00000000000E+00 0.  1.
<mgrwt>
<rscale>  0 0.19318894E+04</rscale>
<asrwt>0</asrwt>
<pdfrwt beam="1">  1        1 0.10737075E+00 0.19318894E+04</pdfrwt>
<pdfrwt beam="2">  1       -1 0.20567991E+00 0.19318894E+04</pdfrwt>
<totfact> 0.35126211E+00</totfact>
</mgrwt>
</event>
<event>
12    2  0.3555611E-008  0.3003166E+04  0.7818608E-02  0.8242827E-01
         -2   -1    0    0    0  501 -0.00000000000E+00  0.00000000000E+00  0.14928078362E+04  0.14928078362E+04  0.00000000000E+00 0.  1.
          2   -1    0    0  501    0  0.00000000000E+00 -0.00000000000E+00 -0.15104100711E+04  0.15104100711E+04  0.00000000000E+00 0. -1.
         23    2    1    2    0    0  0.11472989422E+02  0.34075999554E+03 -0.13181502157E+04  0.13644115317E+04  0.88599281931E+02 0.  0.
        254    2    1    2    0    0 -0.11472989422E+02 -0.34075999554E+03  0.13005479807E+04  0.16388063756E+04  0.93702309606E+03 0.  0.
         23    2    4    4    0    0  0.18449421626E+03 -0.31007008796E+03  0.57398288260E+02  0.37666596972E+03  0.91657590877E+02 0.  0.
         23    2    4    4    0    0 -0.19596720569E+03 -0.30689907581E+02  0.12431496925E+04  0.12621404059E+04  0.90731638415E+02 0.  0.
          1    1    3    3  502    0 -0.29805145789E+02  0.17689710956E+03 -0.77957326556E+03  0.79994712979E+03  0.00000000000E+00 0. -1.
         -1    1    3    3    0  502  0.41278135212E+02  0.16386288599E+03 -0.53857695012E+03  0.56446440193E+03  0.00000000000E+00 0.  1.
         11    1    5    5    0    0  0.14887623362E+03 -0.29300775149E+03  0.68327391934E+02  0.33568781310E+03  0.00000000000E+00 0.  1.
        -11    1    5    5    0    0  0.35617982639E+02 -0.17062336470E+02 -0.10929103674E+02  0.40978156622E+02  0.00000000000E+00 0. -1.
          1    1    6    6  503    0 -0.34600855410E+02  0.14042894622E+02  0.99120573116E+02  0.10592124480E+03  0.00000000000E+00 0. -1.
         -1    1    6    6    0  503 -0.16136635028E+03 -0.44732802204E+02  0.11440291193E+04  0.11562191611E+04  0.00000000000E+00 0.  1.
<mgrwt>
<rscale>  0 0.30031663E+04</rscale>
<asrwt>0</asrwt>
<pdfrwt beam="1">  1        2 0.23237078E+00 0.30031663E+04</pdfrwt>
<pdfrwt beam="2">  1       -2 0.22966274E+00 0.30031663E+04</pdfrwt>
<totfact> 0.92082924E-01</totfact>
</mgrwt>
</event>
<event>
12    2  0.3555611E-008  0.1336034E+04  0.7818608E-02  0.9001468E-01
         -2   -1    0    0    0  501 -0.00000000000E+00  0.00000000000E+00  0.14138902301E+03  0.14138902301E+03  0.00000000000E+00 0.  1.
          2   -1    0    0  501    0  0.00000000000E+00 -0.00000000000E+00 -0.31561645810E+04  0.31561645810E+04  0.00000000000E+00 0. -1.
         23    2    1    2    0    0 -0.19964398808E+03  0.27007414053E+03 -0.54588074618E+03  0.64738816112E+03  0.91257211987E+02 0.  0.
        254    2    1    2    0    0  0.19964398808E+03 -0.27007414053E+03 -0.24688948118E+04  0.26501654429E+04  0.90284966610E+03 0.  0.
         23    2    4    4    0    0 -0.73011972308E+01 -0.56240434505E+03 -0.11958329589E+04  0.13245659202E+04  0.90035862598E+02 0.  0.
         23    2    4    4    0    0  0.20694518531E+03  0.29233020452E+03 -0.12730618529E+04  0.13255995227E+04  0.90798430862E+02 0.  0.
          3    1    3    3  502    0 -0.47890154742E+02  0.24643437508E+02 -0.13460968526E+03  0.14498459677E+03  0.00000000000E+00 0. -1.
         -3    1    3    3    0  502 -0.15175383334E+03  0.24543070302E+03 -0.41127106092E+03  0.50240356435E+03  0.00000000000E+00 0.  1.
         11    1    5    5    0    0 -0.27364663278E+02 -0.27818329251E+03 -0.50337415243E+03  0.57577800093E+03  0.00000000000E+00 0.  1.
        -11    1    5    5    0    0  0.20063466047E+02 -0.28422105254E+03 -0.69245880649E+03  0.74878791928E+03  0.00000000000E+00 0. -1.
          1    1    6    6  503    0  0.65872523163E+02  0.65245865704E+02 -0.21218198652E+03  0.23155432992E+03  0.00000000000E+00 0. -1.
         -1    1    6    6    0  503  0.14107266215E+03  0.22708433881E+03 -0.10608798663E+04  0.10940451927E+04  0.00000000000E+00 0.  1.
<mgrwt>
<rscale>  0 0.13360345E+04</rscale>
<asrwt>0</asrwt>
<pdfrwt beam="1">  1        2 0.48556373E+00 0.13360345E+04</pdfrwt>
<pdfrwt beam="2">  1       -2 0.21752160E-01 0.13360345E+04</pdfrwt>
<totfact> 0.25270366E+01</totfact>
</mgrwt>
</event>
<event>
12    2  0.3555611E-008  0.1648161E+04  0.7818608E-02  0.8791495E-01
         -2   -1    0    0    0  501 -0.00000000000E+00  0.00000000000E+00  0.41303747147E+03  0.41303747147E+03  0.00000000000E+00 0.  1.
          2   -1    0    0  501    0  0.00000000000E+00 -0.00000000000E+00 -0.16441825380E+04  0.16441825380E+04  0.00000000000E+00 0. -1.
         23    2    1    2    0    0 -0.27525957739E+03  0.12837954964E+03  0.16952225325E+03  0.35997370500E+03  0.92704531913E+02 0.  0.
        254    2    1    2    0    0  0.27525957739E+03 -0.12837954964E+03 -0.14006673197E+04  0.16972463044E+04  0.90913526696E+03 0.  0.
         23    2    4    4    0    0 -0.17958801251E+03 -0.37371282384E+03 -0.50562584603E+03  0.65982280496E+03  0.88292178717E+02 0.  0.
         23    2    4    4    0    0  0.45484758990E+03  0.24533327420E+03 -0.89504147370E+03  0.10374234995E+04  0.89852836082E+02 0.  0.
          4    1    3    3  502    0 -0.25471893336E+02  0.42365221015E+02  0.73239965172E+01  0.49972694812E+02  0.00000000000E+00 0. -1.
         -4    1    3    3    0  502 -0.24978768405E+03  0.86014328627E+02  0.16219825673E+03  0.31000101019E+03  0.00000000000E+00 0.  1.
         11    1    5    5    0    0 -0.17799819565E+03 -0.37748521260E+03 -0.48987903446E+03  0.64355257112E+03  0.00000000000E+00 0.  1.
        -11    1    5    5    0    0 -0.15898168650E+01  0.37723887568E+01 -0.15746811570E+02  0.16270233841E+02  0.00000000000E+00 0. -1.
          3    1    6    6  503    0  0.18896680618E+02  0.31740156892E+01 -0.10149773723E+02  0.21683561068E+02  0.00000000000E+00 0. -1.
         -3    1    6    6    0  503  0.43595090928E+03  0.24215925851E+03 -0.88489169998E+03  0.10157399384E+04  0.00000000000E+00 0.  1.
<mgrwt>
<rscale>  0 0.16481614E+04</rscale>
<asrwt>0</asrwt>
<pdfrwt beam="1">  1        2 0.25295116E+00 0.16481614E+04</pdfrwt>
<pdfrwt beam="2">  1       -2 0.63544226E-01 0.16481614E+04</pdfrwt>
<totfact> 0.23066757E+01</totfact>
</mgrwt>
</event>
<event>
12    2  0.3555611E-008  0.2077231E+04  0.7818608E-02  0.8571340E-01
          2   -1    0    0  501    0  0.00000000000E+00  0.00000000000E+00  0.16035837087E+04  0.16035837087E+04  0.00000000000E+00 0. -1.
         -2   -1    0    0    0  501 -0.00000000000E+00 -0.00000000000E+00 -0.67269447702E+03  0.67269447702E+03  0.00000000000E+00 0.  1.
         23    2    1    2    0    0 -0.11817102982E+03  0.36998850462E+03  0.11971752067E+04  0.12618514500E+04  0.90469445104E+02 0.  0.
        254    2    1    2    0    0  0.11817102982E+03 -0.36998850462E+03 -0.26628597507E+03  0.10144267357E+04  0.89849735431E+03 0.  0.
         23    2    4    4    0    0  0.46471843456E+02 -0.62304134493E+03 -0.35007817986E+03  0.72193790973E+03  0.91101392771E+02 0.  0.
         23    2    4    4    0    0  0.71699186369E+02  0.25305284030E+03  0.83792204796E+02  0.29248882596E+03  0.96706082599E+02 0.  0.
          1    1    3    3  502    0 -0.13104405823E+03  0.30047983388E+03  0.96564488011E+03  0.10197699301E+04  0.00000000000E+00 0. -1.
         -1    1    3    3    0  502  0.12873028407E+02  0.69508670738E+02  0.23153032661E+03  0.24208151996E+03  0.00000000000E+00 0.  1.
         11    1    5    5    0    0  0.67050772311E+02 -0.35610880445E+03 -0.17843624770E+03  0.40391679981E+03  0.00000000000E+00 0. -1.
        -11    1    5    5    0    0 -0.20578928856E+02 -0.26693254047E+03 -0.17164193216E+03  0.31802110992E+03  0.00000000000E+00 0.  1.
          2    1    6    6  503    0 -0.56031289440E+01 -0.24185679060E+01 -0.81541764494E+01  0.10185043851E+02  0.00000000000E+00 0. -1.
         -2    1    6    6    0  503  0.77302315313E+02  0.25547140821E+03  0.91946381246E+02  0.28230378210E+03  0.00000000000E+00 0.  1.
<mgrwt>
<rscale>  0 0.20772308E+04</rscale>
<asrwt>0</asrwt>
<pdfrwt beam="1">  1        2 0.24670518E+00 0.20772308E+04</pdfrwt>
<pdfrwt beam="2">  1       -2 0.10349146E+00 0.20772308E+04</pdfrwt>
<totfact> 0.78004664E+00</totfact>
</mgrwt>
</event>
<event>
12    2  0.3555611E-008  0.1544437E+04  0.7818608E-02  0.8855429E-01
         -1   -1    0    0    0  501 -0.00000000000E+00  0.00000000000E+00  0.48637452270E+03  0.48637452270E+03  0.00000000000E+00 0.  1.
          1   -1    0    0  501    0  0.00000000000E+00 -0.00000000000E+00 -0.12260535727E+04  0.12260535727E+04  0.00000000000E+00 0. -1.
         23    2    1    2    0    0  0.51695181317E+03  0.72376787356E+02 -0.31625504614E+03  0.61708069972E+03  0.91070078844E+02 0.  0.
        254    2    1    2    0    0 -0.51695181317E+03 -0.72376787356E+02 -0.42342400387E+03  0.10953473957E+04  0.86488175708E+03 0.  0.
         23    2    4    4    0    0 -0.25909788395E+03  0.38761493479E+03 -0.20994088318E+03  0.51889152562E+03  0.88296035003E+02 0.  0.
         23    2    4    4    0    0 -0.25785392922E+03 -0.45999172214E+03 -0.21348312069E+03  0.57645587008E+03  0.92980073527E+02 0.  0.
          3    1    3    3  502    0  0.38209605927E+02  0.16065641249E+02 -0.54760759267E+02  0.68679105770E+02  0.00000000000E+00 0. -1.
         -3    1    3    3    0  502  0.47874220724E+03  0.56311146108E+02 -0.26149428688E+03  0.54840159395E+03  0.00000000000E+00 0.  1.
         11    1    5    5    0    0 -0.74655624367E+02  0.50533471265E+02 -0.44708158217E+02  0.10062759750E+03  0.00000000000E+00 0.  1.
        -11    1    5    5    0    0 -0.18444225958E+03  0.33708146352E+03 -0.16523272496E+03  0.41826392812E+03  0.00000000000E+00 0. -1.
          4    1    6    6  503    0 -0.25316315757E+03 -0.44339554768E+03 -0.18481289068E+03  0.54299815894E+03  0.00000000000E+00 0. -1.
         -4    1    6    6    0  503 -0.46907716552E+01 -0.16596174464E+02 -0.28670230017E+02  0.33457711141E+02  0.00000000000E+00 0.  1.
<mgrwt>
<rscale>  0 0.15444368E+04</rscale>
<asrwt>0</asrwt>
<pdfrwt beam="1">  1        1 0.18862363E+00 0.15444368E+04</pdfrwt>
<pdfrwt beam="2">  1       -1 0.74826850E-01 0.15444368E+04</pdfrwt>
<totfact> 0.17712532E+01</totfact>
</mgrwt>
</event>
<event>
12    2  0.3555611E-008  0.1994567E+04  0.7818608E-02  0.8609165E-01
          2   -1    0    0  501    0  0.00000000000E+00  0.00000000000E+00  0.12649659785E+04  0.12649659785E+04  0.00000000000E+00 0.  1.
         -2   -1    0    0    0  501 -0.00000000000E+00 -0.00000000000E+00 -0.78624575607E+03  0.78624575607E+03  0.00000000000E+00 0. -1.
         23    2    1    2    0    0  0.35805122105E+03  0.56238687589E+03  0.68857167400E+03  0.96286289888E+03  0.92164726039E+02 0.  0.
        254    2    1    2    0    0 -0.35805122105E+03 -0.56238687589E+03 -0.20985145159E+03  0.10883488357E+04  0.83425768280E+03 0.  0.
         23    2    4    4    0    0  0.19210455367E+03 -0.37703275082E+03 -0.25035084880E+03  0.49958144037E+03  0.88590142455E+02 0.  0.
         23    2    4    4    0    0 -0.55015577472E+03 -0.18535412507E+03  0.40499397212E+02  0.58876739530E+03  0.89327019714E+02 0.  0.
          3    1    3    3  502    0  0.18696087976E+03  0.36592051142E+03  0.38873342629E+03  0.56565525539E+03  0.00000000000E+00 0.  1.
         -3    1    3    3    0  502  0.17109034129E+03  0.19646636447E+03  0.29983824772E+03  0.39720764349E+03  0.00000000000E+00 0. -1.
         11    1    5    5    0    0  0.49909547650E+02 -0.39717227255E+02 -0.19053667954E+02  0.66569237264E+02  0.00000000000E+00 0.  1.
        -11    1    5    5    0    0  0.14219500602E+03 -0.33731552357E+03 -0.23129718085E+03  0.43301220311E+03  0.00000000000E+00 0. -1.
          1    1    6    6  503    0 -0.33587195170E+03 -0.13480519925E+03 -0.13172131884E+02  0.36215454538E+03  0.00000000000E+00 0.  1.
         -1    1    6    6    0  503 -0.21428382302E+03 -0.50548925815E+02  0.53671529096E+02  0.22661284991E+03  0.00000000000E+00 0. -1.
<mgrwt>
<rscale>  0 0.19945668E+04</rscale>
<asrwt>0</asrwt>
<pdfrwt beam="1">  1        2 0.19461015E+00 0.19945668E+04</pdfrwt>
<pdfrwt beam="2">  1       -2 0.12096089E+00 0.19945668E+04</pdfrwt>
<totfact> 0.83873946E+00</totfact>
</mgrwt>
</event>
<event>
12    2  0.3555611E-008  0.2274632E+04  0.7818608E-02  0.8487991E-01
         -2   -1    0    0    0  501 -0.00000000000E+00  0.00000000000E+00  0.58171145812E+03  0.58171145812E+03  0.00000000000E+00 0.  1.
          2   -1    0    0  501    0  0.00000000000E+00 -0.00000000000E+00 -0.22235896446E+04  0.22235896446E+04  0.00000000000E+00 0. -1.
         23    2    1    2    0    0 -0.61181121648E+02 -0.19188630900E+03 -0.18483229061E+04  0.18614785269E+04  0.90781361418E+02 0.  0.
        254    2    1    2    0    0  0.61181121648E+02  0.19188630900E+03  0.20644471967E+03  0.94382257580E+03  0.89867577417E+03 0.  0.
         23    2    4    4    0    0  0.51363286267E+02  0.48790005590E+03  0.34276362305E+03  0.60525563565E+03  0.90348389432E+02 0.  0.
         23    2    4    4    0    0  0.98178353810E+01 -0.29601374691E+03 -0.13631890338E+03  0.33856694015E+03  0.91237060955E+02 0.  0.
          2    1    3    3  502    0 -0.61932080045E+02 -0.19481281859E+03 -0.15837197959E+04  0.15968581680E+04  0.00000000000E+00 0. -1.
         -2    1    3    3    0  502  0.75095839693E+00  0.29265095928E+01 -0.26460311027E+03  0.26462035894E+03  0.00000000000E+00 0.  1.
         11    1    5    5    0    0 -0.21746641642E+02  0.21330394697E+03  0.15736960179E+03  0.26596368508E+03  0.00000000000E+00 0. -1.
        -11    1    5    5    0    0  0.73109927909E+02  0.27459610893E+03  0.18539402126E+03  0.33929195057E+03  0.00000000000E+00 0.  1.
          2    1    6    6  503    0  0.30425268846E+02 -0.79689670888E+02 -0.67494456588E+01  0.85566907431E+02  0.00000000000E+00 0. -1.
         -2    1    6    6    0  503 -0.20607433465E+02 -0.21632407602E+03 -0.12956945772E+03  0.25300003272E+03  0.00000000000E+00 0.  1.
<mgrwt>
<rscale>  0 0.22746319E+04</rscale>
<asrwt>0</asrwt>
<pdfrwt beam="1">  1        2 0.34209072E+00 0.22746319E+04</pdfrwt>
<pdfrwt beam="2">  1       -2 0.89494069E-01 0.22746319E+04</pdfrwt>
<totfact> 0.48706850E+00</totfact>
</mgrwt>
</event>
<event>
12    2  0.3555611E-008  0.1370616E+04  0.7818608E-02  0.8975367E-01
          2   -1    0    0  501    0  0.00000000000E+00  0.00000000000E+00  0.20163993428E+04  0.20163993428E+04  0.00000000000E+00 0. -1.
         -2   -1    0    0    0  501 -0.00000000000E+00 -0.00000000000E+00 -0.23291355317E+03  0.23291355317E+03  0.00000000000E+00 0.  1.
         23    2    1    2    0    0  0.16422263500E+03  0.68465632505E+02  0.13584437306E+04  0.13730095725E+04  0.90162631684E+02 0.  0.
        254    2    1    2    0    0 -0.16422263500E+03 -0.68465632505E+02  0.42504205899E+03  0.87630332348E+03  0.74537919621E+03 0.  0.
         23    2    4    4    0    0  0.38042366732E+01 -0.34648808280E+03  0.39768834879E+03  0.53631662800E+03  0.97010509541E+02 0.  0.
         23    2    4    4    0    0 -0.16802687167E+03  0.27802245030E+03  0.27353710197E+02  0.33998669548E+03  0.96505000753E+02 0.  0.
          4    1    3    3  502    0  0.20217027601E+02 -0.11329218925E+02  0.62650552038E+02  0.66799484108E+02  0.00000000000E+00 0.  1.
         -4    1    3    3    0  502  0.14400560740E+03  0.79794851431E+02  0.12957931786E+04  0.13062100884E+04  0.00000000000E+00 0. -1.
         11    1    5    5    0    0  0.16931256281E+02 -0.57993909539E+01  0.29596615542E+02  0.34586992154E+02  0.00000000000E+00 0. -1.
        -11    1    5    5    0    0 -0.13127019608E+02 -0.34068869185E+03  0.36809173325E+03  0.50172963584E+03  0.00000000000E+00 0.  1.
          3    1    6    6  503    0 -0.87151727506E+02  0.20303101910E+03 -0.15896680980E+02  0.22151686795E+03  0.00000000000E+00 0. -1.
         -3    1    6    6    0  503 -0.80875144164E+02  0.74991431201E+02  0.43250391177E+02  0.11846982753E+03  0.00000000000E+00 0.  1.
<mgrwt>
<rscale>  0 0.13706155E+04</rscale>
<asrwt>0</asrwt>
<pdfrwt beam="1">  1        2 0.31021527E+00 0.13706155E+04</pdfrwt>
<pdfrwt beam="2">  1       -2 0.35832856E-01 0.13706155E+04</pdfrwt>
<totfact> 0.46761070E+01</totfact>
</mgrwt>
</event>
<event>
12    2  0.3555611E-008  0.1436023E+04  0.7818608E-02  0.8928148E-01
         -2   -1    0    0    0  501 -0.00000000000E+00  0.00000000000E+00  0.28539628628E+03  0.28539628628E+03  0.00000000000E+00 0.  1.
          2   -1    0    0  501    0  0.00000000000E+00 -0.00000000000E+00 -0.18064023544E+04  0.18064023544E+04  0.00000000000E+00 0. -1.
         23    2    1    2    0    0 -0.12674391904E+03  0.39869558311E+03 -0.63641658753E+03  0.76736870797E+03  0.93842805181E+02 0.  0.
        254    2    1    2    0    0  0.12674391904E+03 -0.39869558311E+03 -0.88458948061E+03  0.13244299327E+04  0.89252109694E+03 0.  0.
         23    2    4    4    0    0  0.50783818748E+02  0.25270424415E+03 -0.84804132021E+02  0.28608573717E+03  0.90635958326E+02 0.  0.
         23    2    4    4    0    0  0.75960100295E+02 -0.65139982726E+03 -0.79978534859E+03  0.10383441956E+04  0.91708193909E+02 0.  0.
          3    1    3    3  502    0 -0.77829009529E+02  0.35406982076E+03 -0.53565139989E+03  0.64679611540E+03  0.00000000000E+00 0. -1.
         -3    1    3    3    0  502 -0.48914909514E+02  0.44625762345E+02 -0.10076518764E+03  0.12057259257E+03  0.00000000000E+00 0.  1.
         11    1    5    5    0    0 -0.18520930092E+02  0.52865687712E+02  0.51186132803E+01  0.56249497693E+02  0.00000000000E+00 0. -1.
        -11    1    5    5    0    0  0.69304748840E+02  0.19983855644E+03 -0.89922745301E+02  0.22983623947E+03  0.00000000000E+00 0.  1.
          2    1    6    6  503    0  0.93470726479E+02 -0.44039802470E+03 -0.55741790495E+03  0.71652070286E+03  0.00000000000E+00 0.  1.
         -2    1    6    6    0  503 -0.17510626184E+02 -0.21100180257E+03 -0.24236744364E+03  0.32182349270E+03  0.00000000000E+00 0. -1.
<mgrwt>
<rscale>  0 0.14360230E+04</rscale>
<asrwt>0</asrwt>
<pdfrwt beam="1">  1        2 0.27790806E+00 0.14360230E+04</pdfrwt>
<pdfrwt beam="2">  1       -2 0.43907121E-01 0.14360230E+04</pdfrwt>
<totfact> 0.40869728E+01</totfact>
</mgrwt>
</event>
<event>
12    2  0.3555611E-008  0.1907350E+04  0.7818608E-02  0.8651206E-01
          1   -1    0    0  501    0  0.00000000000E+00  0.00000000000E+00  0.44384210686E+03  0.44384210686E+03  0.00000000000E+00 0. -1.
         -1   -1    0    0    0  501 -0.00000000000E+00 -0.00000000000E+00 -0.20491430640E+04  0.20491430640E+04  0.00000000000E+00 0.  1.
         23    2    1    2    0    0 -0.17365044812E+03  0.66633200339E+02 -0.15620132878E+04  0.15757602503E+04  0.92414250096E+02 0.  0.
        254    2    1    2    0    0  0.17365044812E+03 -0.66633200339E+02 -0.43287669271E+02  0.91722492049E+03  0.89712500296E+03 0.  0.
         23    2    4    4    0    0 -0.18989657312E+03  0.84381608695E+02 -0.34488978874E+03  0.41284750263E+03  0.91176365831E+02 0.  0.
         23    2    4    4    0    0  0.36354702124E+03 -0.15101480903E+03  0.30160211947E+03  0.50437741786E+03  0.91982780888E+02 0.  0.
          4    1    3    3  502    0 -0.40633765662E+02  0.20329481255E+02 -0.14975040735E+03  0.15649145415E+03  0.00000000000E+00 0. -1.
         -4    1    3    3    0  502 -0.13301668246E+03  0.46303719084E+02 -0.14122628805E+04  0.14192687962E+04  0.00000000000E+00 0.  1.
         11    1    5    5    0    0 -0.40137500823E+02 -0.19399205482E+02 -0.73680814589E+02  0.86117423232E+02  0.00000000000E+00 0.  1.
        -11    1    5    5    0    0 -0.14975907230E+03  0.10378081418E+03 -0.27120897415E+03  0.32673007940E+03  0.00000000000E+00 0. -1.
          2    1    6    6  503    0  0.24469314223E+03 -0.12020951095E+03  0.25424196311E+03  0.37277880329E+03  0.00000000000E+00 0. -1.
         -2    1    6    6    0  503  0.11885387902E+03 -0.30805298080E+02  0.47360156358E+02  0.13159861457E+03  0.00000000000E+00 0.  1.
<mgrwt>
<rscale>  0 0.19073500E+04</rscale>
<asrwt>0</asrwt>
<pdfrwt beam="1">  1        1 0.68283401E-01 0.19073500E+04</pdfrwt>
<pdfrwt beam="2">  1       -1 0.31525278E+00 0.19073500E+04</pdfrwt>
<totfact> 0.12836521E+00</totfact>
</mgrwt>
</event>
<event>
12    2  0.3555611E-008  0.2667464E+04  0.7818608E-02  0.8345639E-01
         -1   -1    0    0    0  501 -0.00000000000E+00  0.00000000000E+00  0.24351455976E+04  0.24351455976E+04  0.00000000000E+00 0.  1.
          1   -1    0    0  501    0  0.00000000000E+00 -0.00000000000E+00 -0.73048675174E+03  0.73048675174E+03  0.00000000000E+00 0. -1.
         23    2    1    2    0    0 -0.93566014001E+03 -0.50794191813E+03  0.13169840889E+03  0.10760773767E+04  0.84458036894E+02 0.  0.
        254    2    1    2    0    0  0.93566014001E+03  0.50794191813E+03  0.15729604370E+04  0.20895549726E+04  0.87095956135E+03 0.  0.
         23    2    4    4    0    0  0.98984534488E+03  0.30885160105E+03  0.15431323464E+04  0.18614010781E+04  0.91506374767E+02 0.  0.
         23    2    4    4    0    0 -0.54185204861E+02  0.19909031708E+03  0.29828090537E+02  0.22815389454E+03  0.92690311405E+02 0.  0.
          3    1    3    3  502    0 -0.13562396706E+03 -0.64323582473E+02  0.47366307149E+02  0.15740060596E+03  0.00000000000E+00 0. -1.
         -3    1    3    3    0  502 -0.80003617296E+03 -0.44361833566E+03  0.84332101743E+02  0.91867677077E+03  0.00000000000E+00 0.  1.
         11    1    5    5    0    0  0.93903168353E+03  0.31137618121E+03  0.14513316635E+04  0.17564450536E+04  0.00000000000E+00 0.  1.
        -11    1    5    5    0    0  0.50813661342E+02 -0.25245801525E+01  0.91800682917E+02  0.10495602445E+03  0.00000000000E+00 0. -1.
          1    1    6    6  503    0  0.68902992873E+01  0.59723896834E+02  0.45202145780E+02  0.75217378713E+02  0.00000000000E+00 0. -1.
         -1    1    6    6    0  503 -0.61075504148E+02  0.13936642024E+03 -0.15374055243E+02  0.15293651583E+03  0.00000000000E+00 0.  1.
<mgrwt>
<rscale>  0 0.26674644E+04</rscale>
<asrwt>0</asrwt>
<pdfrwt beam="1">  1        1 0.11238258E+00 0.26674644E+04</pdfrwt>
<pdfrwt beam="2">  1       -1 0.37463778E+00 0.26674644E+04</pdfrwt>
<totfact> 0.23758905E-01</totfact>
</mgrwt>
</event>
<event>
12    2  0.3555611E-008  0.2039641E+04  0.7818608E-02  0.8588308E-01
          1   -1    0    0  501    0  0.00000000000E+00  0.00000000000E+00  0.49486853856E+04  0.49486853856E+04  0.00000000000E+00 0. -1.
         -1   -1    0    0    0  501 -0.00000000000E+00 -0.00000000000E+00 -0.21016366070E+03  0.21016366070E+03  0.00000000000E+00 0.  1.
         23    2    1    2    0    0 -0.20463319332E+03  0.14089555854E+03 -0.59136559124E+02  0.27079924717E+03  0.90048861270E+02 0.  0.
        254    2    1    2    0    0  0.20463319332E+03 -0.14089555854E+03  0.47976582840E+04  0.48880497991E+04  0.90209729317E+03 0.  0.
         23    2    4    4    0    0  0.85923390049E+02  0.22414845941E+03  0.41957090413E+03  0.49207599399E+03  0.92052590730E+02 0.  0.
         23    2    4    4    0    0  0.11870980327E+03 -0.36504401796E+03  0.43780873798E+04  0.43959738051E+04  0.97915458775E+02 0.  0.
          1    1    3    3  502    0 -0.12314881581E+02 -0.12997693272E+02 -0.52923723615E+01  0.18670981334E+02  0.00000000000E+00 0. -1.
         -1    1    3    3    0  502 -0.19231831174E+03  0.15389325182E+03 -0.53844186762E+02  0.25212826584E+03  0.00000000000E+00 0.  1.
         11    1    5    5    0    0  0.55558237073E+02  0.44897826368E+02  0.15944241111E+03  0.17471237786E+03  0.00000000000E+00 0.  1.
        -11    1    5    5    0    0  0.30365152976E+02  0.17925063304E+03  0.26012849302E+03  0.31736361613E+03  0.00000000000E+00 0. -1.
          3    1    6    6  503    0  0.11686621874E+03 -0.21147496417E+03  0.25257244110E+04  0.25372550471E+04  0.00000000000E+00 0. -1.
         -3    1    6    6    0  503  0.18435845378E+01 -0.15356905378E+03  0.18523629688E+04  0.18587187580E+04  0.00000000000E+00 0.  1.
<mgrwt>
<rscale>  0 0.20396410E+04</rscale>
<asrwt>0</asrwt>
<pdfrwt beam="1">  1        1 0.76133613E+00 0.20396410E+04</pdfrwt>
<pdfrwt beam="2">  1       -1 0.32332875E-01 0.20396410E+04</pdfrwt>
<totfact> 0.84586752E-02</totfact>
</mgrwt>
</event>
<event>
12    2  0.3565545E-008  0.1617354E+04  0.7818608E-02  0.8809957E-01
          2   -1    0    0  501    0  0.00000000000E+00  0.00000000000E+00  0.15419892324E+04  0.15419892324E+04  0.00000000000E+00 0. -1.
         -2   -1    0    0    0  501 -0.00000000000E+00 -0.00000000000E+00 -0.42410076353E+03  0.42410076353E+03  0.00000000000E+00 0.  1.
         23    2    1    2    0    0  0.42537201397E+02  0.47220179246E+03  0.28702783042E+02  0.48339560005E+03  0.89797049465E+02 0.  0.
        254    2    1    2    0    0 -0.42537201397E+02 -0.47220179246E+03  0.10891856858E+04  0.14826943959E+04  0.88728420870E+03 0.  0.
         23    2    4    4    0    0 -0.43444397971E+03 -0.10457884083E+03  0.56571347893E+03  0.72682758537E+03  0.92565075282E+02 0.  0.
         23    2    4    4    0    0  0.39190677831E+03 -0.36762295163E+03  0.52347220689E+03  0.75586681049E+03  0.92595498600E+02 0.  0.
          1    1    3    3  502    0 -0.26308585158E+01  0.31506303100E+02  0.25114291348E+02  0.40376926350E+02  0.00000000000E+00 0. -1.
         -1    1    3    3    0  502  0.45168059912E+02  0.44069548936E+03  0.35884916944E+01  0.44301867370E+03  0.00000000000E+00 0.  1.
         11    1    5    5    0    0 -0.39810220618E+03 -0.68208993573E+02  0.48541195442E+03  0.63147652281E+03  0.00000000000E+00 0. -1.
        -11    1    5    5    0    0 -0.36341773528E+02 -0.36369847259E+02  0.80301524509E+02  0.95351062560E+02  0.00000000000E+00 0.  1.
          3    1    6    6  503    0  0.35487689343E+03 -0.30064319216E+03  0.41650928486E+03  0.62434279275E+03  0.00000000000E+00 0. -1.
         -3    1    6    6    0  503  0.37029884879E+02 -0.66979759466E+02  0.10696292204E+03  0.13152401774E+03  0.00000000000E+00 0.  1.
<mgrwt>
<rscale>  0 0.16173544E+04</rscale>
<asrwt>0</asrwt>
<pdfrwt beam="1">  1        2 0.23722911E+00 0.16173544E+04</pdfrwt>
<pdfrwt beam="2">  1       -2 0.65246272E-01 0.16173544E+04</pdfrwt>
<totfact> 0.24924405E+01</totfact>
</mgrwt>
</event>
<event>
12    2  0.3555611E-008  0.2175435E+04  0.7818608E-02  0.8528723E-01
          1   -1    0    0  501    0  0.00000000000E+00  0.00000000000E+00  0.10228386136E+04  0.10228386136E+04  0.00000000000E+00 0.  1.
         -1   -1    0    0    0  501 -0.00000000000E+00 -0.00000000000E+00 -0.11567115933E+04  0.11567115933E+04  0.00000000000E+00 0. -1.
         23    2    1    2    0    0 -0.16494133280E+02 -0.87204015049E+03 -0.27856686603E+03  0.92012030557E+03  0.91081267941E+02 0.  0.
        254    2    1    2    0    0  0.16494133280E+02  0.87204015049E+03  0.14469388636E+03  0.12594299014E+04  0.89693995074E+03 0.  0.
         23    2    4    4    0    0 -0.24436628524E+03  0.60265638269E+03 -0.25486799302E+03  0.70385181459E+03  0.86833669020E+02 0.  0.
         23    2    4    4    0    0  0.26086041852E+03  0.26938376780E+03  0.39956187938E+03  0.55557808679E+03  0.91659929937E+02 0.  0.
          2    1    3    3  502    0  0.64722406419E+01 -0.76054263546E+03 -0.26529368030E+03  0.80551084851E+03  0.00000000000E+00 0. -1.
         -2    1    3    3    0  502 -0.22966373922E+02 -0.11149751503E+03 -0.13273185729E+02  0.11460945706E+03  0.00000000000E+00 0.  1.
         11    1    5    5    0    0 -0.17791142782E+03  0.48439806261E+03 -0.16767495559E+03  0.54259455391E+03  0.00000000000E+00 0.  1.
        -11    1    5    5    0    0 -0.66454857421E+02  0.11825832008E+03 -0.87193037433E+02  0.16125726067E+03  0.00000000000E+00 0. -1.
          3    1    6    6  503    0  0.40565061324E+02  0.34967090944E+02  0.11180613693E+03  0.12397110108E+03  0.00000000000E+00 0. -1.
         -3    1    6    6    0  503  0.22029535720E+03  0.23441667686E+03  0.28775574245E+03  0.43160698570E+03  0.00000000000E+00 0.  1.
<mgrwt>
<rscale>  0 0.21754349E+04</rscale>
<asrwt>0</asrwt>
<pdfrwt beam="1">  1        1 0.15735979E+00 0.21754349E+04</pdfrwt>
<pdfrwt beam="2">  1       -1 0.17795563E+00 0.21754349E+04</pdfrwt>
<totfact> 0.28569418E+00</totfact>
</mgrwt>
</event>
<event>
12    2  0.3555611E-008  0.3675510E+04  0.7818608E-02  0.8073411E-01
         -2   -1    0    0    0  501 -0.00000000000E+00  0.00000000000E+00  0.12852824774E+04  0.12852824774E+04  0.00000000000E+00 0.  1.
          2   -1    0    0  501    0  0.00000000000E+00 -0.00000000000E+00 -0.26277057326E+04  0.26277057326E+04  0.00000000000E+00 0. -1.
         23    2    1    2    0    0 -0.84128610046E+03 -0.11842799059E+04 -0.16247366005E+04  0.21813591095E+04  0.90979917253E+02 0.  0.
        254    2    1    2    0    0  0.84128610046E+03  0.11842799059E+04  0.28231334524E+03  0.17316291005E+04  0.89919815301E+03 0.  0.
         23    2    4    4    0    0  0.13564574814E+03  0.21979484906E+03  0.44446739384E+03  0.52215208419E+03  0.91553209546E+02 0.  0.
         23    2    4    4    0    0  0.70564035232E+03  0.96448505681E+03 -0.16215404860E+03  0.12094770163E+04  0.91547723916E+02 0.  0.
          3    1    3    3  502    0 -0.73848688938E+03 -0.10710234829E+04 -0.14840990382E+04  0.19735764849E+04  0.00000000000E+00 0. -1.
         -3    1    3    3    0  502 -0.10279921108E+03 -0.11325642299E+03 -0.14063756229E+03  0.20778262457E+03  0.00000000000E+00 0.  1.
         11    1    5    5    0    0  0.99263208778E+01  0.54719251759E+01  0.81490051877E+02  0.82274554792E+02  0.00000000000E+00 0. -1.
        -11    1    5    5    0    0  0.12571942726E+03  0.21432292388E+03  0.36297734197E+03  0.43987752940E+03  0.00000000000E+00 0.  1.
          4    1    6    6  503    0 -0.26331307741E+01  0.75858341827E+01 -0.50881313343E+00  0.80459398908E+01  0.00000000000E+00 0. -1.
         -4    1    6    6    0  503  0.70827348310E+03  0.95689922263E+03 -0.16164523547E+03  0.12014310764E+04  0.00000000000E+00 0.  1.
<mgrwt>
<rscale>  0 0.36755104E+04</rscale>
<asrwt>0</asrwt>
<pdfrwt beam="1">  1        2 0.40426242E+00 0.36755104E+04</pdfrwt>
<pdfrwt beam="2">  1       -2 0.19773577E+00 0.36755104E+04</pdfrwt>
<totfact> 0.32674794E-01</totfact>
</mgrwt>
</event>
<event>
12    2  0.3555611E-008  0.1214153E+04  0.7818608E-02  0.9100558E-01
         -1   -1    0    0    0  501 -0.00000000000E+00  0.00000000000E+00  0.15621953733E+03  0.15621953733E+03  0.00000000000E+00 0.  1.
          1   -1    0    0  501    0  0.00000000000E+00 -0.00000000000E+00 -0.23591274425E+04  0.23591274425E+04  0.00000000000E+00 0. -1.
         23    2    1    2    0    0 -0.22606138045E+03  0.46794196100E+02 -0.72418739519E+03  0.76565444652E+03  0.92118964333E+02 0.  0.
        254    2    1    2    0    0  0.22606138045E+03 -0.46794196100E+02 -0.14787205100E+04  0.17496925333E+04  0.90637529202E+03 0.  0.
         23    2    4    4    0    0  0.46765480903E+02 -0.45185010900E+03 -0.56590517739E+03  0.73101566769E+03  0.88202638245E+02 0.  0.
         23    2    4    4    0    0  0.17929589955E+03  0.40505591290E+03 -0.91281533257E+03  0.10186768656E+04  0.90848296572E+02 0.  0.
          3    1    3    3  502    0 -0.19357305402E+03  0.65683746259E+02 -0.53395278824E+03  0.57174335312E+03  0.00000000000E+00 0. -1.
         -3    1    3    3    0  502 -0.32488326433E+02 -0.18889550159E+02 -0.19023460695E+03  0.19391109339E+03  0.00000000000E+00 0.  1.
         11    1    5    5    0    0  0.10239928484E+02 -0.88577898075E+02 -0.61417538177E+02  0.10827286899E+03  0.00000000000E+00 0. -1.
        -11    1    5    5    0    0  0.36525552419E+02 -0.36327221093E+03 -0.50448763922E+03  0.62274279870E+03  0.00000000000E+00 0.  1.
          4    1    6    6  503    0  0.62945521091E+01  0.47357280717E+01 -0.63046445501E+02  0.63536625634E+02  0.00000000000E+00 0. -1.
         -4    1    6    6    0  503  0.17300134744E+03  0.40032018483E+03 -0.84976888707E+03  0.95514023998E+03  0.00000000000E+00 0.  1.
<mgrwt>
<rscale>  0 0.12141529E+04</rscale>
<asrwt>0</asrwt>
<pdfrwt beam="1">  1        1 0.36294265E+00 0.12141529E+04</pdfrwt>
<pdfrwt beam="2">  1       -1 0.24033777E-01 0.12141529E+04</pdfrwt>
<totfact> 0.25232976E+01</totfact>
</mgrwt>
</event>
<event>
12    2  0.3555611E-008  0.3325485E+04  0.7818608E-02  0.8156441E-01
         -2   -1    0    0    0  501 -0.00000000000E+00  0.00000000000E+00  0.25280749029E+04  0.25280749029E+04  0.00000000000E+00 0.  1.
          2   -1    0    0  501    0  0.00000000000E+00 -0.00000000000E+00 -0.10936040982E+04  0.10936040982E+04  0.00000000000E+00 0. -1.
         23    2    1    2    0    0  0.11457173285E+04 -0.96656957092E+03  0.28211900309E+03  0.15286355160E+04  0.10104690309E+03 0.  0.
        254    2    1    2    0    0 -0.11457173285E+04  0.96656957092E+03  0.11523518017E+04  0.20930434851E+04  0.89777025081E+03 0.  0.
         23    2    4    4    0    0 -0.11585945644E+04  0.63758547353E+03  0.11485375011E+04  0.17538287563E+04  0.88996146731E+02 0.  0.
         23    2    4    4    0    0  0.12877235898E+02  0.32898409738E+03  0.38143006168E+01  0.33921472882E+03  0.81582619601E+02 0.  0.
          2    1    3    3  502    0  0.91908893423E+03 -0.80049907692E+03  0.26403557664E+03  0.12470918278E+04  0.00000000000E+00 0.  1.
         -2    1    3    3    0  502  0.22662839429E+03 -0.16607049399E+03  0.18083426450E+02  0.28154368824E+03  0.00000000000E+00 0. -1.
         11    1    5    5    0    0 -0.78817214029E+02  0.20953719066E+02  0.60210421320E+02  0.10137310494E+03  0.00000000000E+00 0. -1.
        -11    1    5    5    0    0 -0.10797773504E+04  0.61663175447E+03  0.10883270797E+04  0.16524556513E+04  0.00000000000E+00 0.  1.
          3    1    6    6  503    0 -0.14003882019E+02  0.11058336759E+03  0.35305048173E+02  0.11692406222E+03  0.00000000000E+00 0. -1.
         -3    1    6    6    0  503  0.26881117917E+02  0.21840072979E+03 -0.31490747556E+02  0.22229066660E+03  0.00000000000E+00 0.  1.
<mgrwt>
<rscale>  0 0.33254853E+04</rscale>
<asrwt>0</asrwt>
<pdfrwt beam="1">  1        2 0.16824678E+00 0.33254853E+04</pdfrwt>
<pdfrwt beam="2">  1       -2 0.38893460E+00 0.33254853E+04</pdfrwt>
<totfact> 0.16045966E-01</totfact>
</mgrwt>
</event>
<event>
12    2  0.3555611E-008  0.1890928E+04  0.7818608E-02  0.8659385E-01
         -2   -1    0    0    0  501 -0.00000000000E+00  0.00000000000E+00  0.69009360724E+03  0.69009360724E+03  0.00000000000E+00 0.  1.
          2   -1    0    0  501    0  0.00000000000E+00 -0.00000000000E+00 -0.12953344072E+04  0.12953344072E+04  0.00000000000E+00 0. -1.
         23    2    1    2    0    0  0.34917690683E+03 -0.10471669036E+02  0.43390142563E+03  0.56470493704E+03  0.92666340354E+02 0.  0.
        254    2    1    2    0    0 -0.34917690683E+03  0.10471669036E+02 -0.10391422256E+04  0.14207230774E+04  0.90366107006E+03 0.  0.
         23    2    4    4    0    0 -0.86141087187E+02  0.40806516421E+03 -0.25166148998E+03  0.49553654352E+03  0.91024695996E+02 0.  0.
         23    2    4    4    0    0 -0.26303581965E+03 -0.39759349517E+03 -0.78748073562E+03  0.92518653389E+03  0.92605527380E+02 0.  0.
          4    1    3    3  502    0  0.74443046591E+02  0.13615650450E+02  0.45345293697E+02  0.88223289347E+02  0.00000000000E+00 0. -1.
         -4    1    3    3    0  502  0.27473386024E+03 -0.24087319486E+02  0.38855613194E+03  0.47648164769E+03  0.00000000000E+00 0.  1.
         11    1    5    5    0    0 -0.38396015502E+02  0.42307526723E+02 -0.23256221095E+02  0.61684946652E+02  0.00000000000E+00 0.  1.
        -11    1    5    5    0    0 -0.47745071685E+02  0.36575763749E+03 -0.22840526888E+03  0.43385159687E+03  0.00000000000E+00 0. -1.
          1    1    6    6  503    0 -0.10916274247E+03 -0.90034126775E+02 -0.24273994452E+03  0.28097211427E+03  0.00000000000E+00 0. -1.
         -1    1    6    6    0  503 -0.15387307717E+03 -0.30755936840E+03 -0.54474079110E+03  0.64421441963E+03  0.00000000000E+00 0.  1.
<mgrwt>
<rscale>  0 0.18909278E+04</rscale>
<asrwt>0</asrwt>
<pdfrwt beam="1">  1        2 0.19928222E+00 0.18909278E+04</pdfrwt>
<pdfrwt beam="2">  1       -2 0.10616825E+00 0.18909278E+04</pdfrwt>
<totfact> 0.11161990E+01</totfact>
</mgrwt>
</event>
<event>
12    2  0.3555611E-008  0.1368820E+04  0.7818608E-02  0.8976702E-01
          2   -1    0    0  501    0  0.00000000000E+00  0.00000000000E+00  0.10952734370E+04  0.10952734370E+04  0.00000000000E+00 0.  1.
         -2   -1    0    0    0  501 -0.00000000000E+00 -0.00000000000E+00 -0.42767147036E+03  0.42767147036E+03  0.00000000000E+00 0. -1.
         23    2    1    2    0    0  0.36903715510E+03 -0.65952559796E-01  0.10372472026E+03  0.39418561796E+03  0.91842569761E+02 0.  0.
        254    2    1    2    0    0 -0.36903715510E+03  0.65952559796E-01  0.56387724636E+03  0.11287592894E+04  0.90551176590E+03 0.  0.
         23    2    4    4    0    0  0.20720659236E+03  0.58103449132E+02 -0.90363285577E+02  0.25020352085E+03  0.90142641101E+02 0.  0.
         23    2    4    4    0    0 -0.57624374747E+03 -0.58037496572E+02  0.65424053194E+03  0.87855576853E+03  0.91675281754E+02 0.  0.
          4    1    3    3  502    0  0.37431956407E+03  0.27040235125E+01  0.10209796514E+03  0.38800314725E+03  0.00000000000E+00 0. -1.
         -4    1    3    3    0  502 -0.52824089668E+01 -0.27699760723E+01  0.16267551183E+01  0.61824707155E+01  0.00000000000E+00 0.  1.
         11    1    5    5    0    0  0.12349629832E+03 -0.10509795790E+02 -0.60512598282E+02  0.13792594410E+03  0.00000000000E+00 0. -1.
        -11    1    5    5    0    0  0.83710294044E+02  0.68613244921E+02 -0.29850687295E+02  0.11227757674E+03  0.00000000000E+00 0.  1.
          3    1    6    6  503    0 -0.10079516738E+03  0.19990058113E+02  0.14256930300E+03  0.17574206767E+03  0.00000000000E+00 0. -1.
         -3    1    6    6    0  503 -0.47544858008E+03 -0.78027554685E+02  0.51167122894E+03  0.70281370086E+03  0.00000000000E+00 0.  1.
<mgrwt>
<rscale>  0 0.13688202E+04</rscale>
<asrwt>0</asrwt>
<pdfrwt beam="1">  1        2 0.16850360E+00 0.13688202E+04</pdfrwt>
<pdfrwt beam="2">  1       -2 0.65795611E-01 0.13688202E+04</pdfrwt>
<totfact> 0.45506504E+01</totfact>
</mgrwt>
</event>
<event>
12    2  0.3555611E-008  0.1930482E+04  0.7818608E-02  0.8639831E-01
         -2   -1    0    0    0  501 -0.00000000000E+00  0.00000000000E+00  0.78796081966E+03  0.78796081966E+03  0.00000000000E+00 0.  1.
          2   -1    0    0  501    0  0.00000000000E+00 -0.00000000000E+00 -0.11824062859E+04  0.11824062859E+04  0.00000000000E+00 0. -1.
         23    2    1    2    0    0 -0.56388696927E+03  0.46842046868E+03 -0.10754748897E+02  0.74085850888E+03  0.10662746348E+03 0.  0.
        254    2    1    2    0    0  0.56388696927E+03 -0.46842046868E+03 -0.38369071738E+03  0.12295085967E+04  0.90944300160E+03 0.  0.
         23    2    4    4    0    0  0.69011424097E+03 -0.41974418636E+02 -0.13016170773E+03  0.70947625164E+03  0.91624036545E+02 0.  0.
         23    2    4    4    0    0 -0.12622727169E+03 -0.42644605004E+03 -0.25352900964E+03  0.52003234506E+03  0.91471981866E+02 0.  0.
          2    1    3    3  502    0 -0.27512868864E+03  0.24700737300E+03  0.45972469573E+02  0.37258811789E+03  0.00000000000E+00 0. -1.
         -2    1    3    3    0  502 -0.28875828063E+03  0.22141309567E+03 -0.56727218470E+02  0.36827039100E+03  0.00000000000E+00 0.  1.
         11    1    5    5    0    0  0.68168676465E+03 -0.43747757278E+02 -0.11595188648E+03  0.69286041260E+03  0.00000000000E+00 0. -1.
        -11    1    5    5    0    0  0.84274763122E+01  0.17733386415E+01 -0.14209821249E+02  0.16615839035E+02  0.00000000000E+00 0.  1.
          3    1    6    6  503    0 -0.11847285989E+03 -0.38319356381E+03 -0.25632793244E+03  0.47600119204E+03  0.00000000000E+00 0. -1.
         -3    1    6    6    0  503 -0.77544118080E+01 -0.43252486229E+02  0.27989227984E+01  0.44031153020E+02  0.00000000000E+00 0.  1.
<mgrwt>
<rscale>  0 0.19304816E+04</rscale>
<asrwt>0</asrwt>
<pdfrwt beam="1">  1        2 0.18190866E+00 0.19304816E+04</pdfrwt>
<pdfrwt beam="2">  1       -2 0.12122474E+00 0.19304816E+04</pdfrwt>
<totfact> 0.93887877E+00</totfact>
</mgrwt>
</event>
<event>
12    2  0.3555611E-008  0.1036958E+04  0.7818608E-02  0.9268914E-01
          2   -1    0    0  501    0  0.00000000000E+00  0.00000000000E+00  0.16990046786E+04  0.16990046786E+04  0.00000000000E+00 0. -1.
         -2   -1    0    0    0  501 -0.00000000000E+00 -0.00000000000E+00 -0.15822225497E+03  0.15822225497E+03  0.00000000000E+00 0.  1.
         23    2    1    2    0    0  0.44027280173E+02 -0.95952882408E+02  0.23857976250E+03  0.27625824586E+03  0.90845794009E+02 0.  0.
        254    2    1    2    0    0 -0.44027280173E+02  0.95952882408E+02  0.13022026611E+04  0.15809686877E+04  0.89027235375E+03 0.  0.
         23    2    4    4    0    0 -0.45836481730E+02 -0.18576168337E+03 -0.31515473340E+02  0.21442739590E+03  0.91528667580E+02 0.  0.
         23    2    4    4    0    0  0.18092015575E+01  0.28171456578E+03  0.13337181345E+04  0.13665412918E+04  0.96253156999E+02 0.  0.
          2    1    3    3  502    0 -0.25702319888E+02 -0.24515451491E+02  0.94669757862E+02  0.10111369671E+03  0.00000000000E+00 0. -1.
         -2    1    3    3    0  502  0.69729600061E+02 -0.71437430917E+02  0.14391000463E+03  0.17514454914E+03  0.00000000000E+00 0.  1.
         11    1    5    5    0    0  0.10433913895E+02 -0.78684898653E+02  0.21685982871E+02  0.82282815267E+02  0.00000000000E+00 0. -1.
        -11    1    5    5    0    0 -0.56270395625E+02 -0.10707678472E+03 -0.53201456211E+02  0.13214458064E+03  0.00000000000E+00 0.  1.
          2    1    6    6  503    0 -0.54017304241E+01  0.24934709443E+03  0.97873148284E+03  0.10100091424E+04  0.00000000000E+00 0. -1.
         -2    1    6    6    0  503  0.72109319816E+01  0.32367471342E+02  0.35498665164E+03  0.35653214944E+03  0.00000000000E+00 0.  1.
<mgrwt>
<rscale>  0 0.10369578E+04</rscale>
<asrwt>0</asrwt>
<pdfrwt beam="1">  1        2 0.26138532E+00 0.10369578E+04</pdfrwt>
<pdfrwt beam="2">  1       -2 0.24341887E-01 0.10369578E+04</pdfrwt>
<totfact> 0.14734748E+02</totfact>
</mgrwt>
</event>
<event>
12    2  0.3555611E-008  0.1428273E+04  0.7818608E-02  0.8933603E-01
          2   -1    0    0  501    0  0.00000000000E+00  0.00000000000E+00  0.39880960091E+03  0.39880960091E+03  0.00000000000E+00 0. -1.
         -2   -1    0    0    0  501 -0.00000000000E+00 -0.00000000000E+00 -0.12787834772E+04  0.12787834772E+04  0.00000000000E+00 0.  1.
         23    2    1    2    0    0 -0.11483415827E+03  0.30301413006E+03 -0.58344623260E+03  0.67323150681E+03  0.88468686637E+02 0.  0.
        254    2    1    2    0    0  0.11483415827E+03 -0.30301413006E+03 -0.29652764372E+03  0.10043615713E+04  0.90322149860E+03 0.  0.
         23    2    4    4    0    0  0.11697328563E+03 -0.41374362424E+03  0.20351265783E+03  0.48436220889E+03  0.91229443450E+02 0.  0.
         23    2    4    4    0    0 -0.21391273639E+01  0.11072949418E+03 -0.50004030155E+03  0.51999936243E+03  0.89963531546E+02 0.  0.
          1    1    3    3  502    0  0.36334711343E+01  0.89474256792E+01 -0.52027425310E+00  0.96710508254E+01  0.00000000000E+00 0. -1.
         -1    1    3    3    0  502 -0.11846762940E+03  0.29406670438E+03 -0.58292595834E+03  0.66356045599E+03  0.00000000000E+00 0.  1.
         11    1    5    5    0    0 -0.12734782486E+02 -0.31781828252E+02  0.44236188081E+01  0.34522857578E+02  0.00000000000E+00 0. -1.
        -11    1    5    5    0    0  0.12970806812E+03 -0.38196179599E+03  0.19908903902E+03  0.44983935131E+03  0.00000000000E+00 0.  1.
          4    1    6    6  503    0  0.12268124953E+02  0.14772105820E+02 -0.26530865176E+03  0.26600263664E+03  0.00000000000E+00 0. -1.
         -4    1    6    6    0  503 -0.14407252317E+02  0.95957388361E+02 -0.23473164979E+03  0.25399672579E+03  0.00000000000E+00 0.  1.
<mgrwt>
<rscale>  0 0.14282733E+04</rscale>
<asrwt>0</asrwt>
<pdfrwt beam="1">  1        2 0.61355322E-01 0.14282733E+04</pdfrwt>
<pdfrwt beam="2">  1       -2 0.19673592E+00 0.14282733E+04</pdfrwt>
<totfact> 0.10820091E+01</totfact>
</mgrwt>
</event>
<event>
12    2  0.3555611E-008  0.1163871E+04  0.7818608E-02  0.9145081E-01
          2   -1    0    0  501    0  0.00000000000E+00  0.00000000000E+00  0.15604315697E+04  0.15604315697E+04  0.00000000000E+00 0. -1.
         -2   -1    0    0    0  501 -0.00000000000E+00 -0.00000000000E+00 -0.21702269937E+03  0.21702269937E+03  0.00000000000E+00 0.  1.
         23    2    1    2    0    0 -0.46601410800E+02 -0.21615535681E+03  0.20599659786E+03  0.31538623183E+03  0.90216667707E+02 0.  0.
        254    2    1    2    0    0  0.46601410800E+02  0.21615535681E+03  0.11374122725E+04  0.14620680372E+04  0.89165096208E+03 0.  0.
         23    2    4    4    0    0  0.27136181895E+03 -0.25824418911E+03  0.51302955169E+03  0.64130922906E+03  0.88039243338E+02 0.  0.
         23    2    4    4    0    0 -0.22476040815E+03  0.47439954592E+03  0.62438272078E+03  0.82075880819E+03  0.90659080974E+02 0.  0.
          2    1    3    3  502    0 -0.22296114799E+02 -0.18351448830E+03  0.12041930130E+03  0.22062523037E+03  0.00000000000E+00 0.  1.
         -2    1    3    3    0  502 -0.24305296002E+02 -0.32640868512E+02  0.85577296562E+02  0.94761001461E+02  0.00000000000E+00 0. -1.
         11    1    5    5    0    0  0.94263917009E+02 -0.13894694182E+03  0.18429826793E+03  0.24931464107E+03  0.00000000000E+00 0.  1.
        -11    1    5    5    0    0  0.17709790194E+03 -0.11929724729E+03  0.32873128377E+03  0.39199458799E+03  0.00000000000E+00 0. -1.
          3    1    6    6  503    0 -0.21609720490E+03  0.47012834247E+03  0.58857073473E+03  0.78366712968E+03  0.00000000000E+00 0. -1.
         -3    1    6    6    0  503 -0.86632032516E+01  0.42712034509E+01  0.35811986054E+02  0.37091678510E+02  0.00000000000E+00 0.  1.
<mgrwt>
<rscale>  0 0.11638712E+04</rscale>
<asrwt>0</asrwt>
<pdfrwt beam="1">  1        2 0.24006639E+00 0.11638712E+04</pdfrwt>
<pdfrwt beam="2">  1       -2 0.33388109E-01 0.11638712E+04</pdfrwt>
<totfact> 0.97243061E+01</totfact>
</mgrwt>
</event>
<event>
12    2  0.3555611E-008  0.1188025E+04  0.7818608E-02  0.9123404E-01
         -2   -1    0    0    0  501 -0.00000000000E+00  0.00000000000E+00  0.23466080996E+03  0.23466080996E+03  0.00000000000E+00 0.  1.
          2   -1    0    0  501    0  0.00000000000E+00 -0.00000000000E+00 -0.15036624719E+04  0.15036624719E+04  0.00000000000E+00 0. -1.
         23    2    1    2    0    0 -0.22581253321E+03 -0.11029996428E+03 -0.35096754999E+03  0.44089356916E+03  0.89730351090E+02 0.  0.
        254    2    1    2    0    0  0.22581253321E+03  0.11029996428E+03 -0.91803411191E+03  0.12974297127E+04  0.88169146892E+03 0.  0.
         23    2    4    4    0    0  0.15909980546E+03  0.48108995913E+03 -0.63466364826E+03  0.81725154387E+03  0.91333688564E+02 0.  0.
         23    2    4    4    0    0  0.66712727749E+02 -0.37078999485E+03 -0.28337046365E+03  0.48017816878E+03  0.91304138889E+02 0.  0.
          2    1    3    3  502    0 -0.20986813605E+03 -0.10967623910E+03 -0.35272625404E+03  0.42484034912E+03  0.00000000000E+00 0. -1.
         -2    1    3    3    0  502 -0.15944397158E+02 -0.62372518263E+00  0.17587040460E+01  0.16053220043E+02  0.00000000000E+00 0.  1.
         11    1    5    5    0    0  0.11004557798E+03  0.36173810684E+03 -0.53028836169E+03  0.65128352790E+03  0.00000000000E+00 0.  1.
        -11    1    5    5    0    0  0.49054227475E+02  0.11935185230E+03 -0.10437528657E+03  0.16596801598E+03  0.00000000000E+00 0. -1.
          3    1    6    6  503    0 -0.17702571248E+02 -0.59064870947E+02 -0.24777848384E+02  0.66452853808E+02  0.00000000000E+00 0. -1.
         -3    1    6    6    0  503  0.84415298997E+02 -0.31172512390E+03 -0.25859261527E+03  0.41372531497E+03  0.00000000000E+00 0.  1.
<mgrwt>
<rscale>  0 0.11880247E+04</rscale>
<asrwt>0</asrwt>
<pdfrwt beam="1">  1        2 0.23133269E+00 0.11880247E+04</pdfrwt>
<pdfrwt beam="2">  1       -2 0.36101663E-01 0.11880247E+04</pdfrwt>
<totfact> 0.89997205E+01</totfact>
</mgrwt>
</event>
<event>
12    2  0.3555611E-008  0.2292245E+04  0.7818608E-02  0.8480985E-01
          1   -1    0    0  501    0  0.00000000000E+00  0.00000000000E+00  0.13390599201E+04  0.13390599201E+04  0.00000000000E+00 0. -1.
         -1   -1    0    0    0  501 -0.00000000000E+00 -0.00000000000E+00 -0.98098454859E+03  0.98098454859E+03  0.00000000000E+00 0.  1.
         23    2    1    2    0    0  0.97035803238E+03 -0.10263787026E+02  0.64033113092E+02  0.97681450853E+03  0.91467415947E+02 0.  0.
        254    2    1    2    0    0 -0.97035803238E+03  0.10263787026E+02  0.29404225841E+03  0.13432299602E+04  0.88096868265E+03 0.  0.
         23    2    4    4    0    0  0.10611582620E+03  0.12690286745E+03 -0.61797284791E+02  0.19887839107E+03  0.91481165758E+02 0.  0.
         23    2    4    4    0    0 -0.10764738586E+04 -0.11663908042E+03  0.35583954320E+03  0.11443515691E+04  0.10255773926E+03 0.  0.
          4    1    3    3  502    0  0.83224796185E+03 -0.40329609026E+02  0.48823220775E+02  0.83465373315E+03  0.00000000000E+00 0.  1.
         -4    1    3    3    0  502  0.13811007053E+03  0.30065822000E+02  0.15209892317E+02  0.14216077538E+03  0.00000000000E+00 0. -1.
         11    1    5    5    0    0  0.23496618212E+01  0.12283207133E+02  0.20283437482E+02  0.23828888439E+02  0.00000000000E+00 0. -1.
        -11    1    5    5    0    0  0.10376616438E+03  0.11461966031E+03 -0.82080722273E+02  0.17504950263E+03  0.00000000000E+00 0.  1.
          4    1    6    6  503    0 -0.10692863145E+03 -0.14472007541E+02  0.69148243808E+02  0.12815869400E+03  0.00000000000E+00 0. -1.
         -4    1    6    6    0  503 -0.96954522714E+03 -0.10216707288E+03  0.28669129940E+03  0.10161928751E+04  0.00000000000E+00 0.  1.
<mgrwt>
<rscale>  0 0.22922453E+04</rscale>
<asrwt>0</asrwt>
<pdfrwt beam="1">  1        1 0.20600922E+00 0.22922453E+04</pdfrwt>
<pdfrwt beam="2">  1       -1 0.15092070E+00 0.22922453E+04</pdfrwt>
<totfact> 0.26335361E+00</totfact>
</mgrwt>
</event>
<event>
12    2  0.3555611E-008  0.1059292E+04  0.7818608E-02  0.9245803E-01
         -2   -1    0    0    0  501 -0.00000000000E+00  0.00000000000E+00  0.13080991047E+03  0.13080991047E+03  0.00000000000E+00 0.  1.
          2   -1    0    0  501    0  0.00000000000E+00 -0.00000000000E+00 -0.21445216041E+04  0.21445216041E+04  0.00000000000E+00 0. -1.
         23    2    1    2    0    0  0.65297782068E+02  0.35646643043E+02 -0.49233853920E+03  0.50541655662E+03  0.86684341287E+02 0.  0.
        254    2    1    2    0    0 -0.65297782068E+02 -0.35646643043E+02 -0.15213731545E+04  0.17699149580E+04  0.90138127328E+03 0.  0.
         23    2    4    4    0    0 -0.36141736588E+03 -0.28415738560E+03 -0.10760139831E+04  0.11732325224E+04  0.85443125286E+02 0.  0.
         23    2    4    4    0    0  0.29611958381E+03  0.24851074256E+03 -0.44535917139E+03  0.59668243558E+03  0.90778523405E+02 0.  0.
          4    1    3    3  502    0  0.66455978467E+02  0.18785315158E+02 -0.47881854235E+03  0.48377317168E+03  0.00000000000E+00 0. -1.
         -4    1    3    3    0  502 -0.11581963989E+01  0.16861327885E+02 -0.13519996848E+02  0.21643384941E+02  0.00000000000E+00 0.  1.
         11    1    5    5    0    0 -0.24806091834E+03 -0.14229215398E+03 -0.64936911535E+03  0.70955022674E+03  0.00000000000E+00 0. -1.
        -11    1    5    5    0    0 -0.11335644754E+03 -0.14186523162E+03 -0.42664486773E+03  0.46368229565E+03  0.00000000000E+00 0.  1.
          3    1    6    6  503    0  0.15892367990E+03  0.74570944369E+02 -0.19915160211E+03  0.26547866656E+03  0.00000000000E+00 0. -1.
         -3    1    6    6    0  503  0.13719590391E+03  0.17393979819E+03 -0.24620756927E+03  0.33120376902E+03  0.00000000000E+00 0.  1.
<mgrwt>
<rscale>  0 0.10592916E+04</rscale>
<asrwt>0</asrwt>
<pdfrwt beam="1">  1        2 0.32992640E+00 0.10592916E+04</pdfrwt>
<pdfrwt beam="2">  1       -2 0.20124601E-01 0.10592916E+04</pdfrwt>
<totfact> 0.11725385E+02</totfact>
</mgrwt>
</event>
<event>
12    2  0.3555611E-008  0.1798155E+04  0.7818608E-02  0.8707281E-01
          1   -1    0    0  501    0  0.00000000000E+00  0.00000000000E+00  0.89125633358E+03  0.89125633358E+03  0.00000000000E+00 0. -1.
         -1   -1    0    0    0  501 -0.00000000000E+00 -0.00000000000E+00 -0.90696742214E+03  0.90696742214E+03  0.00000000000E+00 0.  1.
         23    2    1    2    0    0  0.47831961168E+03  0.47542670308E+03 -0.11801257077E+02  0.68060092569E+03  0.90874360797E+02 0.  0.
        254    2    1    2    0    0 -0.47831961168E+03 -0.47542670308E+03 -0.39098314860E+01  0.11176228300E+04  0.89120441118E+03 0.  0.
         23    2    4    4    0    0 -0.13776397104E+03  0.23557410890E+03  0.12446636203E+03  0.31369375385E+03  0.91857625840E+02 0.  0.
         23    2    4    4    0    0 -0.34055564064E+03 -0.71100081198E+03 -0.12837619351E+03  0.80392907619E+03  0.91220685480E+02 0.  0.
          3    1    3    3  502    0  0.15171312876E+03  0.94572495976E+02 -0.20844332732E+01  0.17878807370E+03  0.00000000000E+00 0. -1.
         -3    1    3    3    0  502  0.32660648292E+03  0.38085420711E+03 -0.97168238035E+01  0.50181285199E+03  0.00000000000E+00 0.  1.
         11    1    5    5    0    0 -0.70469565094E+02  0.17124326363E+03  0.11965835711E+03  0.22047298558E+03  0.00000000000E+00 0.  1.
        -11    1    5    5    0    0 -0.67294405948E+02  0.64330845271E+02  0.48080049122E+01  0.93220768268E+02  0.00000000000E+00 0. -1.
          1    1    6    6  503    0 -0.11861677504E+02 -0.23980067527E+02  0.12297749080E+02  0.29444484445E+02  0.00000000000E+00 0. -1.
         -1    1    6    6    0  503 -0.32869396314E+03 -0.68702074446E+03 -0.14067394259E+03  0.77448459174E+03  0.00000000000E+00 0.  1.
<mgrwt>
<rscale>  0 0.17981551E+04</rscale>
<asrwt>0</asrwt>
<pdfrwt beam="1">  1        1 0.13711636E+00 0.17981551E+04</pdfrwt>
<pdfrwt beam="2">  1       -1 0.13953345E+00 0.17981551E+04</pdfrwt>
<totfact> 0.73838334E+00</totfact>
</mgrwt>
</event>
<event>
12    2  0.3555611E-008  0.1701125E+04  0.7818608E-02  0.8760723E-01
          2   -1    0    0  501    0  0.00000000000E+00  0.00000000000E+00  0.36459363362E+04  0.36459363362E+04  0.00000000000E+00 0. -1.
         -2   -1    0    0    0  501 -0.00000000000E+00 -0.00000000000E+00 -0.19842818619E+03  0.19842818619E+03  0.00000000000E+00 0.  1.
         23    2    1    2    0    0 -0.34365918790E+02 -0.26774715519E+03  0.23559879777E+04  0.23731844321E+04  0.91953476712E+02 0.  0.
        254    2    1    2    0    0  0.34365918790E+02  0.26774715519E+03  0.10915201722E+04  0.14711800903E+04  0.94872810445E+03 0.  0.
         23    2    4    4    0    0 -0.38386567330E+03 -0.10011265840E+03  0.33639938197E+03  0.52833953850E+03  0.92750871953E+02 0.  0.
         23    2    4    4    0    0  0.41823159209E+03  0.36785981359E+03  0.75512079027E+03  0.94284055179E+03  0.92208411361E+02 0.  0.
          1    1    3    3  502    0 -0.34250985307E+02 -0.26610155051E+03  0.20849808286E+04  0.21021722624E+04  0.00000000000E+00 0. -1.
         -1    1    3    3    0  502 -0.11493348352E+00 -0.16456046860E+01  0.27100714911E+03  0.27101216964E+03  0.00000000000E+00 0.  1.
         11    1    5    5    0    0 -0.11544660307E+03 -0.44716879052E+00  0.13836266726E+03  0.18020084853E+03  0.00000000000E+00 0. -1.
        -11    1    5    5    0    0 -0.26841907023E+03 -0.99665489607E+02  0.19803671470E+03  0.34813868997E+03  0.00000000000E+00 0.  1.
          3    1    6    6  503    0  0.33718067871E+02  0.26125029172E+01  0.37141138335E+02  0.50231438654E+02  0.00000000000E+00 0. -1.
         -3    1    6    6    0  503  0.38451352422E+03  0.36524731067E+03  0.71797965194E+03  0.89260911314E+03  0.00000000000E+00 0.  1.
<mgrwt>
<rscale>  0 0.17011250E+04</rscale>
<asrwt>0</asrwt>
<pdfrwt beam="1">  1        2 0.56091323E+00 0.17011250E+04</pdfrwt>
<pdfrwt beam="2">  1       -2 0.30527416E-01 0.17011250E+04</pdfrwt>
<totfact> 0.61113545E+00</totfact>
</mgrwt>
</event>
<event>
12    2  0.3555611E-008  0.1191200E+04  0.7818608E-02  0.9120594E-01
         -1   -1    0    0    0  501 -0.00000000000E+00  0.00000000000E+00  0.39607575551E+03  0.39607575551E+03  0.00000000000E+00 0.  1.
          1   -1    0    0  501    0  0.00000000000E+00 -0.00000000000E+00 -0.89563565584E+03  0.89563565584E+03  0.00000000000E+00 0. -1.
         23    2    1    2    0    0 -0.13498504718E+03  0.20050794649E+02  0.11368068072E+03  0.19991035861E+03  0.91748880003E+02 0.  0.
        254    2    1    2    0    0  0.13498504718E+03 -0.20050794649E+02 -0.61324058105E+03  0.10918010527E+04  0.89294038502E+03 0.  0.
         23    2    4    4    0    0  0.33822834661E+03 -0.25671914291E+03 -0.62880078253E+03  0.76415252943E+03  0.90749828248E+02 0.  0.
         23    2    4    4    0    0 -0.20324329943E+03  0.23666834826E+03  0.15560201485E+02  0.32764852332E+03  0.98952964218E+02 0.  0.
          4    1    3    3  502    0 -0.56827768685E+02 -0.29686667832E+02  0.17698511271E+02  0.66512636709E+02  0.00000000000E+00 0. -1.
         -4    1    3    3    0  502 -0.78157278493E+02  0.49737462481E+02  0.95982169452E+02  0.13339772190E+03  0.00000000000E+00 0.  1.
         11    1    5    5    0    0  0.26896934877E+03 -0.19645488621E+03 -0.55083422641E+03  0.64370597160E+03  0.00000000000E+00 0. -1.
        -11    1    5    5    0    0  0.69258997843E+02 -0.60264256702E+02 -0.77966556123E+02  0.12044655782E+03  0.00000000000E+00 0.  1.
          2    1    6    6  503    0 -0.17345758505E+03  0.20395226600E+03  0.49004291562E+02  0.27218648241E+03  0.00000000000E+00 0. -1.
         -2    1    6    6    0  503 -0.29785714382E+02  0.32716082267E+02 -0.33444090078E+02  0.55462040904E+02  0.00000000000E+00 0.  1.
<mgrwt>
<rscale>  0 0.11912004E+04</rscale>
<asrwt>0</asrwt>
<pdfrwt beam="1">  1        1 0.13779010E+00 0.11912004E+04</pdfrwt>
<pdfrwt beam="2">  1       -1 0.60934732E-01 0.11912004E+04</pdfrwt>
<totfact> 0.49633057E+01</totfact>
</mgrwt>
</event>
<event>
12    2  0.3555611E-008  0.2341002E+04  0.7818608E-02  0.8461928E-01
          1   -1    0    0  501    0  0.00000000000E+00  0.00000000000E+00  0.19164684606E+04  0.19164684606E+04  0.00000000000E+00 0. -1.
         -1   -1    0    0    0  501 -0.00000000000E+00 -0.00000000000E+00 -0.71489463516E+03  0.71489463516E+03  0.00000000000E+00 0.  1.
         23    2    1    2    0    0  0.46121037505E+02  0.89794812087E+03  0.99420664677E+03  0.13437066269E+04  0.93073437115E+02 0.  0.
        254    2    1    2    0    0 -0.46121037505E+02 -0.89794812087E+03  0.20736717868E+03  0.12876564689E+04  0.89812029109E+03 0.  0.
         23    2    4    4    0    0 -0.37563648272E+02 -0.20460705607E+02  0.37697367096E+03  0.38950693421E+03  0.88186365475E+02 0.  0.
         23    2    4    4    0    0 -0.85573892329E+01 -0.87748741526E+03 -0.16960649228E+03  0.89814953470E+03  0.88593631869E+02 0.  0.
          3    1    3    3  502    0  0.69328453583E+02  0.56154442227E+03  0.65209111681E+03  0.86334315152E+03  0.00000000000E+00 0. -1.
         -3    1    3    3    0  502 -0.23207416078E+02  0.33640369860E+03  0.34211552996E+03  0.48036347533E+03  0.00000000000E+00 0.  1.
         11    1    5    5    0    0  0.22650045412E+02  0.13126734082E+02  0.15087080038E+03  0.15312522363E+03  0.00000000000E+00 0.  1.
        -11    1    5    5    0    0 -0.60213693684E+02 -0.33587439689E+02  0.22610287059E+03  0.23638171059E+03  0.00000000000E+00 0. -1.
          4    1    6    6  503    0  0.34266031782E+02 -0.60239280740E+03 -0.10681109204E+03  0.61274779862E+03  0.00000000000E+00 0. -1.
         -4    1    6    6    0  503 -0.42823421015E+02 -0.27509460786E+03 -0.62795400246E+02  0.28540173607E+03  0.00000000000E+00 0.  1.
<mgrwt>
<rscale>  0 0.23410024E+04</rscale>
<asrwt>0</asrwt>
<pdfrwt beam="1">  1        1 0.29484130E+00 0.23410024E+04</pdfrwt>
<pdfrwt beam="2">  1       -1 0.10998379E+00 0.23410024E+04</pdfrwt>
<totfact> 0.23345261E+00</totfact>
</mgrwt>
</event>
<event>
12    2  0.3555611E-008  0.1378678E+04  0.7818608E-02  0.8969399E-01
         -1   -1    0    0    0  501 -0.00000000000E+00  0.00000000000E+00  0.17639807347E+03  0.17639807347E+03  0.00000000000E+00 0.  1.
          1   -1    0    0  501    0  0.00000000000E+00 -0.00000000000E+00 -0.26938403014E+04  0.26938403014E+04  0.00000000000E+00 0. -1.
         23    2    1    2    0    0  0.69487088038E+02 -0.10179883991E+03  0.37412181846E+02  0.15838476299E+03  0.92166168340E+02 0.  0.
        254    2    1    2    0    0 -0.69487088038E+02  0.10179883991E+03 -0.25548544098E+04  0.27118536119E+04  0.90093146130E+03 0.  0.
         23    2    4    4    0    0 -0.10397243307E+03  0.23091171651E+03 -0.16368297176E+03  0.31484782763E+03  0.90590019649E+02 0.  0.
         23    2    4    4    0    0  0.34485345037E+02 -0.12911287660E+03 -0.23911714380E+04  0.23970057843E+04  0.10038182028E+03 0.  0.
          3    1    3    3  502    0  0.89933534722E+02 -0.72023117066E+02  0.15811453832E+02  0.11629863341E+03  0.00000000000E+00 0. -1.
         -3    1    3    3    0  502 -0.20446446684E+02 -0.29775722843E+02  0.21600728014E+02  0.42086129587E+02  0.00000000000E+00 0.  1.
         11    1    5    5    0    0 -0.92157893175E+02  0.23008532154E+03 -0.13155150111E+03  0.28060315378E+03  0.00000000000E+00 0.  1.
        -11    1    5    5    0    0 -0.11814539900E+02  0.82639496806E+00 -0.32131470648E+02  0.34244673858E+02  0.00000000000E+00 0. -1.
          2    1    6    6  503    0 -0.29723422234E+02 -0.19668411278E+02 -0.32667992373E+03  0.32861847300E+03  0.00000000000E+00 0. -1.
         -2    1    6    6    0  503  0.64208767271E+02 -0.10944446532E+03 -0.20644915143E+04  0.20683873113E+04  0.00000000000E+00 0.  1.
<mgrwt>
<rscale>  0 0.13786780E+04</rscale>
<asrwt>0</asrwt>
<pdfrwt beam="1">  1        1 0.41443694E+00 0.13786780E+04</pdfrwt>
<pdfrwt beam="2">  1       -1 0.27138167E-01 0.13786780E+04</pdfrwt>
<totfact> 0.11831908E+01</totfact>
</mgrwt>
</event>
<event>
12    2  0.3555611E-008  0.1497518E+04  0.7818608E-02  0.8886105E-01
          1   -1    0    0  501    0  0.00000000000E+00  0.00000000000E+00  0.11956233078E+04  0.11956233078E+04  0.00000000000E+00 0. -1.
         -1   -1    0    0    0  501 -0.00000000000E+00 -0.00000000000E+00 -0.46891013230E+03  0.46891013230E+03  0.00000000000E+00 0.  1.
         23    2    1    2    0    0  0.29320375167E+03 -0.19477029594E+03 -0.11749216051E+03  0.38207379946E+03  0.90950933360E+02 0.  0.
        254    2    1    2    0    0 -0.29320375167E+03  0.19477029594E+03  0.84420533597E+03  0.12824596406E+04  0.89895281985E+03 0.  0.
         23    2    4    4    0    0 -0.34783316756E+03 -0.18964043358E+03  0.77853138126E+03  0.87830660311E+03  0.91432876745E+02 0.  0.
         23    2    4    4    0    0  0.54629415893E+02  0.38441072952E+03  0.65673954716E+02  0.40415303750E+03  0.90942989515E+02 0.  0.
          4    1    3    3  502    0  0.80102970985E+02 -0.83462819968E+02 -0.28439823084E+01  0.11571783144E+03  0.00000000000E+00 0. -1.
         -4    1    3    3    0  502  0.21310078069E+03 -0.11130747597E+03 -0.11464817820E+03  0.26635596802E+03  0.00000000000E+00 0.  1.
         11    1    5    5    0    0 -0.33083009900E+03 -0.18413041963E+03  0.68121846736E+03  0.77936587435E+03  0.00000000000E+00 0.  1.
        -11    1    5    5    0    0 -0.17003068564E+02 -0.55100139505E+01  0.97312913900E+02  0.98940728753E+02  0.00000000000E+00 0. -1.
          4    1    6    6  503    0  0.74641648249E+02  0.20479015218E+03  0.39949507003E+02  0.22159951532E+03  0.00000000000E+00 0.  1.
         -4    1    6    6    0  503 -0.20012232356E+02  0.17962057734E+03  0.25724447713E+02  0.18255352218E+03  0.00000000000E+00 0. -1.
<mgrwt>
<rscale>  0 0.14975178E+04</rscale>
<asrwt>0</asrwt>
<pdfrwt beam="1">  1        1 0.18394205E+00 0.14975178E+04</pdfrwt>
<pdfrwt beam="2">  1       -1 0.72140021E-01 0.14975178E+04</pdfrwt>
<totfact> 0.20194994E+01</totfact>
</mgrwt>
</event>
<event>
12    2  0.3555611E-008  0.1511310E+04  0.7818608E-02  0.8876967E-01
         -1   -1    0    0    0  501 -0.00000000000E+00  0.00000000000E+00  0.98491859965E+03  0.98491859965E+03  0.00000000000E+00 0.  1.
          1   -1    0    0  501    0  0.00000000000E+00 -0.00000000000E+00 -0.57975792108E+03  0.57975792108E+03  0.00000000000E+00 0. -1.
         23    2    1    2    0    0  0.33910912861E+03  0.21915273784E+03 -0.13385175298E+03  0.43560499034E+03  0.93874875384E+02 0.  0.
        254    2    1    2    0    0 -0.33910912861E+03 -0.21915273784E+03  0.53901243155E+03  0.11290715304E+04  0.90622579734E+03 0.  0.
         23    2    4    4    0    0  0.79132932310E+02  0.87499956691E+02 -0.18222894046E+03  0.23616114796E+03  0.92986222988E+02 0.  0.
         23    2    4    4    0    0 -0.41824206092E+03 -0.30665269453E+03  0.72124137201E+03  0.89291038244E+03  0.90208302159E+02 0.  0.
          3    1    3    3  502    0  0.25733692670E+03  0.20951189141E+03 -0.11434177121E+03  0.35098656260E+03  0.00000000000E+00 0. -1.
         -3    1    3    3    0  502  0.81772201907E+02  0.96408464366E+01 -0.19509981765E+02  0.84618427740E+02  0.00000000000E+00 0.  1.
         11    1    5    5    0    0  0.44805995984E+02  0.97929906243E+00 -0.10858441590E+03  0.11746962024E+03  0.00000000000E+00 0. -1.
        -11    1    5    5    0    0  0.34326936326E+02  0.86520657629E+02 -0.73644524561E+02  0.11869152772E+03  0.00000000000E+00 0.  1.
          2    1    6    6  503    0 -0.33089441514E+03 -0.23593053273E+03  0.62190837360E+03  0.74291611599E+03  0.00000000000E+00 0. -1.
         -2    1    6    6    0  503 -0.87347645779E+02 -0.70722161806E+02  0.99332998407E+02  0.14999426644E+03  0.00000000000E+00 0.  1.
<mgrwt>
<rscale>  0 0.15113098E+04</rscale>
<asrwt>0</asrwt>
<pdfrwt beam="1">  1        1 0.89193526E-01 0.15113098E+04</pdfrwt>
<pdfrwt beam="2">  1       -1 0.15152594E+00 0.15113098E+04</pdfrwt>
<totfact> 0.11807114E+01</totfact>
</mgrwt>
</event>
<event>
12    2  0.3555611E-008  0.2323769E+04  0.7818608E-02  0.8468608E-01
          1   -1    0    0  501    0  0.00000000000E+00  0.00000000000E+00  0.58199703018E+03  0.58199703018E+03  0.00000000000E+00 0. -1.
         -1   -1    0    0    0  501 -0.00000000000E+00 -0.00000000000E+00 -0.23195570926E+04  0.23195570926E+04  0.00000000000E+00 0.  1.
         23    2    1    2    0    0 -0.75177869228E+03 -0.47790201576E+03 -0.10415750004E+04  0.13736123284E+04  0.91492122609E+02 0.  0.
        254    2    1    2    0    0  0.75177869228E+03  0.47790201576E+03 -0.69598506196E+03  0.15279417943E+04  0.10279345220E+04 0.  0.
         23    2    4    4    0    0  0.10001551084E+04  0.41688026938E+03 -0.52536422411E+03  0.12074637728E+04  0.88666762152E+02 0.  0.
         23    2    4    4    0    0 -0.24837641615E+03  0.61021746385E+02 -0.17062083785E+03  0.32047802152E+03  0.90444426793E+02 0.  0.
          2    1    3    3  502    0 -0.66916415695E+03 -0.40559483915E+03 -0.94905984102E+03  0.12300416352E+04  0.00000000000E+00 0. -1.
         -2    1    3    3    0  502 -0.82614535321E+02 -0.72307176617E+02 -0.92515159403E+02  0.14357069323E+03  0.00000000000E+00 0.  1.
         11    1    5    5    0    0  0.78274923187E+03  0.28632784352E+03 -0.41014171904E+03  0.92892207621E+03  0.00000000000E+00 0.  1.
        -11    1    5    5    0    0  0.21740587655E+03  0.13055242586E+03 -0.11522250507E+03  0.27854169658E+03  0.00000000000E+00 0. -1.
          3    1    6    6  503    0 -0.96498001352E+02 -0.13420227807E+01 -0.21921973030E+02  0.98965843560E+02  0.00000000000E+00 0. -1.
         -3    1    6    6    0  503 -0.15187841480E+03  0.62363769166E+02 -0.14869886482E+03  0.22151217796E+03  0.00000000000E+00 0.  1.
<mgrwt>
<rscale>  0 0.23237688E+04</rscale>
<asrwt>0</asrwt>
<pdfrwt beam="1">  1        1 0.89538005E-01 0.23237688E+04</pdfrwt>
<pdfrwt beam="2">  1       -1 0.35685494E+00 0.23237688E+04</pdfrwt>
<totfact> 0.45192067E-01</totfact>
</mgrwt>
</event>
<event>
12    2  0.3555611E-008  0.1387674E+04  0.7818608E-02  0.8962789E-01
         -2   -1    0    0    0  501 -0.00000000000E+00  0.00000000000E+00  0.85582395854E+03  0.85582395854E+03  0.00000000000E+00 0.  1.
          2   -1    0    0  501    0  0.00000000000E+00 -0.00000000000E+00 -0.56251037106E+03  0.56251037106E+03  0.00000000000E+00 0. -1.
         23    2    1    2    0    0  0.25714044943E+03  0.28350119983E+03 -0.18948791623E+02  0.39374085470E+03  0.90435960275E+02 0.  0.
        254    2    1    2    0    0 -0.25714044943E+03 -0.28350119983E+03  0.31226237911E+03  0.10245934749E+04  0.89765798296E+03 0.  0.
         23    2    4    4    0    0 -0.25407847784E+03 -0.42991780993E+03 -0.15151639712E+03  0.53007671367E+03  0.92945723850E+02 0.  0.
         23    2    4    4    0    0 -0.30619715959E+01  0.14641661009E+03  0.46377877623E+03  0.49451676124E+03  0.89492315231E+02 0.  0.
          1    1    3    3  502    0  0.18768825848E+03  0.24646228340E+03 -0.39740362260E+02  0.31232969103E+03  0.00000000000E+00 0. -1.
         -1    1    3    3    0  502  0.69452190958E+02  0.37038916434E+02  0.20791570636E+02  0.81411163663E+02  0.00000000000E+00 0.  1.
         11    1    5    5    0    0 -0.21398194383E+03 -0.30625686987E+03 -0.14216948666E+03  0.39974204878E+03  0.00000000000E+00 0. -1.
        -11    1    5    5    0    0 -0.40096534008E+02 -0.12366094006E+03 -0.93469104618E+01  0.13033466488E+03  0.00000000000E+00 0.  1.
          4    1    6    6  503    0 -0.68961271365E+01  0.15846078861E+03  0.43729746266E+03  0.46517356862E+03  0.00000000000E+00 0. -1.
         -4    1    6    6    0  503  0.38341555406E+01 -0.12044178512E+02  0.26481313570E+02  0.29343192620E+02  0.00000000000E+00 0.  1.
<mgrwt>
<rscale>  0 0.13876741E+04</rscale>
<asrwt>0</asrwt>
<pdfrwt beam="1">  1        2 0.86540058E-01 0.13876741E+04</pdfrwt>
<pdfrwt beam="2">  1       -2 0.13166522E+00 0.13876741E+04</pdfrwt>
<totfact> 0.21944542E+01</totfact>
</mgrwt>
</event>
<event>
12    2  0.3555611E-008  0.2052523E+04  0.7818608E-02  0.8582451E-01
          1   -1    0    0  501    0  0.00000000000E+00  0.00000000000E+00  0.16810903717E+04  0.16810903717E+04  0.00000000000E+00 0. -1.
         -1   -1    0    0    0  501 -0.00000000000E+00 -0.00000000000E+00 -0.62650553485E+03  0.62650553485E+03  0.00000000000E+00 0.  1.
         23    2    1    2    0    0  0.42432615428E+03  0.56517265738E+03  0.91358998825E+03  0.11585907190E+04  0.90625436084E+02 0.  0.
        254    2    1    2    0    0 -0.42432615428E+03 -0.56517265738E+03  0.14099484860E+03  0.11490051876E+04  0.89490812704E+03 0.  0.
         23    2    4    4    0    0 -0.21351908862E+03 -0.37358397904E+03 -0.35797155692E+03  0.56688376710E+03  0.89767361751E+02 0.  0.
         23    2    4    4    0    0 -0.21080706566E+03 -0.19158867834E+03  0.49896640553E+03  0.58212142046E+03  0.93552304656E+02 0.  0.
          2    1    3    3  502    0  0.46916519091E+02  0.52353210108E+02  0.14001655980E+03  0.15667372271E+03  0.00000000000E+00 0. -1.
         -2    1    3    3    0  502  0.37740963519E+03  0.51281944728E+03  0.77357342845E+03  0.10019169963E+04  0.00000000000E+00 0.  1.
         11    1    5    5    0    0 -0.16715981816E+00 -0.14286233051E+01 -0.21883469245E+02  0.21930689300E+02  0.00000000000E+00 0. -1.
        -11    1    5    5    0    0 -0.21335192880E+03 -0.37215535574E+03 -0.33608808768E+03  0.54495307780E+03  0.00000000000E+00 0.  1.
          2    1    6    6  503    0 -0.72136882029E+02 -0.58496618966E+02  0.85821075298E+02  0.12645489767E+03  0.00000000000E+00 0. -1.
         -2    1    6    6    0  503 -0.13867018364E+03 -0.13309205938E+03  0.41314533023E+03  0.45566652279E+03  0.00000000000E+00 0.  1.
<mgrwt>
<rscale>  0 0.20525228E+04</rscale>
<asrwt>0</asrwt>
<pdfrwt beam="1">  1        1 0.25862929E+00 0.20525228E+04</pdfrwt>
<pdfrwt beam="2">  1       -1 0.96385467E-01 0.20525228E+04</pdfrwt>
<totfact> 0.46985462E+00</totfact>
</mgrwt>
</event>
<event>
12    2  0.3555611E-008  0.1478386E+04  0.7818608E-02  0.8898954E-01
          2   -1    0    0  501    0  0.00000000000E+00  0.00000000000E+00  0.87480606910E+03  0.87480606910E+03  0.00000000000E+00 0. -1.
         -2   -1    0    0    0  501 -0.00000000000E+00 -0.00000000000E+00 -0.62460291426E+03  0.62460291426E+03  0.00000000000E+00 0.  1.
         23    2    1    2    0    0 -0.16774875130E+03  0.42061410041E+03 -0.83881702229E+01  0.46048372408E+03  0.83180729221E+02 0.  0.
        254    2    1    2    0    0  0.16774875130E+03 -0.42061410041E+03  0.25859132506E+03  0.10389252593E+04  0.89857685033E+03 0.  0.
         23    2    4    4    0    0  0.25566056379E+03 -0.41100621175E+03 -0.22265197115E+03  0.54053230204E+03  0.91174773490E+02 0.  0.
         23    2    4    4    0    0 -0.87911812488E+02 -0.96078886624E+01  0.48124329621E+03  0.49839295724E+03  0.94760916938E+02 0.  0.
          4    1    3    3  502    0 -0.13144563801E+03  0.23640229883E+03 -0.26878040260E+02  0.27182058732E+03  0.00000000000E+00 0.  1.
         -4    1    3    3    0  502 -0.36303113288E+02  0.18421180158E+03  0.18489870037E+02  0.18866313676E+03  0.00000000000E+00 0. -1.
         11    1    5    5    0    0  0.13226786819E+03 -0.27670909019E+03 -0.10823036553E+03  0.32523302657E+03  0.00000000000E+00 0. -1.
        -11    1    5    5    0    0  0.12339269559E+03 -0.13429712156E+03 -0.11442160562E+03  0.21529927547E+03  0.00000000000E+00 0.  1.
          1    1    6    6  503    0  0.82447766941E+01  0.12356353305E+02  0.12587712202E+02  0.19470652486E+02  0.00000000000E+00 0. -1.
         -1    1    6    6    0  503 -0.96156589182E+02 -0.21964241968E+02  0.46865558401E+03  0.47892230475E+03  0.00000000000E+00 0.  1.
<mgrwt>
<rscale>  0 0.14783862E+04</rscale>
<asrwt>0</asrwt>
<pdfrwt beam="1">  1        2 0.13458555E+00 0.14783862E+04</pdfrwt>
<pdfrwt beam="2">  1       -2 0.96092757E-01 0.14783862E+04</pdfrwt>
<totfact> 0.26794414E+01</totfact>
</mgrwt>
</event>
<event>
12    2  0.3555611E-008  0.1851944E+04  0.7818608E-02  0.8679154E-01
          2   -1    0    0  501    0  0.00000000000E+00  0.00000000000E+00  0.15012646948E+04  0.15012646948E+04  0.00000000000E+00 0. -1.
         -2   -1    0    0    0  501 -0.00000000000E+00 -0.00000000000E+00 -0.57113478372E+03  0.57113478372E+03  0.00000000000E+00 0.  1.
         23    2    1    2    0    0 -0.35165903362E+03 -0.60625241746E+03  0.38775982048E+03  0.80519687673E+03  0.82330202973E+02 0.  0.
        254    2    1    2    0    0  0.35165903362E+03  0.60625241746E+03  0.54237009055E+03  0.12672026017E+04  0.90577648962E+03 0.  0.
         23    2    4    4    0    0  0.49137772850E+03 -0.13642420768E+02  0.28640764770E+03  0.57618151803E+03  0.91200950375E+02 0.  0.
         23    2    4    4    0    0 -0.13971869487E+03  0.61989483822E+03  0.25596244285E+03  0.69102108371E+03  0.90567333168E+02 0.  0.
          4    1    3    3  502    0 -0.33334781997E+03 -0.59690269153E+03  0.38449630557E+03  0.78437937328E+03  0.00000000000E+00 0. -1.
         -4    1    3    3    0  502 -0.18311213656E+02 -0.93497259236E+01  0.32635149171E+01  0.20817503453E+02  0.00000000000E+00 0.  1.
         11    1    5    5    0    0  0.14220399923E+03 -0.34664436065E+02  0.11768035502E+03  0.18780912247E+03  0.00000000000E+00 0. -1.
        -11    1    5    5    0    0  0.34917372927E+03  0.21022015297E+02  0.16872729268E+03  0.38837239556E+03  0.00000000000E+00 0.  1.
          4    1    6    6  503    0 -0.23371061056E+02  0.30805833240E+03  0.12896918334E+03  0.33478230674E+03  0.00000000000E+00 0. -1.
         -4    1    6    6    0  503 -0.11634763382E+03  0.31183650583E+03  0.12699325950E+03  0.35623877697E+03  0.00000000000E+00 0.  1.
<mgrwt>
<rscale>  0 0.18519444E+04</rscale>
<asrwt>0</asrwt>
<pdfrwt beam="1">  1        2 0.23096380E+00 0.18519444E+04</pdfrwt>
<pdfrwt beam="2">  1       -2 0.87866891E-01 0.18519444E+04</pdfrwt>
<totfact> 0.13307165E+01</totfact>
</mgrwt>
</event>
<event>
12    2  0.3555611E-008  0.1618855E+04  0.7818608E-02  0.8809048E-01
          2   -1    0    0  501    0  0.00000000000E+00  0.00000000000E+00  0.13681421168E+04  0.13681421168E+04  0.00000000000E+00 0. -1.
         -2   -1    0    0    0  501 -0.00000000000E+00 -0.00000000000E+00 -0.47887757015E+03  0.47887757015E+03  0.00000000000E+00 0.  1.
         23    2    1    2    0    0 -0.44688609576E+03  0.31901538090E+03  0.25826431490E+03  0.61618319154E+03  0.10725331393E+03 0.  0.
        254    2    1    2    0    0  0.44688609576E+03 -0.31901538090E+03  0.63100023176E+03  0.12308364954E+04  0.90295027002E+03 0.  0.
         23    2    4    4    0    0  0.50423567652E+03  0.11520338965E+03  0.96846225682E+02  0.53417146353E+03  0.91839656802E+02 0.  0.
         23    2    4    4    0    0 -0.57349580753E+02 -0.43421877055E+03  0.53415400608E+03  0.69666503189E+03  0.90480657235E+02 0.  0.
          4    1    3    3  502    0 -0.15828846983E+03  0.13001247138E+03  0.15244580531E+03  0.25533939365E+03  0.00000000000E+00 0. -1.
         -4    1    3    3    0  502 -0.28859762593E+03  0.18900290952E+03  0.10581850959E+03  0.36084379789E+03  0.00000000000E+00 0.  1.
         11    1    5    5    0    0  0.28385040272E+03  0.79261514555E+02  0.98912276105E+02  0.31086504657E+03  0.00000000000E+00 0.  1.
        -11    1    5    5    0    0  0.22038527379E+03  0.35941875096E+02 -0.20660504229E+01  0.22330641696E+03  0.00000000000E+00 0. -1.
          3    1    6    6  503    0 -0.38111500108E+02 -0.42281763600E+03  0.51302600256E+03  0.66590008188E+03  0.00000000000E+00 0. -1.
         -3    1    6    6    0  503 -0.19238080645E+02 -0.11401134553E+02  0.21128003523E+02  0.30764950006E+02  0.00000000000E+00 0.  1.
<mgrwt>
<rscale>  0 0.16188546E+04</rscale>
<asrwt>0</asrwt>
<pdfrwt beam="1">  1        2 0.21048340E+00 0.16188546E+04</pdfrwt>
<pdfrwt beam="2">  1       -2 0.73673473E-01 0.16188546E+04</pdfrwt>
<totfact> 0.24009254E+01</totfact>
</mgrwt>
</event>
<event>
12    2  0.3555611E-008  0.2102086E+04  0.7818608E-02  0.8560325E-01
          2   -1    0    0  501    0  0.00000000000E+00  0.00000000000E+00  0.23452066290E+04  0.23452066290E+04  0.00000000000E+00 0. -1.
         -2   -1    0    0    0  501 -0.00000000000E+00 -0.00000000000E+00 -0.47104216240E+03  0.47104216240E+03  0.00000000000E+00 0.  1.
         23    2    1    2    0    0 -0.77610226861E+03 -0.35504333314E+03  0.82424178051E+03  0.11899685795E+04  0.90885685007E+02 0.  0.
        254    2    1    2    0    0  0.77610226861E+03  0.35504333314E+03  0.10499226861E+04  0.16262802119E+04  0.90225228237E+03 0.  0.
         23    2    4    4    0    0 -0.13969230549E+03 -0.96739936437E+02  0.62558393920E+02  0.20291384689E+03  0.91585594359E+02 0.  0.
         23    2    4    4    0    0  0.91579457410E+03  0.45178326957E+03  0.98736429214E+03  0.14233663650E+04  0.91080947052E+02 0.  0.
          2    1    3    3  502    0 -0.34080140973E+03 -0.18270485566E+03  0.32030902639E+03  0.50212004296E+03  0.00000000000E+00 0.  1.
         -2    1    3    3    0  502 -0.43530085889E+03 -0.17233847748E+03  0.50393275412E+03  0.68784853655E+03  0.00000000000E+00 0. -1.
         11    1    5    5    0    0 -0.35402296440E+02  0.58584277320E+01  0.41899547805E+02  0.55165350312E+02  0.00000000000E+00 0. -1.
        -11    1    5    5    0    0 -0.10429000905E+03 -0.10259836417E+03  0.20658846115E+02  0.14774849658E+03  0.00000000000E+00 0.  1.
          4    1    6    6  503    0  0.32647263193E+03  0.13344979800E+03  0.29206743906E+03  0.45792643180E+03  0.00000000000E+00 0. -1.
         -4    1    6    6    0  503  0.58932194217E+03  0.31833347158E+03  0.69529685309E+03  0.96543993317E+03  0.00000000000E+00 0.  1.
<mgrwt>
<rscale>  0 0.21020858E+04</rscale>
<asrwt>0</asrwt>
<pdfrwt beam="1">  1        2 0.36080101E+00 0.21020858E+04</pdfrwt>
<pdfrwt beam="2">  1       -2 0.72468026E-01 0.21020858E+04</pdfrwt>
<totfact> 0.67831212E+00</totfact>
</mgrwt>
</event>
<event>
12    2  0.3555611E-008  0.1526630E+04  0.7818608E-02  0.8866935E-01
         -1   -1    0    0    0  501 -0.00000000000E+00  0.00000000000E+00  0.55659785883E+03  0.55659785883E+03  0.00000000000E+00 0.  1.
          1   -1    0    0  501    0  0.00000000000E+00 -0.00000000000E+00 -0.10468062442E+04  0.10468062442E+04  0.00000000000E+00 0. -1.
         23    2    1    2    0    0 -0.86902554143E+02 -0.23671144280E+03  0.30000539370E+03  0.40263343229E+03  0.92336793769E+02 0.  0.
        254    2    1    2    0    0  0.86902554143E+02  0.23671144280E+03 -0.79021377904E+03  0.12007706707E+04  0.86823270267E+03 0.  0.
         23    2    4    4    0    0  0.11766943401E+03  0.29390073320E+02  0.16129290023E+03  0.22213362296E+03  0.92833585930E+02 0.  0.
         23    2    4    4    0    0 -0.30766879862E+02  0.20732136948E+03 -0.95150667928E+03  0.97863704775E+03  0.91851833854E+02 0.  0.
          4    1    3    3  502    0  0.18932026229E+02 -0.25081183301E+02  0.27741218106E+02  0.41917330007E+02  0.00000000000E+00 0. -1.
         -4    1    3    3    0  502 -0.10583458037E+03 -0.21163025950E+03  0.27226417559E+03  0.36071610229E+03  0.00000000000E+00 0.  1.
         11    1    5    5    0    0  0.25836958085E+02  0.24690474230E+01 -0.84310358723E+01  0.27289686040E+02  0.00000000000E+00 0. -1.
        -11    1    5    5    0    0  0.91832475920E+02  0.26921025897E+02  0.16972393610E+03  0.19484393692E+03  0.00000000000E+00 0.  1.
          1    1    6    6  503    0  0.32737885770E+02  0.60816159311E+02 -0.27480965209E+03  0.28335617036E+03  0.00000000000E+00 0. -1.
         -1    1    6    6    0  503 -0.63504765632E+02  0.14650521017E+03 -0.67669702719E+03  0.69528087739E+03  0.00000000000E+00 0.  1.
<mgrwt>
<rscale>  0 0.15266304E+04</rscale>
<asrwt>0</asrwt>
<pdfrwt beam="1">  1        1 0.16104711E+00 0.15266304E+04</pdfrwt>
<pdfrwt beam="2">  1       -1 0.85630440E-01 0.15266304E+04</pdfrwt>
<totfact> 0.18103213E+01</totfact>
</mgrwt>
</event>
<event>
12    2  0.3555611E-008  0.1138349E+04  0.7818608E-02  0.9168599E-01
         -1   -1    0    0    0  501 -0.00000000000E+00  0.00000000000E+00  0.72544816179E+03  0.72544816179E+03  0.00000000000E+00 0.  1.
          1   -1    0    0  501    0  0.00000000000E+00 -0.00000000000E+00 -0.44656513515E+03  0.44656513515E+03  0.00000000000E+00 0. -1.
         23    2    1    2    0    0  0.14855525789E+03 -0.78745040904E+01 -0.70236478867E+02  0.18962757908E+03  0.94312158932E+02 0.  0.
        254    2    1    2    0    0 -0.14855525789E+03  0.78745040904E+01  0.34911950550E+03  0.98238571786E+03  0.90612725214E+03 0.  0.
         23    2    4    4    0    0 -0.18693407269E+03 -0.51426776555E+02 -0.27508699401E+03  0.34837253929E+03  0.90008393934E+02 0.  0.
         23    2    4    4    0    0  0.38378814800E+02  0.59301280645E+02  0.62420649951E+03  0.63401317857E+03  0.85728532363E+02 0.  0.
          4    1    3    3  502    0  0.11062289135E+03  0.35822930371E+02 -0.60063998257E+02  0.13087547638E+03  0.00000000000E+00 0. -1.
         -4    1    3    3    0  502  0.37932366541E+02 -0.43697434462E+02 -0.10172480610E+02  0.58752102700E+02  0.00000000000E+00 0.  1.
         11    1    5    5    0    0 -0.13521278866E+03  0.63429603180E+01 -0.18956038753E+03  0.23292889877E+03  0.00000000000E+00 0. -1.
        -11    1    5    5    0    0 -0.51721284033E+02 -0.57769736873E+02 -0.85526606481E+02  0.11544364052E+03  0.00000000000E+00 0.  1.
          4    1    6    6  503    0 -0.63691181453E+01 -0.13866891907E+02  0.23376853843E+03  0.23426605797E+03  0.00000000000E+00 0. -1.
         -4    1    6    6    0  503  0.44747932946E+02  0.73168172552E+02  0.39043796108E+03  0.39974712060E+03  0.00000000000E+00 0.  1.
<mgrwt>
<rscale>  0 0.11383494E+04</rscale>
<asrwt>0</asrwt>
<pdfrwt beam="1">  1        1 0.68702328E-01 0.11383494E+04</pdfrwt>
<pdfrwt beam="2">  1       -1 0.11160741E+00 0.11383494E+04</pdfrwt>
<totfact> 0.37937365E+01</totfact>
</mgrwt>
</event>
<event>
12    2  0.3555611E-008  0.1239821E+04  0.7818608E-02  0.9078698E-01
         -2   -1    0    0    0  501 -0.00000000000E+00  0.00000000000E+00  0.23460658218E+03  0.23460658218E+03  0.00000000000E+00 0.  1.
          2   -1    0    0  501    0  0.00000000000E+00 -0.00000000000E+00 -0.16380140780E+04  0.16380140780E+04  0.00000000000E+00 0. -1.
         23    2    1    2    0    0  0.43220797138E+02 -0.26368346378E+03 -0.43544532500E+03  0.51836509862E+03  0.87708255216E+02 0.  0.
        254    2    1    2    0    0 -0.43220797138E+02  0.26368346378E+03 -0.96796217086E+03  0.13542555616E+04  0.90865854727E+03 0.  0.
         23    2    4    4    0    0  0.37872724560E+02 -0.24622024313E+03 -0.13546100074E+02  0.26547506046E+03  0.90745575702E+02 0.  0.
         23    2    4    4    0    0 -0.81093521698E+02  0.50990370691E+03 -0.95441607078E+03  0.10887805011E+04  0.89190772485E+02 0.  0.
          3    1    3    3  502    0  0.49217292959E+01 -0.44958324601E+02 -0.15030249212E+03  0.15695959196E+03  0.00000000000E+00 0. -1.
         -3    1    3    3    0  502  0.38299067842E+02 -0.21872513918E+03 -0.28514283287E+03  0.36140550666E+03  0.00000000000E+00 0.  1.
         11    1    5    5    0    0  0.31434939914E+02 -0.24121291927E+03 -0.31952941231E+02  0.24534224733E+03  0.00000000000E+00 0.  1.
        -11    1    5    5    0    0  0.64377846456E+01 -0.50073238562E+01  0.18406841157E+02  0.20132813135E+02  0.00000000000E+00 0. -1.
          3    1    6    6  503    0 -0.81236254251E+02  0.23034978657E+03 -0.45807502334E+03  0.51912722929E+03  0.00000000000E+00 0. -1.
         -3    1    6    6    0  503  0.14273255350E+00  0.27955392033E+03 -0.49634104744E+03  0.56965327184E+03  0.00000000000E+00 0.  1.
<mgrwt>
<rscale>  0 0.12398208E+04</rscale>
<asrwt>0</asrwt>
<pdfrwt beam="1">  1        2 0.25200216E+00 0.12398208E+04</pdfrwt>
<pdfrwt beam="2">  1       -2 0.36093321E-01 0.12398208E+04</pdfrwt>
<totfact> 0.75447169E+01</totfact>
</mgrwt>
</event>
<event>
12    2  0.3555611E-008  0.2812629E+04  0.7818608E-02  0.8299358E-01
         -2   -1    0    0    0  501 -0.00000000000E+00  0.00000000000E+00  0.46290017421E+03  0.46290017421E+03  0.00000000000E+00 0. -1.
          2   -1    0    0  501    0  0.00000000000E+00 -0.00000000000E+00 -0.42724549226E+04  0.42724549226E+04  0.00000000000E+00 0.  1.
         23    2    1    2    0    0  0.10196320295E+04 -0.12271654086E+03 -0.29207681890E+04  0.30973993602E+04  0.91033828194E+02 0.  0.
        254    2    1    2    0    0 -0.10196320295E+04  0.12271654086E+03 -0.88878655936E+03  0.16379557366E+04  0.91555918532E+03 0.  0.
         23    2    4    4    0    0 -0.95962913514E+03  0.32311586311E+03 -0.95972087040E+03  0.13979464320E+04  0.88871478315E+02 0.  0.
         23    2    4    4    0    0 -0.60002894363E+02 -0.20039932226E+03  0.70934311033E+02  0.24000930456E+03  0.93875204920E+02 0.  0.
          4    1    3    3  502    0  0.24740560110E+03 -0.68696356823E+02 -0.74956190345E+03  0.79232049576E+03  0.00000000000E+00 0. -1.
         -4    1    3    3    0  502  0.77222642840E+03 -0.54020184034E+02 -0.21712062855E+04  0.23050788644E+04  0.00000000000E+00 0.  1.
         11    1    5    5    0    0 -0.58228297008E+03  0.23894776766E+03 -0.61431265799E+03  0.87950527837E+03  0.00000000000E+00 0. -1.
        -11    1    5    5    0    0 -0.37734616506E+03  0.84168095457E+02 -0.34540821241E+03  0.51844115363E+03  0.00000000000E+00 0.  1.
          4    1    6    6  503    0 -0.23050805522E+02 -0.14435695989E+03  0.88152845721E+02  0.17070792516E+03  0.00000000000E+00 0. -1.
         -4    1    6    6    0  503 -0.36952088841E+02 -0.56042362365E+02 -0.17218534687E+02  0.69301379394E+02  0.00000000000E+00 0.  1.
<mgrwt>
<rscale>  0 0.28126288E+04</rscale>
<asrwt>0</asrwt>
<pdfrwt beam="1">  1        2 0.65730075E+00 0.28126288E+04</pdfrwt>
<pdfrwt beam="2">  1       -2 0.71215412E-01 0.28126288E+04</pdfrwt>
<totfact> 0.31275184E-01</totfact>
</mgrwt>
</event>
<event>
12    2  0.3555611E-008  0.1453395E+04  0.7818608E-02  0.8916050E-01
         -1   -1    0    0    0  501 -0.00000000000E+00  0.00000000000E+00  0.55234178648E+03  0.55234178648E+03  0.00000000000E+00 0.  1.
          1   -1    0    0  501    0  0.00000000000E+00 -0.00000000000E+00 -0.95609135764E+03  0.95609135764E+03  0.00000000000E+00 0. -1.
         23    2    1    2    0    0 -0.38665856984E+03 -0.18028330885E+00 -0.34146988224E+03  0.52440781280E+03  0.94323865016E+02 0.  0.
        254    2    1    2    0    0  0.38665856984E+03  0.18028330885E+00 -0.62279688928E+02  0.98402533133E+03  0.90273041984E+03 0.  0.
         23    2    4    4    0    0  0.14836558778E+03  0.16090677497E+03 -0.44079237238E+03  0.50037799703E+03  0.90426138332E+02 0.  0.
         23    2    4    4    0    0  0.23829298207E+03 -0.16072649166E+03  0.37851268346E+03  0.48364733429E+03  0.89589854387E+02 0.  0.
          2    1    3    3  502    0 -0.18845119167E+03  0.25851985325E+02 -0.11478374238E+03  0.22216544354E+03  0.00000000000E+00 0. -1.
         -2    1    3    3    0  502 -0.19820737817E+03 -0.26032268634E+02 -0.22668613986E+03  0.30224236926E+03  0.00000000000E+00 0.  1.
         11    1    5    5    0    0 -0.10324317654E+02  0.27025842777E+02 -0.46575339391E+02  0.54829280063E+02  0.00000000000E+00 0. -1.
        -11    1    5    5    0    0  0.15868990543E+03  0.13388093219E+03 -0.39421703299E+03  0.44554871697E+03  0.00000000000E+00 0.  1.
          2    1    6    6  503    0  0.18279994495E+03 -0.94298368760E+02  0.20857788801E+03  0.29293811222E+03  0.00000000000E+00 0. -1.
         -2    1    6    6    0  503  0.55493037115E+02 -0.66428122900E+02  0.16993479545E+03  0.19070922207E+03  0.00000000000E+00 0.  1.
<mgrwt>
<rscale>  0 0.14533949E+04</rscale>
<asrwt>0</asrwt>
<pdfrwt beam="1">  1        1 0.14709098E+00 0.14533949E+04</pdfrwt>
<pdfrwt beam="2">  1       -1 0.84975661E-01 0.14533949E+04</pdfrwt>
<totfact> 0.21807554E+01</totfact>
</mgrwt>
</event>
<event>
12    2  0.3555611E-008  0.1607804E+04  0.7818608E-02  0.8815768E-01
          2   -1    0    0  501    0  0.00000000000E+00  0.00000000000E+00  0.32737270828E+03  0.32737270828E+03  0.00000000000E+00 0. -1.
         -2   -1    0    0    0  501 -0.00000000000E+00 -0.00000000000E+00 -0.19740744440E+04  0.19740744440E+04  0.00000000000E+00 0.  1.
         23    2    1    2    0    0  0.47739417700E+03  0.64269116286E+02 -0.17747938691E+03  0.52102811840E+03  0.89082253272E+02 0.  0.
        254    2    1    2    0    0 -0.47739417700E+03 -0.64269116286E+02 -0.14692223488E+04  0.17804190338E+04  0.88274679632E+03 0.  0.
         23    2    4    4    0    0 -0.31550737993E+03 -0.89346815026E+01 -0.31924284200E+02  0.33004497846E+03  0.91026328966E+02 0.  0.
         23    2    4    4    0    0 -0.16188679707E+03 -0.55334434783E+02 -0.14372980646E+04  0.14503740554E+04  0.92140866944E+02 0.  0.
          1    1    3    3  502    0  0.44526471953E+03  0.35436591911E+02 -0.16029414973E+03  0.47456362792E+03  0.00000000000E+00 0. -1.
         -1    1    3    3    0  502  0.32129457465E+02  0.28832524374E+02 -0.17185237185E+02  0.46464490483E+02  0.00000000000E+00 0.  1.
         11    1    5    5    0    0 -0.14251421543E+03 -0.18750534715E+02  0.28498925773E+02  0.14654034571E+03  0.00000000000E+00 0.  1.
        -11    1    5    5    0    0 -0.17299316450E+03  0.98158532126E+01 -0.60423209973E+02  0.18350463275E+03  0.00000000000E+00 0. -1.
          3    1    6    6  503    0 -0.56396808676E+01  0.78269051452E+01 -0.13259180836E+02  0.16397326638E+02  0.00000000000E+00 0. -1.
         -3    1    6    6    0  503 -0.15624711620E+03 -0.63161339928E+02 -0.14240388837E+04  0.14339767287E+04  0.00000000000E+00 0.  1.
<mgrwt>
<rscale>  0 0.16078036E+04</rscale>
<asrwt>0</asrwt>
<pdfrwt beam="1">  1        2 0.50365032E-01 0.16078036E+04</pdfrwt>
<pdfrwt beam="2">  1       -2 0.30370376E+00 0.16078036E+04</pdfrwt>
<totfact> 0.28878131E+00</totfact>
</mgrwt>
</event>
<event>
12    2  0.3555611E-008  0.1900045E+04  0.7818608E-02  0.8654834E-01
          2   -1    0    0  501    0  0.00000000000E+00  0.00000000000E+00  0.33337076724E+04  0.33337076724E+04  0.00000000000E+00 0. -1.
         -2   -1    0    0    0  501 -0.00000000000E+00 -0.00000000000E+00 -0.27073236342E+03  0.27073236342E+03  0.00000000000E+00 0.  1.
         23    2    1    2    0    0 -0.17588581794E+03 -0.25416012599E+03 -0.69584175831E+02  0.33003804133E+03  0.92465997011E+02 0.  0.
        254    2    1    2    0    0  0.17588581794E+03  0.25416012599E+03  0.31325594848E+04  0.32744019944E+04  0.90180169940E+03 0.  0.
         23    2    4    4    0    0  0.47979264663E+03  0.36216651265E+03  0.17890562179E+04  0.18895627280E+04  0.91430768675E+02 0.  0.
         23    2    4    4    0    0 -0.30390682869E+03 -0.10800638666E+03  0.13435032668E+04  0.13848392665E+04  0.93562951135E+02 0.  0.
          1    1    3    3  502    0 -0.73529918858E+02 -0.87641598029E+02  0.18074355596E+02  0.11582046884E+03  0.00000000000E+00 0. -1.
         -1    1    3    3    0  502 -0.10235589908E+03 -0.16651852796E+03 -0.87658531427E+02  0.21421757249E+03  0.00000000000E+00 0.  1.
         11    1    5    5    0    0  0.37241424130E+02  0.55283580202E+02  0.26119011422E+03  0.26956163243E+03  0.00000000000E+00 0.  1.
        -11    1    5    5    0    0  0.44255122250E+03  0.30688293245E+03  0.15278661037E+04  0.16200010956E+04  0.00000000000E+00 0. -1.
          4    1    6    6  503    0 -0.31071441370E+02 -0.46160195941E+02  0.19809516413E+03  0.20576173651E+03  0.00000000000E+00 0.  1.
         -4    1    6    6    0  503 -0.27283538732E+03 -0.61846190721E+02  0.11454081027E+04  0.11790775300E+04  0.00000000000E+00 0. -1.
<mgrwt>
<rscale>  0 0.19000448E+04</rscale>
<asrwt>0</asrwt>
<pdfrwt beam="1">  1        2 0.51287808E+00 0.19000448E+04</pdfrwt>
<pdfrwt beam="2">  1       -2 0.41651135E-01 0.19000448E+04</pdfrwt>
<totfact> 0.54381292E+00</totfact>
</mgrwt>
</event>
<event>
12    2  0.3555611E-008  0.1822358E+04  0.7818608E-02  0.8694499E-01
          2   -1    0    0  501    0  0.00000000000E+00  0.00000000000E+00  0.14828822021E+04  0.14828822021E+04  0.00000000000E+00 0. -1.
         -2   -1    0    0    0  501 -0.00000000000E+00 -0.00000000000E+00 -0.55988756384E+03  0.55988756384E+03  0.00000000000E+00 0.  1.
         23    2    1    2    0    0 -0.45218838065E+02 -0.93958592578E+02  0.11076106942E+04  0.11162430450E+04  0.91236644450E+02 0.  0.
        254    2    1    2    0    0  0.45218838065E+02  0.93958592578E+02 -0.18461605589E+03  0.92652672094E+03  0.90193997366E+03 0.  0.
         23    2    4    4    0    0 -0.15608302550E+01  0.47169948619E+03  0.28244765103E+02  0.48096512330E+03  0.89592642602E+02 0.  0.
         23    2    4    4    0    0  0.46779668320E+02 -0.37774089362E+03 -0.21286082099E+03  0.44556159764E+03  0.91317512560E+02 0.  0.
          2    1    3    3  502    0 -0.55900396749E+02 -0.10718665099E+03  0.10031522466E+04  0.10104099477E+04  0.00000000000E+00 0. -1.
         -2    1    3    3    0  502  0.10681558684E+02  0.13228058412E+02  0.10445844755E+03  0.10583309733E+03  0.00000000000E+00 0.  1.
         11    1    5    5    0    0 -0.59464145561E+01  0.37315839607E+03 -0.14444302795E+02  0.37348518884E+03  0.00000000000E+00 0. -1.
        -11    1    5    5    0    0  0.43855843010E+01  0.98541090128E+02  0.42689067897E+02  0.10747993446E+03  0.00000000000E+00 0.  1.
          3    1    6    6  503    0  0.46539071256E+02 -0.97923830356E+02 -0.34688758697E+02  0.11383440466E+03  0.00000000000E+00 0. -1.
         -3    1    6    6    0  503  0.24059706450E+00 -0.27981706326E+03 -0.17817206229E+03  0.33172719298E+03  0.00000000000E+00 0.  1.
<mgrwt>
<rscale>  0 0.18223581E+04</rscale>
<asrwt>0</asrwt>
<pdfrwt beam="1">  1        2 0.22813572E+00 0.18223581E+04</pdfrwt>
<pdfrwt beam="2">  1       -2 0.86136549E-01 0.18223581E+04</pdfrwt>
<totfact> 0.14298988E+01</totfact>
</mgrwt>
</event>
<event>
12    2  0.3555611E-008  0.3140639E+04  0.7818608E-02  0.8204672E-01
         -2   -1    0    0    0  501 -0.00000000000E+00  0.00000000000E+00  0.22601807332E+04  0.22601807332E+04  0.00000000000E+00 0.  1.
          2   -1    0    0  501    0  0.00000000000E+00 -0.00000000000E+00 -0.10910206398E+04  0.10910206398E+04  0.00000000000E+00 0. -1.
         23    2    1    2    0    0 -0.48056192544E+03  0.13324283031E+04  0.27281540578E+03  0.14452521352E+04  0.89557476972E+02 0.  0.
        254    2    1    2    0    0  0.48056192544E+03 -0.13324283031E+04  0.89634468760E+03  0.19059492378E+04  0.90714042520E+03 0.  0.
         23    2    4    4    0    0  0.29692644230E+03  0.18089702103E+02  0.11450861912E+03  0.33199672956E+03  0.92828094490E+02 0.  0.
         23    2    4    4    0    0  0.18363548314E+03 -0.13505180052E+04  0.78183606848E+03  0.15739525082E+04  0.91858517388E+02 0.  0.
          1    1    3    3  502    0 -0.40986977090E+03  0.10901538787E+04  0.25499673122E+03  0.11922466361E+04  0.00000000000E+00 0. -1.
         -1    1    3    3    0  502 -0.70692154533E+02  0.24227442438E+03  0.17818674552E+02  0.25300549912E+03  0.00000000000E+00 0.  1.
         11    1    5    5    0    0  0.21274451461E+03 -0.29245657212E+02  0.72191779300E+02  0.22655504841E+03  0.00000000000E+00 0. -1.
        -11    1    5    5    0    0  0.84181927694E+02  0.47335359315E+02  0.42316839817E+02  0.10544168115E+03  0.00000000000E+00 0.  1.
          2    1    6    6  503    0  0.41988942010E+02 -0.58289199751E+03  0.36534919441E+03  0.68920692529E+03  0.00000000000E+00 0. -1.
         -2    1    6    6    0  503  0.14164654113E+03 -0.76762600766E+03  0.41648687406E+03  0.88474558293E+03  0.00000000000E+00 0.  1.
<mgrwt>
<rscale>  0 0.31406393E+04</rscale>
<asrwt>0</asrwt>
<pdfrwt beam="1">  1        2 0.16784933E+00 0.31406393E+04</pdfrwt>
<pdfrwt beam="2">  1       -2 0.34772011E+00 0.31406393E+04</pdfrwt>
<totfact> 0.30017893E-01</totfact>
</mgrwt>
</event>
<event>
12    2  0.3555611E-008  0.2375203E+04  0.7818608E-02  0.8448846E-01
          2   -1    0    0  501    0  0.00000000000E+00  0.00000000000E+00  0.24012349689E+04  0.24012349689E+04  0.00000000000E+00 0. -1.
         -2   -1    0    0    0  501 -0.00000000000E+00 -0.00000000000E+00 -0.58736315821E+03  0.58736315821E+03  0.00000000000E+00 0.  1.
         23    2    1    2    0    0 -0.65739166408E+03 -0.60529558479E+03  0.17102372261E+03  0.91409057973E+03  0.88124510100E+02 0.  0.
        254    2    1    2    0    0  0.65739166408E+03  0.60529558479E+03  0.16428480881E+04  0.20745075474E+04  0.89782246500E+03 0.  0.
         23    2    4    4    0    0  0.52711114476E+03  0.35907003821E+02  0.12623094513E+04  0.13714514968E+04  0.91206277899E+02 0.  0.
         23    2    4    4    0    0  0.13028051933E+03  0.56938858097E+03  0.38053863671E+03  0.70305605061E+03  0.91114139496E+02 0.  0.
          1    1    3    3  502    0 -0.61613717285E+03 -0.54594473974E+03  0.13830946389E+03  0.83475156928E+03  0.00000000000E+00 0.  1.
         -1    1    3    3    0  502 -0.41254491234E+02 -0.59350845051E+02  0.32714258719E+02  0.79339010448E+02  0.00000000000E+00 0. -1.
         11    1    5    5    0    0  0.45244058758E+03  0.10069784409E+02  0.10029656051E+04  0.11003380802E+04  0.00000000000E+00 0. -1.
        -11    1    5    5    0    0  0.74670557175E+02  0.25837219413E+02  0.25934384628E+03  0.27111341652E+03  0.00000000000E+00 0.  1.
          2    1    6    6  503    0  0.46312942084E+02  0.38477313661E+03  0.26704224182E+03  0.47064510428E+03  0.00000000000E+00 0. -1.
         -2    1    6    6    0  503  0.83967577241E+02  0.18461544436E+03  0.11349639490E+03  0.23241094634E+03  0.00000000000E+00 0.  1.
<mgrwt>
<rscale>  0 0.23752027E+04</rscale>
<asrwt>0</asrwt>
<pdfrwt beam="1">  1        2 0.36942076E+00 0.23752027E+04</pdfrwt>
<pdfrwt beam="2">  1       -2 0.90363564E-01 0.23752027E+04</pdfrwt>
<totfact> 0.37439557E+00</totfact>
</mgrwt>
</event>
<event>
12    2  0.3555611E-008  0.1238276E+04  0.7818608E-02  0.9079998E-01
         -1   -1    0    0    0  501 -0.00000000000E+00  0.00000000000E+00  0.39048698832E+03  0.39048698832E+03  0.00000000000E+00 0.  1.
          1   -1    0    0  501    0  0.00000000000E+00 -0.00000000000E+00 -0.98167567255E+03  0.98167567255E+03  0.00000000000E+00 0. -1.
         23    2    1    2    0    0  0.22742612694E+03  0.72607096941E+02  0.98329662536E+01  0.25553949226E+03  0.90605248948E+02 0.  0.
        254    2    1    2    0    0 -0.22742612694E+03 -0.72607096941E+02 -0.60102165048E+03  0.11166231686E+04  0.91028887864E+03 0.  0.
         23    2    4    4    0    0 -0.31937966687E+03  0.35720982037E+03 -0.26106575726E+03  0.55337457370E+03  0.92010118043E+02 0.  0.
         23    2    4    4    0    0  0.91953539926E+02 -0.42981691731E+03 -0.33995589322E+03  0.56324859491E+03  0.92091988863E+02 0.  0.
          1    1    3    3  502    0 -0.22378362872E+01 -0.10784020481E+02  0.25044880453E+00  0.11016611711E+02  0.00000000000E+00 0. -1.
         -1    1    3    3    0  502  0.22966396323E+03  0.83391117423E+02  0.95825174491E+01  0.24452288055E+03  0.00000000000E+00 0.  1.
         11    1    5    5    0    0 -0.45452613325E+02  0.64049696361E+02 -0.83451875882E+02  0.11459720437E+03  0.00000000000E+00 0. -1.
        -11    1    5    5    0    0 -0.27392705354E+03  0.29316012401E+03 -0.17761388138E+03  0.43877736932E+03  0.00000000000E+00 0.  1.
          1    1    6    6  503    0  0.96082730967E+02 -0.39440503376E+03 -0.33678245979E+03  0.52745582476E+03  0.00000000000E+00 0.  1.
         -1    1    6    6    0  503 -0.41291910404E+01 -0.35411883549E+02 -0.31734334334E+01  0.35792770149E+02  0.00000000000E+00 0. -1.
<mgrwt>
<rscale>  0 0.12382755E+04</rscale>
<asrwt>0</asrwt>
<pdfrwt beam="1">  1        1 0.15102703E+00 0.12382755E+04</pdfrwt>
<pdfrwt beam="2">  1       -1 0.60074922E-01 0.12382755E+04</pdfrwt>
<totfact> 0.43374374E+01</totfact>
</mgrwt>
</event>
<event>
12    2  0.3555611E-008  0.1730935E+04  0.7818608E-02  0.8743915E-01
         -1   -1    0    0    0  501 -0.00000000000E+00  0.00000000000E+00  0.62504136391E+03  0.62504136391E+03  0.00000000000E+00 0.  1.
          1   -1    0    0  501    0  0.00000000000E+00 -0.00000000000E+00 -0.11983754489E+04  0.11983754489E+04  0.00000000000E+00 0. -1.
         23    2    1    2    0    0  0.93900192042E+02 -0.20748746959E+02  0.44155733082E+03  0.46073258089E+03  0.89743401602E+02 0.  0.
        254    2    1    2    0    0 -0.93900192042E+02  0.20748746959E+02 -0.10148914158E+04  0.13626842319E+04  0.90424331542E+03 0.  0.
         23    2    4    4    0    0  0.39744544798E+03  0.13929459082E+02 -0.41087394029E+03  0.57866810154E+03  0.88783235924E+02 0.  0.
         23    2    4    4    0    0 -0.49134564002E+03  0.68192878766E+01 -0.60401747553E+03  0.78401613039E+03  0.91526724594E+02 0.  0.
          2    1    3    3  502    0 -0.51479214745E+01 -0.22286127894E+02  0.31802103485E+02  0.39173286537E+02  0.00000000000E+00 0. -1.
         -2    1    3    3    0  502  0.99048113517E+02  0.15373809347E+01  0.40975522734E+03  0.42155929436E+03  0.00000000000E+00 0.  1.
         11    1    5    5    0    0  0.34075304962E+02  0.27361695303E+02 -0.49227883701E+02  0.65826843398E+02  0.00000000000E+00 0.  1.
        -11    1    5    5    0    0  0.36337014302E+03 -0.13432236221E+02 -0.36164605659E+03  0.51284125814E+03  0.00000000000E+00 0. -1.
          3    1    6    6  503    0 -0.35081835273E+03  0.14697143160E+02 -0.36384526306E+03  0.50564107634E+03  0.00000000000E+00 0. -1.
         -3    1    6    6    0  503 -0.14052728729E+03 -0.78778552836E+01 -0.24017221247E+03  0.27837505406E+03  0.00000000000E+00 0.  1.
<mgrwt>
<rscale>  0 0.17309353E+04</rscale>
<asrwt>0</asrwt>
<pdfrwt beam="1">  1        1 0.18436545E+00 0.17309353E+04</pdfrwt>
<pdfrwt beam="2">  1       -1 0.96160212E-01 0.17309353E+04</pdfrwt>
<totfact> 0.10596961E+01</totfact>
</mgrwt>
</event>
<event>
12    2  0.3555611E-008  0.1281735E+04  0.7818608E-02  0.9044176E-01
          2   -1    0    0  501    0  0.00000000000E+00  0.00000000000E+00  0.91542270715E+03  0.91542270715E+03  0.00000000000E+00 0.  1.
         -2   -1    0    0    0  501 -0.00000000000E+00 -0.00000000000E+00 -0.44865730654E+03  0.44865730654E+03  0.00000000000E+00 0. -1.
         23    2    1    2    0    0  0.56879052380E+02  0.31366993102E+03  0.16543544000E+03  0.36881325458E+03  0.83846763349E+02 0.  0.
        254    2    1    2    0    0 -0.56879052380E+02 -0.31366993102E+03  0.30132996061E+03  0.99526675910E+03  0.89338240658E+03 0.  0.
         23    2    4    4    0    0  0.17818821001E+03 -0.20294801709E+03  0.55276677048E+03  0.62186891271E+03  0.90724341909E+02 0.  0.
         23    2    4    4    0    0 -0.23506726239E+03 -0.11072191393E+03 -0.25143680987E+03  0.37339784640E+03  0.93217607055E+02 0.  0.
          2    1    3    3  502    0  0.56476085320E+02  0.11666742776E+03  0.90287362281E+02  0.15796406142E+03  0.00000000000E+00 0. -1.
         -2    1    3    3    0  502  0.40296705931E+00  0.19700250325E+03  0.75148077720E+02  0.21084919316E+03  0.00000000000E+00 0.  1.
         11    1    5    5    0    0  0.53768283511E+02 -0.12890231709E+03  0.25395855000E+03  0.28983060704E+03  0.00000000000E+00 0. -1.
        -11    1    5    5    0    0  0.12441992650E+03 -0.74045700002E+02  0.29880822048E+03  0.33203830566E+03  0.00000000000E+00 0.  1.
          2    1    6    6  503    0 -0.20183206338E+03 -0.12016410979E+03 -0.18683881720E+03  0.30014053158E+03  0.00000000000E+00 0.  1.
         -2    1    6    6    0  503 -0.33235199014E+02  0.94421958614E+01 -0.64597992674E+02  0.73257314814E+02  0.00000000000E+00 0. -1.
<mgrwt>
<rscale>  0 0.12817349E+04</rscale>
<asrwt>0</asrwt>
<pdfrwt beam="1">  1        2 0.14083426E+00 0.12817349E+04</pdfrwt>
<pdfrwt beam="2">  1       -2 0.69024201E-01 0.12817349E+04</pdfrwt>
<totfact> 0.53868292E+01</totfact>
</mgrwt>
</event>
<event>
12    2  0.3555611E-008  0.1243988E+04  0.7818608E-02  0.9075202E-01
          2   -1    0    0  501    0  0.00000000000E+00  0.00000000000E+00  0.91325641378E+03  0.91325641378E+03  0.00000000000E+00 0. -1.
         -2   -1    0    0    0  501 -0.00000000000E+00 -0.00000000000E+00 -0.42362332918E+03  0.42362332918E+03  0.00000000000E+00 0.  1.
         23    2    1    2    0    0  0.87612146774E+02 -0.59538843612E+02 -0.16695698714E+03  0.21761459731E+03  0.90888476980E+02 0.  0.
        254    2    1    2    0    0 -0.87612146774E+02  0.59538843612E+02  0.65659007173E+03  0.11192651456E+04  0.90023507030E+03 0.  0.
         23    2    4    4    0    0  0.18210127466E+03  0.55645562384E+02  0.78064566736E+03  0.80858455891E+03  0.90244269072E+02 0.  0.
         23    2    4    4    0    0 -0.26971342143E+03  0.38932812281E+01 -0.12405559562E+03  0.31068058674E+03  0.91499447151E+02 0.  0.
          3    1    3    3  502    0  0.10662628569E+03 -0.53076340605E+02 -0.14824943365E+03  0.19016876008E+03  0.00000000000E+00 0. -1.
         -3    1    3    3    0  502 -0.19014138918E+02 -0.64625030070E+01 -0.18707553494E+02  0.27445837237E+02  0.00000000000E+00 0.  1.
         11    1    5    5    0    0 -0.38971075131E+01 -0.74783353130E+01  0.90030563783E+01  0.12335638215E+02  0.00000000000E+00 0. -1.
        -11    1    5    5    0    0  0.18599838217E+03  0.63123897697E+02  0.77164261098E+03  0.79624892070E+03  0.00000000000E+00 0.  1.
          2    1    6    6  503    0 -0.24076645694E+02  0.25469160820E+02 -0.91420770264E+00  0.35059931496E+02  0.00000000000E+00 0. -1.
         -2    1    6    6    0  503 -0.24563677574E+03 -0.21575879592E+02 -0.12314138792E+03  0.27562065524E+03  0.00000000000E+00 0.  1.
<mgrwt>
<rscale>  0 0.12439883E+04</rscale>
<asrwt>0</asrwt>
<pdfrwt beam="1">  1        2 0.14050099E+00 0.12439883E+04</pdfrwt>
<pdfrwt beam="2">  1       -2 0.65172820E-01 0.12439883E+04</pdfrwt>
<totfact> 0.61363373E+01</totfact>
</mgrwt>
</event>
<event>
12    2  0.3555611E-008  0.2268384E+04  0.7818608E-02  0.8490492E-01
         -2   -1    0    0    0  501 -0.00000000000E+00  0.00000000000E+00  0.18951269164E+04  0.18951269164E+04  0.00000000000E+00 0. -1.
          2   -1    0    0  501    0  0.00000000000E+00 -0.00000000000E+00 -0.67878892956E+03  0.67878892956E+03  0.00000000000E+00 0.  1.
         23    2    1    2    0    0  0.81867312801E+03 -0.69281457814E+02 -0.33141852527E+02  0.82737090807E+03  0.91753071967E+02 0.  0.
        254    2    1    2    0    0 -0.81867312801E+03  0.69281457814E+02  0.12494798393E+04  0.17465449379E+04  0.90232684773E+03 0.  0.
         23    2    4    4    0    0 -0.13207376454E+03 -0.30018879653E+03  0.10078154777E+03  0.35478962640E+03  0.90343598474E+02 0.  0.
         23    2    4    4    0    0 -0.68659936346E+03  0.36947025435E+03  0.11486982916E+04  0.13917553115E+04  0.97714518720E+02 0.  0.
          2    1    3    3  502    0  0.22458213396E+03 -0.59694035775E+02 -0.20390630206E+01  0.23238905004E+03  0.00000000000E+00 0. -1.
         -2    1    3    3    0  502  0.59409099405E+03 -0.95874220396E+01 -0.31102789507E+02  0.59498185803E+03  0.00000000000E+00 0.  1.
         11    1    5    5    0    0 -0.13066300764E+03 -0.19365120751E+03  0.67532574786E+02  0.24317536963E+03  0.00000000000E+00 0. -1.
        -11    1    5    5    0    0 -0.14107568978E+01 -0.10653758903E+03  0.33248972985E+02  0.11161425677E+03  0.00000000000E+00 0.  1.
          1    1    6    6  503    0 -0.57617530165E+03  0.26654742421E+03  0.92875002095E+03  0.11249898262E+04  0.00000000000E+00 0. -1.
         -1    1    6    6    0  503 -0.11042406182E+03  0.10292283014E+03  0.21994827062E+03  0.26676548529E+03  0.00000000000E+00 0.  1.
<mgrwt>
<rscale>  0 0.22683837E+04</rscale>
<asrwt>0</asrwt>
<pdfrwt beam="1">  1        2 0.10442907E+00 0.22683837E+04</pdfrwt>
<pdfrwt beam="2">  1       -2 0.29155798E+00 0.22683837E+04</pdfrwt>
<totfact> 0.13863814E+00</totfact>
</mgrwt>
</event>
<event>
12    2  0.3555611E-008  0.2932965E+04  0.7818608E-02  0.8263137E-01
         -2   -1    0    0    0  501 -0.00000000000E+00  0.00000000000E+00  0.57090234992E+03  0.57090234992E+03  0.00000000000E+00 0.  1.
          2   -1    0    0  501    0  0.00000000000E+00 -0.00000000000E+00 -0.37669671142E+04  0.37669671142E+04  0.00000000000E+00 0. -1.
         23    2    1    2    0    0  0.75662905306E+03 -0.87301754363E+02  0.15293122674E+03  0.78234694594E+03  0.92572476754E+02 0.  0.
        254    2    1    2    0    0 -0.75662905306E+03  0.87301754363E+02 -0.33489959910E+04  0.35555225182E+04  0.91970490330E+03 0.  0.
         23    2    4    4    0    0 -0.13825291037E+03 -0.37789572211E+03 -0.10633802451E+04  0.11406434986E+04  0.91493175571E+02 0.  0.
         23    2    4    4    0    0 -0.61837614270E+03  0.46519747647E+03 -0.22856157459E+04  0.24148790196E+04  0.93827476385E+02 0.  0.
          1    1    3    3  502    0  0.19183557881E+03 -0.62914735237E+02  0.43993909831E+02  0.20662675846E+03  0.00000000000E+00 0. -1.
         -1    1    3    3    0  502  0.56479347425E+03 -0.24387019126E+02  0.10893731691E+03  0.57572018748E+03  0.00000000000E+00 0.  1.
         11    1    5    5    0    0 -0.14173228240E+03 -0.27974248562E+03 -0.83981632601E+03  0.89645711530E+03  0.00000000000E+00 0. -1.
        -11    1    5    5    0    0  0.34793720305E+01 -0.98153236488E+02 -0.22356391910E+03  0.24418638329E+03  0.00000000000E+00 0.  1.
          2    1    6    6  503    0 -0.17855870727E+03  0.83474117949E+02 -0.58411312668E+03  0.61647326388E+03  0.00000000000E+00 0.  1.
         -2    1    6    6    0  503 -0.43981743543E+03  0.38172335852E+03 -0.17015026192E+04  0.17984057557E+04  0.00000000000E+00 0. -1.
<mgrwt>
<rscale>  0 0.29329646E+04</rscale>
<asrwt>0</asrwt>
<pdfrwt beam="1">  1        2 0.57953342E+00 0.29329646E+04</pdfrwt>
<pdfrwt beam="2">  1       -2 0.87831128E-01 0.29329646E+04</pdfrwt>
<totfact> 0.50036042E-01</totfact>
</mgrwt>
</event>
<event>
12    2  0.3555611E-008  0.1929663E+04  0.7818608E-02  0.8640231E-01
          2   -1    0    0  501    0  0.00000000000E+00  0.00000000000E+00  0.16063644225E+04  0.16063644225E+04  0.00000000000E+00 0. -1.
         -2   -1    0    0    0  501 -0.00000000000E+00 -0.00000000000E+00 -0.57950701130E+03  0.57950701130E+03  0.00000000000E+00 0.  1.
         23    2    1    2    0    0 -0.57658388014E+03 -0.41900151354E+03  0.65685295658E+03  0.97354248992E+03  0.91202707897E+02 0.  0.
        254    2    1    2    0    0  0.57658388014E+03  0.41900151354E+03  0.37000445466E+03  0.12123289439E+04  0.90819983076E+03 0.  0.
         23    2    4    4    0    0  0.57298625492E+03 -0.56635297528E+02  0.42990067867E+03  0.72416579163E+03  0.89892686025E+02 0.  0.
         23    2    4    4    0    0  0.35976252205E+01  0.47563681107E+03 -0.59896224015E+02  0.48816315228E+03  0.92045568271E+02 0.  0.
          3    1    3    3  502    0 -0.43167348581E+03 -0.26232638441E+03  0.45894774738E+03  0.68248821611E+03  0.00000000000E+00 0. -1.
         -3    1    3    3    0  502 -0.14491039433E+03 -0.15667512913E+03  0.19790520920E+03  0.29105427381E+03  0.00000000000E+00 0.  1.
         11    1    5    5    0    0  0.52468905973E+03 -0.28682917337E+02  0.40300687664E+03  0.66222040271E+03  0.00000000000E+00 0. -1.
        -11    1    5    5    0    0  0.48297195184E+02 -0.27952380191E+02  0.26893802037E+02  0.61945388924E+02  0.00000000000E+00 0.  1.
          1    1    6    6  503    0 -0.37036343565E+02  0.35666162561E+03 -0.38626350994E+02  0.36065385194E+03  0.00000000000E+00 0. -1.
         -1    1    6    6    0  503  0.40633968786E+02  0.11897518546E+03 -0.21269873021E+02  0.12750930034E+03  0.00000000000E+00 0.  1.
<mgrwt>
<rscale>  0 0.19296626E+04</rscale>
<asrwt>0</asrwt>
<pdfrwt beam="1">  1        2 0.24713299E+00 0.19296626E+04</pdfrwt>
<pdfrwt beam="2">  1       -2 0.89154925E-01 0.19296626E+04</pdfrwt>
<totfact> 0.11162111E+01</totfact>
</mgrwt>
</event>
<event>
12    2  0.3555611E-008  0.1670425E+04  0.7818608E-02  0.8778414E-01
         -2   -1    0    0    0  501 -0.00000000000E+00  0.00000000000E+00  0.35413143323E+03  0.35413143323E+03  0.00000000000E+00 0.  1.
          2   -1    0    0  501    0  0.00000000000E+00 -0.00000000000E+00 -0.19698338185E+04  0.19698338185E+04  0.00000000000E+00 0. -1.
         23    2    1    2    0    0 -0.18712653800E+03  0.54985386844E+03 -0.46888541270E+03  0.75192522572E+03  0.90456602634E+02 0.  0.
        254    2    1    2    0    0  0.18712653800E+03 -0.54985386844E+03 -0.11468169726E+04  0.15720400260E+04  0.90485637367E+03 0.  0.
         23    2    4    4    0    0  0.48501621616E+03 -0.51303729345E+03 -0.55671603594E+03  0.90357163828E+03  0.89782884856E+02 0.  0.
         23    2    4    4    0    0 -0.29788967816E+03 -0.36816574993E+02 -0.59010093665E+03  0.66846838776E+03  0.92396696096E+02 0.  0.
          4    1    3    3  502    0 -0.35358731661E+02  0.15136964657E+03 -0.17491379835E+03  0.23400394582E+03  0.00000000000E+00 0. -1.
         -4    1    3    3    0  502 -0.15176780634E+03  0.39848422188E+03 -0.29397161435E+03  0.51792127990E+03  0.00000000000E+00 0.  1.
         11    1    5    5    0    0  0.14713737416E+03 -0.13773050210E+03 -0.20965514696E+03  0.29081674424E+03  0.00000000000E+00 0.  1.
        -11    1    5    5    0    0  0.33787884200E+03 -0.37530679135E+03 -0.34706088899E+03  0.61275489404E+03  0.00000000000E+00 0. -1.
          2    1    6    6  503    0 -0.15267059137E+03 -0.44306719156E+02 -0.38963505133E+03  0.42081690562E+03  0.00000000000E+00 0. -1.
         -2    1    6    6    0  503 -0.14521908679E+03  0.74901441629E+01 -0.20046588532E+03  0.24765148214E+03  0.00000000000E+00 0.  1.
<mgrwt>
<rscale>  0 0.16704252E+04</rscale>
<asrwt>0</asrwt>
<pdfrwt beam="1">  1        2 0.30305136E+00 0.16704252E+04</pdfrwt>
<pdfrwt beam="2">  1       -2 0.54481759E-01 0.16704252E+04</pdfrwt>
<totfact> 0.21002865E+01</totfact>
</mgrwt>
</event>
<event>
12    2  0.3555611E-008  0.2144781E+04  0.7818608E-02  0.8541769E-01
          2   -1    0    0  501    0  0.00000000000E+00  0.00000000000E+00  0.10407575400E+04  0.10407575400E+04  0.00000000000E+00 0. -1.
         -2   -1    0    0    0  501 -0.00000000000E+00 -0.00000000000E+00 -0.11049850840E+04  0.11049850840E+04  0.00000000000E+00 0.  1.
         23    2    1    2    0    0  0.43803589404E+03 -0.57072141797E+03  0.48261121359E+03  0.87112420644E+03  0.91353260271E+02 0.  0.
        254    2    1    2    0    0 -0.43803589404E+03  0.57072141797E+03 -0.54683875754E+03  0.12746184176E+04  0.89889994006E+03 0.  0.
         23    2    4    4    0    0  0.21862880423E+03 -0.37614528043E+02 -0.43849322479E+02  0.24378148718E+03  0.91067247952E+02 0.  0.
         23    2    4    4    0    0 -0.65666469827E+03  0.60833594601E+03 -0.50298943506E+03  0.10308369304E+04  0.91352373255E+02 0.  0.
          2    1    3    3  502    0  0.15457844949E+03 -0.20219535483E+03  0.11934792246E+03  0.28110742637E+03  0.00000000000E+00 0.  1.
         -2    1    3    3    0  502  0.28345744455E+03 -0.36852606314E+03  0.36326329114E+03  0.59001678007E+03  0.00000000000E+00 0. -1.
         11    1    5    5    0    0 -0.47605265922E+01  0.84828407691E+00 -0.14412102366E+02  0.15201674050E+02  0.00000000000E+00 0.  1.
        -11    1    5    5    0    0  0.22338933082E+03 -0.38462812119E+02 -0.29437220113E+02  0.22857981313E+03  0.00000000000E+00 0. -1.
          4    1    6    6  503    0 -0.47817679594E+02  0.81679801764E+02 -0.47750351841E+02  0.10601045514E+03  0.00000000000E+00 0.  1.
         -4    1    6    6    0  503 -0.60884701867E+03  0.52665614425E+03 -0.45523908322E+03  0.92482647525E+03  0.00000000000E+00 0. -1.
<mgrwt>
<rscale>  0 0.21447812E+04</rscale>
<asrwt>0</asrwt>
<pdfrwt beam="1">  1        2 0.16011655E+00 0.21447812E+04</pdfrwt>
<pdfrwt beam="2">  1       -2 0.16999770E+00 0.21447812E+04</pdfrwt>
<totfact> 0.46424261E+00</totfact>
</mgrwt>
</event>
<event>
12    2  0.3555611E-008  0.1430846E+04  0.7818608E-02  0.8931789E-01
         -1   -1    0    0    0  501 -0.00000000000E+00  0.00000000000E+00  0.25075328411E+03  0.25075328411E+03  0.00000000000E+00 0. -1.
          1   -1    0    0  501    0  0.00000000000E+00 -0.00000000000E+00 -0.20411686184E+04  0.20411686184E+04  0.00000000000E+00 0.  1.
         23    2    1    2    0    0  0.85095506533E+02 -0.26322790606E+03 -0.10490985853E+04  0.10880865116E+04  0.82427176308E+02 0.  0.
        254    2    1    2    0    0 -0.85095506533E+02  0.26322790606E+03 -0.74131674903E+03  0.12038353909E+04  0.90727005364E+03 0.  0.
         23    2    4    4    0    0  0.29828273527E+03  0.26608920976E+03 -0.57054390627E+02  0.41370992969E+03  0.90136811159E+02 0.  0.
         23    2    4    4    0    0 -0.38337824180E+03 -0.28613036971E+01 -0.68426235840E+03  0.79012546121E+03  0.95374031995E+02 0.  0.
          1    1    3    3  502    0  0.33383153614E+01  0.58367482750E+01 -0.38921787088E+02  0.39498322623E+02  0.00000000000E+00 0. -1.
         -1    1    3    3    0  502  0.81757191171E+02 -0.26906465433E+03 -0.10101767982E+04  0.10485881890E+04  0.00000000000E+00 0.  1.
         11    1    5    5    0    0  0.20246879793E+03  0.13433501897E+03 -0.61854128194E+02  0.25072982398E+03  0.00000000000E+00 0. -1.
        -11    1    5    5    0    0  0.95813937344E+02  0.13175419078E+03  0.47997375677E+01  0.16298010571E+03  0.00000000000E+00 0.  1.
          3    1    6    6  503    0 -0.16360019243E+03  0.13750388734E+02 -0.20521125606E+03  0.26280364489E+03  0.00000000000E+00 0. -1.
         -3    1    6    6    0  503 -0.21977804937E+03 -0.16611692431E+02 -0.47905110234E+03  0.52732181632E+03  0.00000000000E+00 0.  1.
<mgrwt>
<rscale>  0 0.14308455E+04</rscale>
<asrwt>0</asrwt>
<pdfrwt beam="1">  1        1 0.31402594E+00 0.14308455E+04</pdfrwt>
<pdfrwt beam="2">  1       -1 0.38577429E-01 0.14308455E+04</pdfrwt>
<totfact> 0.17704476E+01</totfact>
</mgrwt>
</event>
<event>
12    2  0.3555611E-008  0.1552246E+04  0.7818608E-02  0.8850434E-01
         -2   -1    0    0    0  501 -0.00000000000E+00  0.00000000000E+00  0.14980975557E+03  0.14980975557E+03  0.00000000000E+00 0.  1.
          2   -1    0    0  501    0  0.00000000000E+00 -0.00000000000E+00 -0.40208814648E+04  0.40208814648E+04  0.00000000000E+00 0. -1.
         23    2    1    2    0    0 -0.34339870924E+03 -0.32511516755E+03 -0.78179031860E+03  0.91802636123E+03  0.89183810000E+02 0.  0.
        254    2    1    2    0    0  0.34339870924E+03  0.32511516755E+03 -0.30892813906E+04  0.32526648591E+04  0.90141368404E+03 0.  0.
         23    2    4    4    0    0  0.28811418987E+03  0.61080720792E+03 -0.24513015418E+04  0.25442897768E+04  0.91847635304E+02 0.  0.
         23    2    4    4    0    0  0.55284519373E+02 -0.28569204036E+03 -0.63797984884E+03  0.70837508230E+03  0.10050198853E+03 0.  0.
          2    1    3    3  502    0 -0.70371077016E+02 -0.71992417541E+02 -0.24384124588E+03  0.26380589427E+03  0.00000000000E+00 0. -1.
         -2    1    3    3    0  502 -0.27302763223E+03 -0.25312275001E+03 -0.53794907272E+03  0.65422046695E+03  0.00000000000E+00 0.  1.
         11    1    5    5    0    0  0.31605252102E+02  0.41556890893E+02 -0.28767907473E+03  0.29237838015E+03  0.00000000000E+00 0. -1.
        -11    1    5    5    0    0  0.25650893777E+03  0.56925031702E+03 -0.21636224670E+04  0.22519113967E+04  0.00000000000E+00 0.  1.
          3    1    6    6  503    0 -0.19745335436E+01 -0.44296557126E+02 -0.20143792928E+03  0.20626032849E+03  0.00000000000E+00 0. -1.
         -3    1    6    6    0  503  0.57259052917E+02 -0.24139548324E+03 -0.43654191955E+03  0.50211475381E+03  0.00000000000E+00 0.  1.
<mgrwt>
<rscale>  0 0.15522465E+04</rscale>
<asrwt>0</asrwt>
<pdfrwt beam="1">  1        2 0.61859713E+00 0.15522465E+04</pdfrwt>
<pdfrwt beam="2">  1       -2 0.23047655E-01 0.15522465E+04</pdfrwt>
<totfact> 0.53788588E+00</totfact>
</mgrwt>
</event>
<event>
12    2  0.3555611E-008  0.2294747E+04  0.7818608E-02  0.8479995E-01
         -1   -1    0    0    0  501 -0.00000000000E+00  0.00000000000E+00  0.19728864957E+04  0.19728864957E+04  0.00000000000E+00 0.  1.
          1   -1    0    0  501    0  0.00000000000E+00 -0.00000000000E+00 -0.66727901824E+03  0.66727901824E+03  0.00000000000E+00 0. -1.
         23    2    1    2    0    0 -0.81034620470E+03 -0.48274192116E+03  0.29280479466E+03  0.99215116492E+03  0.94491017303E+02 0.  0.
        254    2    1    2    0    0  0.81034620470E+03  0.48274192116E+03  0.10128026828E+04  0.16480143491E+04  0.89469619785E+03 0.  0.
         23    2    4    4    0    0  0.48462760379E+03  0.30584207566E+03  0.15734543241E+02  0.58047306637E+03  0.91093991769E+02 0.  0.
         23    2    4    4    0    0  0.32571860092E+03  0.17689984549E+03  0.99706813958E+03  0.10675412827E+04  0.90074152446E+02 0.  0.
          4    1    3    3  502    0 -0.79268578735E+03 -0.47360830382E+03  0.30015672072E+03  0.97095295453E+03  0.00000000000E+00 0. -1.
         -4    1    3    3    0  502 -0.17660417356E+02 -0.91336173372E+01 -0.73519260650E+01  0.21198210389E+02  0.00000000000E+00 0.  1.
         11    1    5    5    0    0  0.25190143493E+03  0.11083074182E+03  0.27788339708E+02  0.27660437104E+03  0.00000000000E+00 0. -1.
        -11    1    5    5    0    0  0.23272616886E+03  0.19501133384E+03 -0.12053796467E+02  0.30386869534E+03  0.00000000000E+00 0.  1.
          4    1    6    6  503    0  0.15218006488E+02  0.28119660995E+02  0.14610955881E+03  0.14956706265E+03  0.00000000000E+00 0. -1.
         -4    1    6    6    0  503  0.31050059443E+03  0.14878018450E+03  0.85095858078E+03  0.91797422003E+03  0.00000000000E+00 0.  1.
<mgrwt>
<rscale>  0 0.22947468E+04</rscale>
<asrwt>0</asrwt>
<pdfrwt beam="1">  1        1 0.10265831E+00 0.22947468E+04</pdfrwt>
<pdfrwt beam="2">  1       -1 0.30352100E+00 0.22947468E+04</pdfrwt>
<totfact> 0.83007139E-01</totfact>
</mgrwt>
</event>
<event>
12    2  0.3555611E-008  0.1228091E+04  0.7818608E-02  0.9088618E-01
          2   -1    0    0  501    0  0.00000000000E+00  0.00000000000E+00  0.15866513840E+04  0.15866513840E+04  0.00000000000E+00 0.  1.
         -2   -1    0    0    0  501 -0.00000000000E+00 -0.00000000000E+00 -0.23763992282E+03  0.23763992282E+03  0.00000000000E+00 0. -1.
         23    2    1    2    0    0 -0.13694692797E+03  0.25950196379E+03  0.35792520824E+03  0.47177560263E+03  0.91466027859E+02 0.  0.
        254    2    1    2    0    0  0.13694692797E+03 -0.25950196379E+03  0.99108625295E+03  0.13525157042E+04  0.87232507647E+03 0.  0.
         23    2    4    4    0    0 -0.82791083749E+02  0.20022266318E+02  0.97742812452E+03  0.98534884990E+03  0.91056920128E+02 0.  0.
         23    2    4    4    0    0  0.21973801172E+03 -0.27952423011E+03  0.13658128425E+02  0.36716685430E+03  0.90588991671E+02 0.  0.
          2    1    3    3  502    0 -0.77758821704E+02  0.10688611670E+03  0.97775349518E+02  0.16441135992E+03  0.00000000000E+00 0. -1.
         -2    1    3    3    0  502 -0.59188106261E+02  0.15261584710E+03  0.26014985872E+03  0.30736424272E+03  0.00000000000E+00 0.  1.
         11    1    5    5    0    0 -0.27585294115E+02  0.38075421650E+02  0.18812662221E+03  0.19391315625E+03  0.00000000000E+00 0.  1.
        -11    1    5    5    0    0 -0.55205789634E+02 -0.18053155332E+02  0.78930150232E+03  0.79143569365E+03  0.00000000000E+00 0. -1.
          3    1    6    6  503    0  0.94802530668E+02 -0.13956514150E+03  0.50206530319E+02  0.17603023669E+03  0.00000000000E+00 0.  1.
         -3    1    6    6    0  503  0.12493548105E+03 -0.13995908861E+03 -0.36548401894E+02  0.19113661761E+03  0.00000000000E+00 0. -1.
<mgrwt>
<rscale>  0 0.12280907E+04</rscale>
<asrwt>0</asrwt>
<pdfrwt beam="1">  1        2 0.24410021E+00 0.12280907E+04</pdfrwt>
<pdfrwt beam="2">  1       -2 0.36559989E-01 0.12280907E+04</pdfrwt>
<totfact> 0.78689487E+01</totfact>
</mgrwt>
</event>
<event>
12    2  0.3555611E-008  0.2898842E+04  0.7818608E-02  0.8273222E-01
          2   -1    0    0  501    0  0.00000000000E+00  0.00000000000E+00  0.24161085081E+04  0.24161085081E+04  0.00000000000E+00 0. -1.
         -2   -1    0    0    0  501 -0.00000000000E+00 -0.00000000000E+00 -0.86950591212E+03  0.86950591212E+03  0.00000000000E+00 0.  1.
         23    2    1    2    0    0 -0.34030438384E+03  0.52114379476E+03 -0.59771961468E+03  0.86769162920E+03  0.90675780289E+02 0.  0.
        254    2    1    2    0    0  0.34030438384E+03 -0.52114379476E+03  0.21443222107E+04  0.24179227910E+04  0.92781191613E+03 0.  0.
         23    2    4    4    0    0  0.39337045842E+03 -0.26668604406E+02  0.29526748874E+03  0.50097671864E+03  0.91341396367E+02 0.  0.
         23    2    4    4    0    0 -0.53066074581E+02 -0.49447519036E+03  0.18490547219E+04  0.19169460724E+04  0.91417490746E+02 0.  0.
          3    1    3    3  502    0 -0.14798598626E+03  0.29707875948E+03 -0.34898869688E+03  0.48161058130E+03  0.00000000000E+00 0. -1.
         -3    1    3    3    0  502 -0.19231839758E+03  0.22406503528E+03 -0.24873091780E+03  0.38608104791E+03  0.00000000000E+00 0.  1.
         11    1    5    5    0    0  0.31280070538E+03 -0.15618905638E+02  0.18427790326E+03  0.36338213650E+03  0.00000000000E+00 0.  1.
        -11    1    5    5    0    0  0.80569753046E+02 -0.11049698768E+02  0.11098958548E+03  0.13759458214E+03  0.00000000000E+00 0. -1.
          2    1    6    6  503    0  0.22027487714E+02 -0.17395921400E+03  0.70413208161E+03  0.72563696619E+03  0.00000000000E+00 0. -1.
         -2    1    6    6    0  503 -0.75093562295E+02 -0.32051597636E+03  0.11449226403E+04  0.11913091062E+04  0.00000000000E+00 0.  1.
<mgrwt>
<rscale>  0 0.28988416E+04</rscale>
<asrwt>0</asrwt>
<pdfrwt beam="1">  1        2 0.37170900E+00 0.28988416E+04</pdfrwt>
<pdfrwt beam="2">  1       -2 0.13377014E+00 0.28988416E+04</pdfrwt>
<totfact> 0.13563546E+00</totfact>
</mgrwt>
</event>
<event>
12    2  0.3555611E-008  0.1522031E+04  0.7818608E-02  0.8869933E-01
          2   -1    0    0  501    0  0.00000000000E+00  0.00000000000E+00  0.28062968059E+04  0.28062968059E+04  0.00000000000E+00 0.  1.
         -2   -1    0    0    0  501 -0.00000000000E+00 -0.00000000000E+00 -0.20637321284E+03  0.20637321284E+03  0.00000000000E+00 0. -1.
         23    2    1    2    0    0  0.15850600023E+03  0.17355691839E+01  0.17664544504E+04  0.17757870225E+04  0.89056496382E+02 0.  0.
        254    2    1    2    0    0 -0.15850600023E+03 -0.17355691839E+01  0.83346914260E+03  0.12368829962E+04  0.90004531569E+03 0.  0.
         23    2    4    4    0    0 -0.28076944543E+03  0.98933064087E+02  0.96356083307E+03  0.10124090167E+04  0.88900536997E+02 0.  0.
         23    2    4    4    0    0  0.12226344520E+03 -0.10066863327E+03 -0.13009169048E+03  0.22447397946E+03  0.91554332315E+02 0.  0.
          2    1    3    3  502    0  0.14508241882E+03  0.49319363599E+01  0.11432103485E+04  0.11523901827E+04  0.00000000000E+00 0.  1.
         -2    1    3    3    0  502  0.13423581415E+02 -0.31963671759E+01  0.62324410189E+03  0.62339683977E+03  0.00000000000E+00 0. -1.
         11    1    5    5    0    0 -0.12531949307E+03  0.58170577740E+02  0.58604669549E+03  0.60211254824E+03  0.00000000000E+00 0.  1.
        -11    1    5    5    0    0 -0.15544995236E+03  0.40762486347E+02  0.37751413758E+03  0.41029646849E+03  0.00000000000E+00 0. -1.
          3    1    6    6  503    0  0.11928593594E+03 -0.99121528100E+02 -0.80448297072E+02  0.17471731554E+03  0.00000000000E+00 0. -1.
         -3    1    6    6    0  503  0.29775092558E+01 -0.15471051711E+01 -0.49643393404E+02  0.49756663920E+02  0.00000000000E+00 0.  1.
<mgrwt>
<rscale>  0 0.15220309E+04</rscale>
<asrwt>0</asrwt>
<pdfrwt beam="1">  1        2 0.43173794E+00 0.15220309E+04</pdfrwt>
<pdfrwt beam="2">  1       -2 0.31749727E-01 0.15220309E+04</pdfrwt>
<totfact> 0.20487982E+01</totfact>
</mgrwt>
</event>
<event>
12    2  0.3555611E-008  0.1096089E+04  0.7818608E-02  0.9209012E-01
         -2   -1    0    0    0  501 -0.00000000000E+00  0.00000000000E+00  0.14631881525E+03  0.14631881525E+03  0.00000000000E+00 0.  1.
          2   -1    0    0  501    0  0.00000000000E+00 -0.00000000000E+00 -0.20527288649E+04  0.20527288649E+04  0.00000000000E+00 0. -1.
         23    2    1    2    0    0  0.72710020607E+02 -0.10100529497E+03 -0.42203849854E+03  0.44989414045E+03  0.93805259202E+02 0.  0.
        254    2    1    2    0    0 -0.72710020607E+02  0.10100529497E+03 -0.14843715511E+04  0.17491535397E+04  0.91689169863E+03 0.  0.
         23    2    4    4    0    0 -0.15840500090E+03 -0.26900374211E+03 -0.14896542217E+03  0.35782722436E+03  0.91621328875E+02 0.  0.
         23    2    4    4    0    0  0.85694980298E+02  0.37000903709E+03 -0.13354061290E+04  0.13913263154E+04  0.90714218378E+02 0.  0.
          4    1    3    3  502    0  0.62449694980E+02 -0.11651542841E+03 -0.39874689623E+03  0.42008915329E+03  0.00000000000E+00 0.  1.
         -4    1    3    3    0  502  0.10260325627E+02  0.15510133441E+02 -0.23291602308E+02  0.29804987157E+02  0.00000000000E+00 0. -1.
         11    1    5    5    0    0 -0.15021421989E+02 -0.14037029733E+02 -0.41281839950E+02  0.46118018518E+02  0.00000000000E+00 0. -1.
        -11    1    5    5    0    0 -0.14338357891E+03 -0.25496671238E+03 -0.10768358222E+03  0.31170920584E+03  0.00000000000E+00 0.  1.
          1    1    6    6  503    0  0.89191703949E+01  0.17134504567E+02 -0.22477660812E+02  0.29637612638E+02  0.00000000000E+00 0. -1.
         -1    1    6    6    0  503  0.76775809903E+02  0.35287453252E+03 -0.13129284681E+04  0.13616887027E+04  0.00000000000E+00 0.  1.
<mgrwt>
<rscale>  0 0.10960891E+04</rscale>
<asrwt>0</asrwt>
<pdfrwt beam="1">  1        2 0.31580443E+00 0.10960891E+04</pdfrwt>
<pdfrwt beam="2">  1       -2 0.22510588E-01 0.10960891E+04</pdfrwt>
<totfact> 0.10776579E+02</totfact>
</mgrwt>
</event>
<event>
12    2  0.3555611E-008  0.1104679E+04  0.7818608E-02  0.9200643E-01
         -1   -1    0    0    0  501 -0.00000000000E+00  0.00000000000E+00  0.11325831901E+04  0.11325831901E+04  0.00000000000E+00 0.  1.
          1   -1    0    0  501    0  0.00000000000E+00 -0.00000000000E+00 -0.26936581897E+03  0.26936581897E+03  0.00000000000E+00 0. -1.
         23    2    1    2    0    0  0.97332934592E+02  0.10879987570E+03 -0.90052992847E+02  0.19344186219E+03  0.89437684559E+02 0.  0.
        254    2    1    2    0    0 -0.97332934592E+02 -0.10879987570E+03  0.95327036397E+03  0.12085071469E+04  0.72832274720E+03 0.  0.
         23    2    4    4    0    0 -0.36023401714E+03 -0.95787649091E+02  0.26424688769E+03  0.46564378032E+03  0.89743477033E+02 0.  0.
         23    2    4    4    0    0  0.26290108255E+03 -0.13012226609E+02  0.68902347628E+03  0.74286336654E+03  0.88353456310E+02 0.  0.
          3    1    3    3  502    0  0.84142345463E+02  0.61414463328E+02 -0.98696085563E+02  0.14350117739E+03  0.00000000000E+00 0. -1.
         -3    1    3    3    0  502  0.13190589128E+02  0.47385412371E+02  0.86430927162E+01  0.49940684805E+02  0.00000000000E+00 0.  1.
         11    1    5    5    0    0 -0.23278786782E+03 -0.56117883283E+02  0.11571745157E+03  0.26595100456E+03  0.00000000000E+00 0. -1.
        -11    1    5    5    0    0 -0.12744614932E+03 -0.39669765807E+02  0.14852943612E+03  0.19969277576E+03  0.00000000000E+00 0.  1.
          2    1    6    6  503    0  0.23481349160E+03 -0.26145255092E+02  0.65743694651E+03  0.69860166679E+03  0.00000000000E+00 0. -1.
         -2    1    6    6    0  503  0.28087590947E+02  0.13133028483E+02  0.31586529766E+02  0.44261699753E+02  0.00000000000E+00 0.  1.
<mgrwt>
<rscale>  0 0.11046795E+04</rscale>
<asrwt>0</asrwt>
<pdfrwt beam="1">  1        1 0.41440896E-01 0.11046795E+04</pdfrwt>
<pdfrwt beam="2">  1       -1 0.17424356E+00 0.11046795E+04</pdfrwt>
<totfact> 0.23031693E+01</totfact>
</mgrwt>
</event>
<event>
12    2  0.3555611E-008  0.1073720E+04  0.7818608E-02  0.9231192E-01
          2   -1    0    0  501    0  0.00000000000E+00  0.00000000000E+00  0.13619300582E+04  0.13619300582E+04  0.00000000000E+00 0. -1.
         -2   -1    0    0    0  501 -0.00000000000E+00 -0.00000000000E+00 -0.21162501049E+03  0.21162501049E+03  0.00000000000E+00 0.  1.
         23    2    1    2    0    0  0.38875960750E+02  0.35693143358E+01 -0.17423702069E+02  0.10165103110E+03  0.92224001214E+02 0.  0.
        254    2    1    2    0    0 -0.38875960750E+02 -0.35693143358E+01  0.11677287498E+04  0.14719040376E+04  0.89520220200E+03 0.  0.
         23    2    4    4    0    0  0.41284419258E+03  0.71289725027E+02  0.57282185821E+03  0.71546419884E+03  0.90783183191E+02 0.  0.
         23    2    4    4    0    0 -0.45172015333E+03 -0.74859039363E+02  0.59490689157E+03  0.75643983874E+03  0.92908811741E+02 0.  0.
          2    1    3    3  502    0  0.32095147482E+02  0.93845573373E+01  0.35038277380E+02  0.48433968349E+02  0.00000000000E+00 0. -1.
         -2    1    3    3    0  502  0.67808132679E+01 -0.58152430015E+01 -0.52461979448E+02  0.53217062747E+02  0.00000000000E+00 0.  1.
         11    1    5    5    0    0  0.29854273548E+03  0.55803057728E+02  0.47712933426E+03  0.56559185617E+03  0.00000000000E+00 0. -1.
        -11    1    5    5    0    0  0.11430145709E+03  0.15486667299E+02  0.95692523950E+02  0.14987234267E+03  0.00000000000E+00 0.  1.
          2    1    6    6  503    0 -0.14567539483E+03 -0.49191786190E+02  0.14250093412E+03  0.20963699271E+03  0.00000000000E+00 0. -1.
         -2    1    6    6    0  503 -0.30604475849E+03 -0.25667253173E+02  0.45240595745E+03  0.54680284603E+03  0.00000000000E+00 0.  1.
<mgrwt>
<rscale>  0 0.10737196E+04</rscale>
<asrwt>0</asrwt>
<pdfrwt beam="1">  1        2 0.20952770E+00 0.10737196E+04</pdfrwt>
<pdfrwt beam="2">  1       -2 0.32557695E-01 0.10737196E+04</pdfrwt>
<totfact> 0.13291276E+02</totfact>
</mgrwt>
</event>
<event>
12    2  0.3555611E-008  0.1656121E+04  0.7818608E-02  0.8786793E-01
         -2   -1    0    0    0  501 -0.00000000000E+00  0.00000000000E+00  0.18851031910E+03  0.18851031910E+03  0.00000000000E+00 0.  1.
          2   -1    0    0  501    0  0.00000000000E+00 -0.00000000000E+00 -0.36373834367E+04  0.36373834367E+04  0.00000000000E+00 0. -1.
         23    2    1    2    0    0  0.15748907008E+03  0.51821940480E+03 -0.16830443809E+04  0.17694304343E+04  0.69939367045E+02 0.  0.
        254    2    1    2    0    0 -0.15748907008E+03 -0.51821940480E+03 -0.17658287366E+04  0.20564633214E+04  0.90417703275E+03 0.  0.
         23    2    4    4    0    0  0.98689223167E+02 -0.54111691929E+03 -0.16810133960E+04  0.17707747425E+04  0.85381895143E+02 0.  0.
         23    2    4    4    0    0 -0.25617829324E+03  0.22897514487E+02 -0.84815340631E+02  0.28568857893E+03  0.90954428289E+02 0.  0.
          2    1    3    3  502    0  0.53491121909E+02  0.84758179906E+02 -0.32416893131E+03  0.33930921769E+03  0.00000000000E+00 0. -1.
         -2    1    3    3    0  502  0.10399794817E+03  0.43346122490E+03 -0.13588754496E+04  0.14301212166E+04  0.00000000000E+00 0.  1.
         11    1    5    5    0    0  0.51722093016E+02 -0.37336296752E+03 -0.10279969290E+04  0.10949213517E+04  0.00000000000E+00 0.  1.
        -11    1    5    5    0    0  0.46967130151E+02 -0.16775395177E+03 -0.65301646698E+03  0.67585339075E+03  0.00000000000E+00 0. -1.
          3    1    6    6  503    0 -0.20264800843E+03 -0.17468816746E+02 -0.79673841817E+02  0.21844746726E+03  0.00000000000E+00 0. -1.
         -3    1    6    6    0  503 -0.53530284811E+02  0.40366331233E+02 -0.51414988140E+01  0.67241111674E+02  0.00000000000E+00 0.  1.
<mgrwt>
<rscale>  0 0.16561211E+04</rscale>
<asrwt>0</asrwt>
<pdfrwt beam="1">  1        2 0.55959746E+00 0.16561211E+04</pdfrwt>
<pdfrwt beam="2">  1       -2 0.29001587E-01 0.16561211E+04</pdfrwt>
<totfact> 0.68515351E+00</totfact>
</mgrwt>
</event>
<event>
12    2  0.3555611E-008  0.2421906E+04  0.7818608E-02  0.8431348E-01
          2   -1    0    0  501    0  0.00000000000E+00  0.00000000000E+00  0.37734944379E+04  0.37734944379E+04  0.00000000000E+00 0. -1.
         -2   -1    0    0    0  501 -0.00000000000E+00 -0.00000000000E+00 -0.38860722408E+03  0.38860722408E+03  0.00000000000E+00 0.  1.
         23    2    1    2    0    0  0.82268818377E+03 -0.19407929192E+03  0.25143230856E+04  0.26542093984E+04  0.92327313576E+02 0.  0.
        254    2    1    2    0    0 -0.82268818377E+03  0.19407929192E+03  0.87056412820E+03  0.15078922635E+04  0.89519526236E+03 0.  0.
         23    2    4    4    0    0 -0.71970492007E+02 -0.19923331233E+03 -0.66288858512E+02  0.24116994793E+03  0.94313660519E+02 0.  0.
         23    2    4    4    0    0 -0.75071769177E+03  0.39331260425E+03  0.93685298672E+03  0.12667223156E+04  0.92844217215E+02 0.  0.
          1    1    3    3  502    0  0.38358360178E+03 -0.12539967336E+03  0.10995749411E+04  0.11712926657E+04  0.00000000000E+00 0.  1.
         -1    1    3    3    0  502  0.43910458200E+03 -0.68679618559E+02  0.14147481445E+04  0.14829167328E+04  0.00000000000E+00 0. -1.
         11    1    5    5    0    0 -0.35262294219E+02 -0.79058426038E+02 -0.75925259053E+02  0.11514473103E+03  0.00000000000E+00 0. -1.
        -11    1    5    5    0    0 -0.36708197788E+02 -0.12017488629E+03  0.96364005408E+01  0.12602521690E+03  0.00000000000E+00 0.  1.
          4    1    6    6  503    0 -0.51213436645E+03  0.27948158367E+03  0.70499556595E+03  0.91510125829E+03  0.00000000000E+00 0. -1.
         -4    1    6    6    0  503 -0.23858332532E+03  0.11383102058E+03  0.23185742076E+03  0.35162105729E+03  0.00000000000E+00 0.  1.
<mgrwt>
<rscale>  0 0.24219060E+04</rscale>
<asrwt>0</asrwt>
<pdfrwt beam="1">  1        2 0.58053758E+00 0.24219060E+04</pdfrwt>
<pdfrwt beam="2">  1       -2 0.59785729E-01 0.24219060E+04</pdfrwt>
<totfact> 0.12085888E+00</totfact>
</mgrwt>
</event>
<event>
12    2  0.3555611E-008  0.1594726E+04  0.7818608E-02  0.8823794E-01
         -2   -1    0    0    0  501 -0.00000000000E+00  0.00000000000E+00  0.27115341393E+03  0.27115341393E+03  0.00000000000E+00 0.  1.
          2   -1    0    0  501    0  0.00000000000E+00 -0.00000000000E+00 -0.23447535968E+04  0.23447535968E+04  0.00000000000E+00 0. -1.
         23    2    1    2    0    0 -0.39258503352E+03 -0.52157459857E+02 -0.12826782554E+04  0.13465742712E+04  0.10561889914E+03 0.  0.
        254    2    1    2    0    0  0.39258503352E+03  0.52157459857E+02 -0.79092192751E+03  0.12693327395E+04  0.91038711497E+03 0.  0.
         23    2    4    4    0    0  0.16876071446E+03 -0.21364138157E+03  0.10303722560E+03  0.30618180546E+03  0.94909480413E+02 0.  0.
         23    2    4    4    0    0  0.22382431906E+03  0.26579884143E+03 -0.89395915311E+03  0.96315093409E+03  0.88036381623E+02 0.  0.
          1    1    3    3  502    0 -0.35081212915E+03 -0.70313764572E+02 -0.10445118491E+04  0.11040915624E+04  0.00000000000E+00 0. -1.
         -1    1    3    3    0  502 -0.41772904370E+02  0.18156304715E+02 -0.23816640633E+03  0.24248270876E+03  0.00000000000E+00 0.  1.
         11    1    5    5    0    0 -0.10413805979E+02 -0.19089820932E+02  0.18388974767E+02  0.28478465745E+02  0.00000000000E+00 0. -1.
        -11    1    5    5    0    0  0.17917452044E+03 -0.19455156064E+03  0.84648250836E+02  0.27770333972E+03  0.00000000000E+00 0.  1.
          1    1    6    6  503    0  0.33656724763E+02  0.43184283601E+02 -0.24747213936E+03  0.25345634186E+03  0.00000000000E+00 0. -1.
         -1    1    6    6    0  503  0.19016759430E+03  0.22261455783E+03 -0.64648701375E+03  0.70969459222E+03  0.00000000000E+00 0.  1.
<mgrwt>
<rscale>  0 0.15947262E+04</rscale>
<asrwt>0</asrwt>
<pdfrwt beam="1">  1        2 0.36073132E+00 0.15947262E+04</pdfrwt>
<pdfrwt beam="2">  1       -2 0.41715910E-01 0.15947262E+04</pdfrwt>
<totfact> 0.22363613E+01</totfact>
</mgrwt>
</event>
<event>
12    2  0.3555611E-008  0.2249644E+04  0.7818608E-02  0.8498045E-01
         -2   -1    0    0    0  501 -0.00000000000E+00  0.00000000000E+00  0.10843738560E+04  0.10843738560E+04  0.00000000000E+00 0.  1.
          2   -1    0    0  501    0  0.00000000000E+00 -0.00000000000E+00 -0.11667789662E+04  0.11667789662E+04  0.00000000000E+00 0. -1.
         23    2    1    2    0    0  0.18637201601E+03 -0.11385581852E+03 -0.94692749474E+03  0.97700075955E+03  0.10080242104E+03 0.  0.
        254    2    1    2    0    0 -0.18637201601E+03  0.11385581852E+03  0.86452238449E+03  0.12741520626E+04  0.91014660891E+03 0.  0.
         23    2    4    4    0    0 -0.40606609129E+03 -0.21429826070E+03  0.68863794153E+03  0.83211461362E+03  0.85901691752E+02 0.  0.
         23    2    4    4    0    0  0.21969407528E+03  0.32815407923E+03  0.17588444295E+03  0.44203744903E+03  0.92256071024E+02 0.  0.
          1    1    3    3  502    0  0.16980036143E+03 -0.67080325791E+02 -0.61977447365E+03  0.64610551077E+03  0.00000000000E+00 0. -1.
         -1    1    3    3    0  502  0.16571654577E+02 -0.46775492733E+02 -0.32715302109E+03  0.33089524878E+03  0.00000000000E+00 0.  1.
         11    1    5    5    0    0 -0.11100969751E+03 -0.34110380074E+02  0.12279497713E+03  0.16901265449E+03  0.00000000000E+00 0.  1.
        -11    1    5    5    0    0 -0.29505639378E+03 -0.18018788063E+03  0.56584296441E+03  0.66310195913E+03  0.00000000000E+00 0. -1.
          2    1    6    6  503    0  0.22006500035E+03  0.33319802860E+03  0.16926041367E+03  0.43370337591E+03  0.00000000000E+00 0. -1.
         -2    1    6    6    0  503 -0.37092506547E+00 -0.50439493749E+01  0.66240292850E+01  0.83340731140E+01  0.00000000000E+00 0.  1.
<mgrwt>
<rscale>  0 0.22496441E+04</rscale>
<asrwt>0</asrwt>
<pdfrwt beam="1">  1        2 0.17950446E+00 0.22496441E+04</pdfrwt>
<pdfrwt beam="2">  1       -2 0.16682675E+00 0.22496441E+04</pdfrwt>
<totfact> 0.40547731E+00</totfact>
</mgrwt>
</event>
<event>
12    2  0.3555611E-008  0.1504002E+04  0.7818608E-02  0.8881796E-01
         -1   -1    0    0    0  501 -0.00000000000E+00  0.00000000000E+00  0.36868598176E+03  0.36868598176E+03  0.00000000000E+00 0.  1.
          1   -1    0    0  501    0  0.00000000000E+00 -0.00000000000E+00 -0.15338409079E+04  0.15338409079E+04  0.00000000000E+00 0. -1.
         23    2    1    2    0    0  0.20506724019E+03 -0.41848175968E+03 -0.91005983318E+02  0.48191851074E+03  0.82363862253E+02 0.  0.
        254    2    1    2    0    0 -0.20506724019E+03  0.41848175968E+03 -0.10741489429E+04  0.14206083790E+04  0.80445799065E+03 0.  0.
         23    2    4    4    0    0  0.13749098341E+03 -0.78425177772E+02 -0.20918886104E+01  0.18739673038E+03  0.10029396559E+03 0.  0.
         23    2    4    4    0    0 -0.34255822359E+03  0.49690693746E+03 -0.10720570543E+04  0.12332116486E+04  0.85099950418E+02 0.  0.
          3    1    3    3  502    0  0.69260422597E+02 -0.93337446013E+02  0.61896987576E+01  0.11639242818E+03  0.00000000000E+00 0. -1.
         -3    1    3    3    0  502  0.13580681759E+03 -0.32514431367E+03 -0.97195682075E+02  0.36552608256E+03  0.00000000000E+00 0.  1.
         11    1    5    5    0    0  0.14733726009E+03 -0.84136461582E+02 -0.14828731644E+02  0.17031471945E+03  0.00000000000E+00 0.  1.
        -11    1    5    5    0    0 -0.98462766813E+01  0.57112838099E+01  0.12736843034E+02  0.17082010939E+02  0.00000000000E+00 0. -1.
          1    1    6    6  503    0 -0.95515468262E+01  0.52142091432E+02 -0.11346076304E+03  0.12523328030E+03  0.00000000000E+00 0. -1.
         -1    1    6    6    0  503 -0.33300667677E+03  0.44476484602E+03 -0.95859629122E+03  0.11079783683E+04  0.00000000000E+00 0.  1.
<mgrwt>
<rscale>  0 0.15040022E+04</rscale>
<asrwt>0</asrwt>
<pdfrwt beam="1">  1        1 0.23597553E+00 0.15040022E+04</pdfrwt>
<pdfrwt beam="2">  1       -1 0.56720920E-01 0.15040022E+04</pdfrwt>
<totfact> 0.18856674E+01</totfact>
</mgrwt>
</event>
<event>
12    2  0.3555611E-008  0.1485451E+04  0.7818608E-02  0.8894186E-01
         -1   -1    0    0    0  501 -0.00000000000E+00  0.00000000000E+00  0.72369853816E+03  0.72369853816E+03  0.00000000000E+00 0.  1.
          1   -1    0    0  501    0  0.00000000000E+00 -0.00000000000E+00 -0.76225288034E+03  0.76225288034E+03  0.00000000000E+00 0. -1.
         23    2    1    2    0    0  0.28398771100E+03 -0.35510135097E+03  0.12660796339E+03  0.48084315239E+03  0.91839922379E+02 0.  0.
        254    2    1    2    0    0 -0.28398771100E+03  0.35510135097E+03 -0.16516230558E+03  0.10051082661E+04  0.88103237736E+03 0.  0.
         23    2    4    4    0    0 -0.76342304729E+02 -0.28708478558E+03 -0.40836069361E+02  0.31294304819E+03  0.89554147006E+02 0.  0.
         23    2    4    4    0    0 -0.20764540627E+03  0.64218613655E+03 -0.12432623622E+03  0.69216521792E+03  0.90088995788E+02 0.  0.
          4    1    3    3  502    0  0.22747946610E+03 -0.31501321706E+03  0.13433947554E+03  0.41112933380E+03  0.00000000000E+00 0. -1.
         -4    1    3    3    0  502  0.56508244900E+02 -0.40088133911E+02 -0.77315121512E+01  0.69713818589E+02  0.00000000000E+00 0.  1.
         11    1    5    5    0    0 -0.62077361366E+02 -0.27829100512E+03 -0.55726844962E+02  0.29052532346E+03  0.00000000000E+00 0.  1.
        -11    1    5    5    0    0 -0.14264943363E+02 -0.87937804641E+01  0.14890775600E+02  0.22417724728E+02  0.00000000000E+00 0. -1.
          3    1    6    6  503    0 -0.73514092132E+02  0.32434215835E+03 -0.95327149051E+02  0.34596159147E+03  0.00000000000E+00 0. -1.
         -3    1    6    6    0  503 -0.13413131414E+03  0.31784397820E+03 -0.28999087165E+02  0.34620362645E+03  0.00000000000E+00 0.  1.
<mgrwt>
<rscale>  0 0.14854512E+04</rscale>
<asrwt>0</asrwt>
<pdfrwt beam="1">  1        1 0.11726967E+00 0.14854512E+04</pdfrwt>
<pdfrwt beam="2">  1       -1 0.11133824E+00 0.14854512E+04</pdfrwt>
<totfact> 0.17155702E+01</totfact>
</mgrwt>
</event>
<event>
12    2  0.3555611E-008  0.2695056E+04  0.7818608E-02  0.8336611E-01
         -1   -1    0    0    0  501 -0.00000000000E+00  0.00000000000E+00  0.12959901220E+04  0.12959901220E+04  0.00000000000E+00 0.  1.
          1   -1    0    0  501    0  0.00000000000E+00 -0.00000000000E+00 -0.14011154539E+04  0.14011154539E+04  0.00000000000E+00 0. -1.
         23    2    1    2    0    0 -0.99866341443E+03 -0.65362994995E+03 -0.73684561877E+02  0.11992377896E+04  0.90449623855E+02 0.  0.
        254    2    1    2    0    0  0.99866341443E+03  0.65362994995E+03 -0.31440769997E+02  0.14978677863E+04  0.90446595103E+03 0.  0.
         23    2    4    4    0    0  0.25402322483E+03  0.34333079260E+03 -0.41260274024E+03  0.60096886991E+03  0.92296963422E+02 0.  0.
         23    2    4    4    0    0  0.74464018960E+03  0.31029915735E+03  0.38116197024E+03  0.89689891643E+03  0.91480269533E+02 0.  0.
          1    1    3    3  502    0 -0.31123581165E+03 -0.23209136065E+03  0.11156476128E+02  0.38840519705E+03  0.00000000000E+00 0. -1.
         -1    1    3    3    0  502 -0.68742760279E+03 -0.42153858930E+03 -0.84841038004E+02  0.81083259251E+03  0.00000000000E+00 0.  1.
         11    1    5    5    0    0  0.12842063085E+03  0.23904555144E+03 -0.22699630659E+03  0.35378235866E+03  0.00000000000E+00 0.  1.
        -11    1    5    5    0    0  0.12560259397E+03  0.10428524116E+03 -0.18560643365E+03  0.24718651126E+03  0.00000000000E+00 0. -1.
          1    1    6    6  503    0  0.30081233979E+03  0.16790664700E+03  0.13733270834E+03  0.37086517585E+03  0.00000000000E+00 0. -1.
         -1    1    6    6    0  503  0.44382784981E+03  0.14239251035E+03  0.24382926190E+03  0.52603374058E+03  0.00000000000E+00 0.  1.
<mgrwt>
<rscale>  0 0.26950561E+04</rscale>
<asrwt>0</asrwt>
<pdfrwt beam="1">  1        1 0.21555622E+00 0.26950561E+04</pdfrwt>
<pdfrwt beam="2">  1       -1 0.19938310E+00 0.26950561E+04</pdfrwt>
<totfact> 0.10182250E+00</totfact>
</mgrwt>
</event>
<event>
12    2  0.3555611E-008  0.3361245E+04  0.7818608E-02  0.8147484E-01
          2   -1    0    0  501    0  0.00000000000E+00  0.00000000000E+00  0.23694325311E+04  0.23694325311E+04  0.00000000000E+00 0.  1.
         -2   -1    0    0    0  501 -0.00000000000E+00 -0.00000000000E+00 -0.11920542216E+04  0.11920542216E+04  0.00000000000E+00 0. -1.
         23    2    1    2    0    0  0.10723438403E+04  0.23055593921E+03  0.17202712207E+04  0.20422261035E+04  0.90978196076E+02 0.  0.
        254    2    1    2    0    0 -0.10723438403E+04 -0.23055593921E+03 -0.54289291125E+03  0.15192606492E+04  0.90019045433E+03 0.  0.
         23    2    4    4    0    0 -0.95558595335E+01  0.20848656708E+03 -0.23091532680E+03  0.32432923179E+03  0.91157003791E+02 0.  0.
         23    2    4    4    0    0 -0.10627879808E+04 -0.43904250629E+03 -0.31197758445E+03  0.11949314174E+04  0.90854084241E+02 0.  0.
          1    1    3    3  502    0  0.85123657684E+02  0.10523806568E+02  0.18234107924E+03  0.20150696460E+03  0.00000000000E+00 0. -1.
         -1    1    3    3    0  502  0.98722018263E+03  0.22003213264E+03  0.15379301415E+04  0.18407191389E+04  0.00000000000E+00 0.  1.
         11    1    5    5    0    0  0.78358795630E+01  0.10324065634E+02 -0.62069381460E+02  0.63408165519E+02  0.00000000000E+00 0. -1.
        -11    1    5    5    0    0 -0.17391739096E+02  0.19816250144E+03 -0.16884594534E+03  0.26092106627E+03  0.00000000000E+00 0.  1.
          3    1    6    6  503    0 -0.74481305065E+03 -0.27364470980E+03 -0.18582796950E+03  0.81496008606E+03  0.00000000000E+00 0. -1.
         -3    1    6    6    0  503 -0.31797493013E+03 -0.16539779648E+03 -0.12614961495E+03  0.37997133132E+03  0.00000000000E+00 0.  1.
<mgrwt>
<rscale>  0 0.33612450E+04</rscale>
<asrwt>0</asrwt>
<pdfrwt beam="1">  1        2 0.36452808E+00 0.33612450E+04</pdfrwt>
<pdfrwt beam="2">  1       -2 0.18339296E+00 0.33612450E+04</pdfrwt>
<totfact> 0.59104024E-01</totfact>
</mgrwt>
</event>
<event>
12    2  0.3555611E-008  0.3968696E+04  0.7818608E-02  0.8010891E-01
          2   -1    0    0  501    0  0.00000000000E+00  0.00000000000E+00  0.22700423576E+04  0.22700423576E+04  0.00000000000E+00 0. -1.
         -2   -1    0    0    0  501 -0.00000000000E+00 -0.00000000000E+00 -0.17346094327E+04  0.17346094327E+04  0.00000000000E+00 0.  1.
         23    2    1    2    0    0 -0.18024460562E+04  0.45450892511E+03  0.55052128932E+03  0.19408306243E+04  0.91431251539E+02 0.  0.
        254    2    1    2    0    0  0.18024460562E+04 -0.45450892511E+03 -0.15088364407E+02  0.20638211659E+04  0.89651547551E+03 0.  0.
         23    2    4    4    0    0  0.11159174664E+04 -0.40961083187E+03 -0.41548420779E+03  0.12625186906E+04  0.90958737500E+02 0.  0.
         23    2    4    4    0    0  0.68652858982E+03 -0.44898093244E+02  0.40039584338E+03  0.80130247533E+03  0.91823102545E+02 0.  0.
          1    1    3    3  502    0 -0.16323296743E+04  0.38916870999E+03  0.51335152319E+03  0.17548453598E+04  0.00000000000E+00 0. -1.
         -1    1    3    3    0  502 -0.17011638185E+03  0.65340215120E+02  0.37169766127E+02  0.18598526447E+03  0.00000000000E+00 0.  1.
         11    1    5    5    0    0  0.11142065637E+04 -0.41293622426E+03 -0.41283991007E+03  0.12579385451E+04  0.00000000000E+00 0. -1.
        -11    1    5    5    0    0  0.17109026407E+01  0.33253923917E+01 -0.26442977166E+01  0.45801455019E+01  0.00000000000E+00 0.  1.
          1    1    6    6  503    0  0.40510682281E+03 -0.36605625204E+02  0.18519741225E+03  0.44693354225E+03  0.00000000000E+00 0. -1.
         -1    1    6    6    0  503  0.28142176701E+03 -0.82924680399E+01  0.21519843113E+03  0.35436893308E+03  0.00000000000E+00 0.  1.
<mgrwt>
<rscale>  0 0.39686960E+04</rscale>
<asrwt>0</asrwt>
<pdfrwt beam="1">  1        2 0.34923729E+00 0.39686960E+04</pdfrwt>
<pdfrwt beam="2">  1       -2 0.26686299E+00 0.39686960E+04</pdfrwt>
<totfact> 0.18887865E-01</totfact>
</mgrwt>
</event>
<event>
12    2  0.3555611E-008  0.2406016E+04  0.7818608E-02  0.8437255E-01
          2   -1    0    0  501    0  0.00000000000E+00  0.00000000000E+00  0.17464240262E+04  0.17464240262E+04  0.00000000000E+00 0. -1.
         -2   -1    0    0    0  501 -0.00000000000E+00 -0.00000000000E+00 -0.82868112665E+03  0.82868112665E+03  0.00000000000E+00 0.  1.
         23    2    1    2    0    0 -0.11388628976E+03  0.67880330701E+02 -0.70426510534E+03  0.72246402593E+03  0.91581132702E+02 0.  0.
        254    2    1    2    0    0  0.11388628976E+03 -0.67880330701E+02  0.16220080049E+04  0.18526411269E+04  0.88531991447E+03 0.  0.
         23    2    4    4    0    0  0.32862966127E+03  0.28865855482E+03  0.10299223345E+04  0.11231754204E+04  0.97271754337E+02 0.  0.
         23    2    4    4    0    0 -0.21474337151E+03 -0.35653888552E+03  0.59208567036E+03  0.72946570657E+03  0.91214491842E+02 0.  0.
          1    1    3    3  502    0  0.12504918486E+02  0.10782344343E+02 -0.31638723901E+02  0.35688104264E+02  0.00000000000E+00 0. -1.
         -1    1    3    3    0  502 -0.12639120824E+03  0.57097986359E+02 -0.67262638144E+03  0.68677592166E+03  0.00000000000E+00 0.  1.
         11    1    5    5    0    0  0.24240862461E+02 -0.43489807536E+01  0.41785448771E+02  0.48503162530E+02  0.00000000000E+00 0.  1.
        -11    1    5    5    0    0  0.30438879881E+03  0.29300753557E+03  0.98813688576E+03  0.10746722578E+04  0.00000000000E+00 0. -1.
          4    1    6    6  503    0 -0.71318708978E+02 -0.80238846877E+02  0.21636048484E+03  0.24152948102E+03  0.00000000000E+00 0.  1.
         -4    1    6    6    0  503 -0.14342466253E+03 -0.27630003864E+03  0.37572518551E+03  0.48793622555E+03  0.00000000000E+00 0. -1.
<mgrwt>
<rscale>  0 0.24060163E+04</rscale>
<asrwt>0</asrwt>
<pdfrwt beam="1">  1        2 0.26868062E+00 0.24060163E+04</pdfrwt>
<pdfrwt beam="2">  1       -2 0.12748940E+00 0.24060163E+04</pdfrwt>
<totfact> 0.37898978E+00</totfact>
</mgrwt>
</event>
<event>
12    2  0.3555611E-008  0.1317839E+04  0.7818608E-02  0.9015537E-01
          1   -1    0    0  501    0  0.00000000000E+00  0.00000000000E+00  0.17352233920E+04  0.17352233920E+04  0.00000000000E+00 0. -1.
         -1   -1    0    0    0  501 -0.00000000000E+00 -0.00000000000E+00 -0.25021265611E+03  0.25021265611E+03  0.00000000000E+00 0.  1.
         23    2    1    2    0    0 -0.29113624483E+03  0.13746387450E+03  0.59544035436E+03  0.68226493147E+03  0.85320520797E+02 0.  0.
        254    2    1    2    0    0  0.29113624483E+03 -0.13746387450E+03  0.88957038151E+03  0.13031711166E+04  0.89624933233E+03 0.  0.
         23    2    4    4    0    0  0.50636238595E+03 -0.34165391195E+03  0.44680375457E+03  0.76233738413E+03  0.91621125726E+02 0.  0.
         23    2    4    4    0    0 -0.21522614112E+03  0.20419003745E+03  0.44276662693E+03  0.54083373249E+03  0.91885673870E+02 0.  0.
          2    1    3    3  502    0 -0.24682096734E+03  0.13542638968E+03  0.55459989648E+03  0.62196619049E+03  0.00000000000E+00 0. -1.
         -2    1    3    3    0  502 -0.44315277494E+02  0.20374848188E+01  0.40840457873E+02  0.60298740974E+02  0.00000000000E+00 0.  1.
         11    1    5    5    0    0  0.22436587404E+03 -0.16462666140E+03  0.14917017558E+03  0.31574313034E+03  0.00000000000E+00 0. -1.
        -11    1    5    5    0    0  0.28199651191E+03 -0.17702725055E+03  0.29763357899E+03  0.44659425378E+03  0.00000000000E+00 0.  1.
          3    1    6    6  503    0 -0.13491619623E+03  0.16036100304E+03  0.36442110497E+03  0.42038169924E+03  0.00000000000E+00 0. -1.
         -3    1    6    6    0  503 -0.80309944885E+02  0.43829034413E+02  0.78345521956E+02  0.12045203326E+03  0.00000000000E+00 0.  1.
<mgrwt>
<rscale>  0 0.13178389E+04</rscale>
<asrwt>0</asrwt>
<pdfrwt beam="1">  1        1 0.26695744E+00 0.13178389E+04</pdfrwt>
<pdfrwt beam="2">  1       -1 0.38494256E-01 0.13178389E+04</pdfrwt>
<totfact> 0.28915839E+01</totfact>
</mgrwt>
</event>
<event>
12    2  0.3555611E-008  0.1365473E+04  0.7818608E-02  0.8979197E-01
          1   -1    0    0  501    0  0.00000000000E+00  0.00000000000E+00  0.25946086351E+04  0.25946086351E+04  0.00000000000E+00 0. -1.
         -1   -1    0    0    0  501 -0.00000000000E+00 -0.00000000000E+00 -0.17965294633E+03  0.17965294633E+03  0.00000000000E+00 0.  1.
         23    2    1    2    0    0 -0.83385989583E+02  0.51508785679E+02  0.14362847286E+04  0.14425135270E+04  0.91241853033E+02 0.  0.
        254    2    1    2    0    0  0.83385989583E+02 -0.51508785679E+02  0.97867096013E+03  0.13317480544E+04  0.89785837073E+03 0.  0.
         23    2    4    4    0    0  0.44054050544E+03  0.12330480063E+03  0.68155207477E+03  0.82590189899E+03  0.91217900307E+02 0.  0.
         23    2    4    4    0    0 -0.35715451586E+03 -0.17481358631E+03  0.29711888536E+03  0.50584615539E+03  0.97373316327E+02 0.  0.
          1    1    3    3  502    0 -0.99652976779E+02  0.34693048606E+02  0.12962561012E+04  0.13005438106E+04  0.00000000000E+00 0. -1.
         -1    1    3    3    0  502  0.16266987195E+02  0.16815737073E+02  0.14002862741E+03  0.14196971642E+03  0.00000000000E+00 0.  1.
         11    1    5    5    0    0  0.31055366637E+03  0.78331386978E+02  0.39896436003E+03  0.51161699195E+03  0.00000000000E+00 0. -1.
        -11    1    5    5    0    0  0.12998683907E+03  0.44973413652E+02  0.28258771475E+03  0.31428490704E+03  0.00000000000E+00 0.  1.
          2    1    6    6  503    0 -0.94181334226E+02 -0.70367085834E+02  0.41944222603E+02  0.12482374892E+03  0.00000000000E+00 0. -1.
         -2    1    6    6    0  503 -0.26297318163E+03 -0.10444650048E+03  0.25517466276E+03  0.38102240647E+03  0.00000000000E+00 0.  1.
<mgrwt>
<rscale>  0 0.13654729E+04</rscale>
<asrwt>0</asrwt>
<pdfrwt beam="1">  1        1 0.39917053E+00 0.13654729E+04</pdfrwt>
<pdfrwt beam="2">  1       -1 0.27638917E-01 0.13654729E+04</pdfrwt>
<totfact> 0.13462948E+01</totfact>
</mgrwt>
</event>
<event>
12    2  0.3555611E-008  0.1325735E+04  0.7818608E-02  0.9009402E-01
         -2   -1    0    0    0  501 -0.00000000000E+00  0.00000000000E+00  0.29539533719E+04  0.29539533719E+04  0.00000000000E+00 0.  1.
          2   -1    0    0  501    0  0.00000000000E+00 -0.00000000000E+00 -0.14874761764E+03  0.14874761764E+03  0.00000000000E+00 0. -1.
         23    2    1    2    0    0  0.30946187071E+03 -0.55220020134E+02  0.11180194564E+04  0.11646928299E+04  0.87897571839E+02 0.  0.
        254    2    1    2    0    0 -0.30946187071E+03  0.55220020134E+02  0.16871862978E+04  0.19380081596E+04  0.90025669840E+03 0.  0.
         23    2    4    4    0    0  0.17865840552E+02 -0.21083933692E+03  0.14023948535E+04  0.14210958534E+04  0.89608511245E+02 0.  0.
         23    2    4    4    0    0 -0.32732771127E+03  0.26605935706E+03  0.28479144439E+03  0.51691230621E+03  0.90339102685E+02 0.  0.
          4    1    3    3  502    0  0.16108418118E+03 -0.48850515897E+02  0.73163286636E+03  0.75074705292E+03  0.00000000000E+00 0. -1.
         -4    1    3    3    0  502  0.14837768954E+03 -0.63695042372E+01  0.38638659005E+03  0.41394577701E+03  0.00000000000E+00 0.  1.
         11    1    5    5    0    0  0.27329152182E+02 -0.19741288970E+03  0.10768483873E+04  0.10951352340E+04  0.00000000000E+00 0.  1.
        -11    1    5    5    0    0 -0.94633116300E+01 -0.13426447222E+02  0.32554646619E+03  0.32596061940E+03  0.00000000000E+00 0. -1.
          2    1    6    6  503    0 -0.66503114580E+02  0.49315475084E+02  0.16334675383E+02  0.84388991886E+02  0.00000000000E+00 0. -1.
         -2    1    6    6    0  503 -0.26082459669E+03  0.21674388197E+03  0.26845676901E+03  0.43252331432E+03  0.00000000000E+00 0.  1.
<mgrwt>
<rscale>  0 0.13257353E+04</rscale>
<asrwt>0</asrwt>
<pdfrwt beam="1">  1        2 0.22884251E-01 0.13257353E+04</pdfrwt>
<pdfrwt beam="2">  1       -2 0.45445432E+00 0.13257353E+04</pdfrwt>
<totfact> 0.78215451E-01</totfact>
</mgrwt>
</event>
<event>
12    2  0.3555611E-008  0.2899795E+04  0.7818608E-02  0.8272938E-01
          1   -1    0    0  501    0  0.00000000000E+00  0.00000000000E+00  0.29470962760E+04  0.29470962760E+04  0.00000000000E+00 0. -1.
         -1   -1    0    0    0  501 -0.00000000000E+00 -0.00000000000E+00 -0.71331341889E+03  0.71331341889E+03  0.00000000000E+00 0.  1.
         23    2    1    2    0    0  0.23138916514E+03 -0.94888172293E+03  0.20713735098E+04  0.22918289064E+04  0.89297532248E+02 0.  0.
        254    2    1    2    0    0 -0.23138916514E+03  0.94888172293E+03  0.16240934731E+03  0.13685807885E+04  0.94483813886E+03 0.  0.
         23    2    4    4    0    0 -0.12504278696E+03  0.95609501725E+03  0.43479396184E+03  0.10617413389E+04  0.92171041133E+02 0.  0.
         23    2    4    4    0    0 -0.10634637817E+03 -0.72132943185E+01 -0.27238461453E+03  0.30683944961E+03  0.92711843022E+02 0.  0.
          1    1    3    3  502    0  0.15814380016E+03 -0.46025328657E+03  0.10231374530E+04  0.11329840233E+04  0.00000000000E+00 0. -1.
         -1    1    3    3    0  502  0.73245364976E+02 -0.48862843636E+03  0.10482360568E+04  0.11588448831E+04  0.00000000000E+00 0.  1.
         11    1    5    5    0    0  0.10027318426E+02  0.22055904959E+03  0.10120019952E+03  0.24287511575E+03  0.00000000000E+00 0. -1.
        -11    1    5    5    0    0 -0.13507010539E+03  0.73553596766E+03  0.33359376233E+03  0.81886622311E+03  0.00000000000E+00 0.  1.
          1    1    6    6  503    0 -0.33075074719E+02 -0.34747083525E+00 -0.20306183049E+03  0.20573815471E+03  0.00000000000E+00 0.  1.
         -1    1    6    6    0  503 -0.73271303454E+02 -0.68658234833E+01 -0.69322784047E+02  0.10110129490E+03  0.00000000000E+00 0. -1.
<mgrwt>
<rscale>  0 0.28997954E+04</rscale>
<asrwt>0</asrwt>
<pdfrwt beam="1">  1        1 0.45339942E+00 0.28997954E+04</pdfrwt>
<pdfrwt beam="2">  1       -1 0.10974053E+00 0.28997954E+04</pdfrwt>
<totfact> 0.42999566E-01</totfact>
</mgrwt>
</event>
<event>
12    2  0.3555611E-008  0.1865936E+04  0.7818608E-02  0.8672000E-01
          1   -1    0    0  501    0  0.00000000000E+00  0.00000000000E+00  0.20064258853E+04  0.20064258853E+04  0.00000000000E+00 0. -1.
         -1   -1    0    0    0  501 -0.00000000000E+00 -0.00000000000E+00 -0.43382102321E+03  0.43382102321E+03  0.00000000000E+00 0.  1.
         23    2    1    2    0    0  0.21759115821E+03 -0.37264986956E+03  0.13890105831E+04  0.14574242119E+04  0.92309783709E+02 0.  0.
        254    2    1    2    0    0 -0.21759115821E+03  0.37264986956E+03  0.18359427902E+03  0.98282269660E+03  0.86372435200E+03 0.  0.
         23    2    4    4    0    0 -0.44090069687E+03  0.51097599874E+03  0.17969101566E+03  0.70443019839E+03  0.91886601357E+02 0.  0.
         23    2    4    4    0    0  0.22330953866E+03 -0.13832612918E+03  0.39032633613E+01  0.27839249821E+03  0.92118833702E+02 0.  0.
          4    1    3    3  502    0  0.12394611448E+03 -0.22440314253E+03  0.67076015885E+03  0.71807980083E+03  0.00000000000E+00 0. -1.
         -4    1    3    3    0  502  0.93645043737E+02 -0.14824672703E+03  0.71825042423E+03  0.73934441108E+03  0.00000000000E+00 0.  1.
         11    1    5    5    0    0 -0.30099639619E+03  0.36513831684E+03  0.83132095140E+02  0.48045370868E+03  0.00000000000E+00 0. -1.
        -11    1    5    5    0    0 -0.13990430069E+03  0.14583768190E+03  0.96558920523E+02  0.22397648972E+03  0.00000000000E+00 0.  1.
          1    1    6    6  503    0  0.21239464272E+03 -0.13072413216E+03 -0.20872743999E+02  0.25027176115E+03  0.00000000000E+00 0. -1.
         -1    1    6    6    0  503  0.10914895937E+02 -0.76019970227E+01  0.24776007361E+02  0.28120737059E+02  0.00000000000E+00 0.  1.
<mgrwt>
<rscale>  0 0.18659365E+04</rscale>
<asrwt>0</asrwt>
<pdfrwt beam="1">  1        1 0.30868090E+00 0.18659365E+04</pdfrwt>
<pdfrwt beam="2">  1       -1 0.66741697E-01 0.18659365E+04</pdfrwt>
<totfact> 0.62966216E+00</totfact>
</mgrwt>
</event>
<event>
12    2  0.3555611E-008  0.2605766E+04  0.7818608E-02  0.8366245E-01
         -2   -1    0    0    0  501 -0.00000000000E+00  0.00000000000E+00  0.87912937106E+03  0.87912937106E+03  0.00000000000E+00 0. -1.
          2   -1    0    0  501    0  0.00000000000E+00 -0.00000000000E+00 -0.19308916193E+04  0.19308916193E+04  0.00000000000E+00 0.  1.
         23    2    1    2    0    0 -0.45795456996E+03 -0.95209549800E+03 -0.94286345029E+03  0.14197254568E+04  0.10208164013E+03 0.  0.
        254    2    1    2    0    0  0.45795456996E+03  0.95209549800E+03 -0.10889879792E+03  0.13902955336E+04  0.89713683292E+03 0.  0.
         23    2    4    4    0    0 -0.15834944272E+03  0.32603789841E+03 -0.30827248715E+03  0.48488551221E+03  0.93310108837E+02 0.  0.
         23    2    4    4    0    0  0.61630401268E+03  0.62605759960E+03  0.19937368923E+03  0.90541002135E+03  0.90767200797E+02 0.  0.
          1    1    3    3  502    0 -0.40552507215E+02 -0.14984173192E+03 -0.16899846314E+03  0.22947228811E+03  0.00000000000E+00 0. -1.
         -1    1    3    3    0  502 -0.41740206275E+03 -0.80225376608E+03 -0.77386498715E+03  0.11902531687E+04  0.00000000000E+00 0.  1.
         11    1    5    5    0    0 -0.11937012350E+03  0.20898291108E+03 -0.25457900074E+03  0.35033348558E+03  0.00000000000E+00 0.  1.
        -11    1    5    5    0    0 -0.38979319224E+02  0.11705498733E+03 -0.53693486413E+02  0.13455202663E+03  0.00000000000E+00 0. -1.
          1    1    6    6  503    0  0.10818643350E+03  0.10082904482E+03  0.68564274536E+02  0.16300877404E+03  0.00000000000E+00 0. -1.
         -1    1    6    6    0  503  0.50811757919E+03  0.52522855478E+03  0.13080941470E+03  0.74240124731E+03  0.00000000000E+00 0.  1.
<mgrwt>
<rscale>  0 0.26057656E+04</rscale>
<asrwt>0</asrwt>
<pdfrwt beam="1">  1        2 0.29706024E+00 0.26057656E+04</pdfrwt>
<pdfrwt beam="2">  1       -2 0.13525068E+00 0.26057656E+04</pdfrwt>
<totfact> 0.25341772E+00</totfact>
</mgrwt>
</event>
<event>
12    2  0.3555611E-008  0.1480356E+04  0.7818608E-02  0.8897622E-01
         -2   -1    0    0    0  501 -0.00000000000E+00  0.00000000000E+00  0.32981487787E+03  0.32981487787E+03  0.00000000000E+00 0.  1.
          2   -1    0    0  501    0  0.00000000000E+00 -0.00000000000E+00 -0.16611252934E+04  0.16611252934E+04  0.00000000000E+00 0. -1.
         23    2    1    2    0    0  0.32645957210E+03 -0.21705683996E+03 -0.79059437152E+03  0.88764314672E+03  0.95819474332E+02 0.  0.
        254    2    1    2    0    0 -0.32645957210E+03  0.21705683996E+03 -0.54071604403E+03  0.11032970246E+04  0.87818048268E+03 0.  0.
         23    2    4    4    0    0 -0.16900989075E+03 -0.59011501275E+02  0.20471205791E+03  0.28884687826E+03  0.97359087762E+02 0.  0.
         23    2    4    4    0    0 -0.15744968135E+03  0.27606834123E+03 -0.74542810194E+03  0.81445014631E+03  0.81620184170E+02 0.  0.
          1    1    3    3  502    0  0.30410024452E+03 -0.20463455109E+03 -0.66362467953E+03  0.75812266389E+03  0.00000000000E+00 0. -1.
         -1    1    3    3    0  502  0.22359327575E+02 -0.12422288867E+02 -0.12696969199E+03  0.12952048284E+03  0.00000000000E+00 0.  1.
         11    1    5    5    0    0 -0.27156598038E+02 -0.54622000896E+02  0.49741078206E+02  0.78709711345E+02  0.00000000000E+00 0. -1.
        -11    1    5    5    0    0 -0.14185329271E+03 -0.43895003796E+01  0.15497097971E+03  0.21013716691E+03  0.00000000000E+00 0.  1.
          4    1    6    6  503    0  0.97630968607E+01  0.15443275913E+02 -0.48481447496E+02  0.51809879198E+02  0.00000000000E+00 0. -1.
         -4    1    6    6    0  503 -0.16721277821E+03  0.26062506532E+03 -0.69694665445E+03  0.76264026711E+03  0.00000000000E+00 0.  1.
<mgrwt>
<rscale>  0 0.14803565E+04</rscale>
<asrwt>0</asrwt>
<pdfrwt beam="1">  1        2 0.25555774E+00 0.14803565E+04</pdfrwt>
<pdfrwt beam="2">  1       -2 0.50740750E-01 0.14803565E+04</pdfrwt>
<totfact> 0.36621831E+01</totfact>
</mgrwt>
</event>
<event>
12    2  0.3555611E-008  0.1698229E+04  0.7818608E-02  0.8762375E-01
         -1   -1    0    0    0  501 -0.00000000000E+00  0.00000000000E+00  0.95225356586E+03  0.95225356586E+03  0.00000000000E+00 0.  1.
          1   -1    0    0  501    0  0.00000000000E+00 -0.00000000000E+00 -0.75714633223E+03  0.75714633223E+03  0.00000000000E+00 0. -1.
         23    2    1    2    0    0 -0.83299933089E+02  0.16372512716E+03  0.64535237148E+03  0.67695050170E+03  0.89652118017E+02 0.  0.
        254    2    1    2    0    0  0.83299933089E+02 -0.16372512716E+03 -0.45024513785E+03  0.10324493964E+04  0.91076137151E+03 0.  0.
         23    2    4    4    0    0 -0.14937201668E+03 -0.47155481936E+03 -0.12182115445E+03  0.51769096220E+03  0.92128126237E+02 0.  0.
         23    2    4    4    0    0  0.23267194977E+03  0.30782969220E+03 -0.32842398340E+03  0.51475843419E+03  0.90656368125E+02 0.  0.
          2    1    3    3  502    0 -0.87441083968E+02  0.96778546403E+02  0.33639043988E+03  0.36079157176E+03  0.00000000000E+00 0. -1.
         -2    1    3    3    0  502  0.41411508793E+01  0.66946580755E+02  0.30896193159E+03  0.31615892994E+03  0.00000000000E+00 0.  1.
         11    1    5    5    0    0 -0.13355083269E+03 -0.42161698765E+03 -0.77351191703E+02  0.44897652060E+03  0.00000000000E+00 0.  1.
        -11    1    5    5    0    0 -0.15821183990E+02 -0.49937831709E+02 -0.44469962743E+02  0.68714441604E+02  0.00000000000E+00 0. -1.
          1    1    6    6  503    0  0.12890915688E+02  0.55323421896E+02 -0.78964626399E+02  0.97274194625E+02  0.00000000000E+00 0. -1.
         -1    1    6    6    0  503  0.21978103409E+03  0.25250627031E+03 -0.24945935700E+03  0.41748423956E+03  0.00000000000E+00 0.  1.
<mgrwt>
<rscale>  0 0.16982288E+04</rscale>
<asrwt>0</asrwt>
<pdfrwt beam="1">  1        1 0.11648405E+00 0.16982288E+04</pdfrwt>
<pdfrwt beam="2">  1       -1 0.14650055E+00 0.16982288E+04</pdfrwt>
<totfact> 0.85385865E+00</totfact>
</mgrwt>
</event>
<event>
12    2  0.3555611E-008  0.1236161E+04  0.7818608E-02  0.9081781E-01
          1   -1    0    0  501    0  0.00000000000E+00  0.00000000000E+00  0.15219324803E+04  0.15219324803E+04  0.00000000000E+00 0. -1.
         -1   -1    0    0    0  501 -0.00000000000E+00 -0.00000000000E+00 -0.25101201978E+03  0.25101201978E+03  0.00000000000E+00 0.  1.
         23    2    1    2    0    0  0.15005185372E+03  0.16231651918E+03  0.55039428539E+03  0.59998933996E+03  0.90504847788E+02 0.  0.
        254    2    1    2    0    0 -0.15005185372E+03 -0.16231651918E+03  0.72052617509E+03  0.11729551601E+04  0.89877896468E+03 0.  0.
         23    2    4    4    0    0 -0.34905909689E+03 -0.25660411256E+03  0.80684568883E+03  0.91991931563E+03  0.86969293298E+02 0.  0.
         23    2    4    4    0    0  0.19900724317E+03  0.94287593380E+02 -0.86319513738E+02  0.25303584444E+03  0.89900205893E+02 0.  0.
          3    1    3    3  502    0  0.15427755081E+03  0.15971152132E+03  0.55182110632E+03  0.59482423127E+03  0.00000000000E+00 0. -1.
         -3    1    3    3    0  502 -0.42256970918E+01  0.26049978624E+01 -0.14268209337E+01  0.51651086873E+01  0.00000000000E+00 0.  1.
         11    1    5    5    0    0 -0.13062926957E+03 -0.14404188698E+03  0.39673597935E+03  0.44182746472E+03  0.00000000000E+00 0. -1.
        -11    1    5    5    0    0 -0.21842982733E+03 -0.11256222558E+03  0.41010970949E+03  0.47809185091E+03  0.00000000000E+00 0.  1.
          4    1    6    6  503    0  0.12517801244E+03  0.89100752569E+02 -0.91520609181E+02  0.17884211141E+03  0.00000000000E+00 0. -1.
         -4    1    6    6    0  503  0.73829230733E+02  0.51868408118E+01  0.52010954427E+01  0.74193733038E+02  0.00000000000E+00 0.  1.
<mgrwt>
<rscale>  0 0.12361607E+04</rscale>
<asrwt>0</asrwt>
<pdfrwt beam="1">  1        1 0.23414345E+00 0.12361607E+04</pdfrwt>
<pdfrwt beam="2">  1       -1 0.38617235E-01 0.12361607E+04</pdfrwt>
<totfact> 0.40495395E+01</totfact>
</mgrwt>
</event>
<event>
12    2  0.3555611E-008  0.1410278E+04  0.7818608E-02  0.8946412E-01
         -2   -1    0    0    0  501 -0.00000000000E+00  0.00000000000E+00  0.75290302504E+03  0.75290302504E+03  0.00000000000E+00 0.  1.
          2   -1    0    0  501    0  0.00000000000E+00 -0.00000000000E+00 -0.66040481786E+03  0.66040481786E+03  0.00000000000E+00 0. -1.
         23    2    1    2    0    0 -0.35512324407E+03 -0.13414177259E+03 -0.12959658352E+03  0.41147729017E+03  0.91715605172E+02 0.  0.
        254    2    1    2    0    0  0.35512324407E+03  0.13414177259E+03  0.22209479070E+03  0.10018305527E+04  0.90012878340E+03 0.  0.
         23    2    4    4    0    0 -0.14059054751E+03  0.25012819675E+03  0.35755417335E+03  0.46723410139E+03  0.90182602335E+02 0.  0.
         23    2    4    4    0    0  0.49571379158E+03 -0.11598642416E+03 -0.13545938265E+03  0.53459645135E+03  0.90879633003E+02 0.  0.
          3    1    3    3  502    0 -0.30998861307E+03 -0.14210626680E+03 -0.13179809768E+03  0.36559249150E+03  0.00000000000E+00 0. -1.
         -3    1    3    3    0  502 -0.45134631003E+02  0.79644942097E+01  0.22015141534E+01  0.45884798663E+02  0.00000000000E+00 0.  1.
         11    1    5    5    0    0 -0.20812224875E+02  0.98628192303E+02  0.77996565788E+02  0.12745247466E+03  0.00000000000E+00 0.  1.
        -11    1    5    5    0    0 -0.11977832264E+03  0.15150000444E+03  0.27955760756E+03  0.33978162673E+03  0.00000000000E+00 0. -1.
          3    1    6    6  503    0  0.27003454442E+03 -0.36059827787E+02 -0.11011527295E+03  0.29384407378E+03  0.00000000000E+00 0. -1.
         -3    1    6    6    0  503  0.22567924716E+03 -0.79926596375E+02 -0.25344109693E+02  0.24075237756E+03  0.00000000000E+00 0.  1.
<mgrwt>
<rscale>  0 0.14102777E+04</rscale>
<asrwt>0</asrwt>
<pdfrwt beam="1">  1        2 0.10160074E+00 0.14102777E+04</pdfrwt>
<pdfrwt beam="2">  1       -2 0.11583124E+00 0.14102777E+04</pdfrwt>
<totfact> 0.24838202E+01</totfact>
</mgrwt>
</event>
<event>
12    2  0.3555611E-008  0.1089625E+04  0.7818608E-02  0.9215364E-01
         -2   -1    0    0    0  501 -0.00000000000E+00  0.00000000000E+00  0.46659184141E+03  0.46659184141E+03  0.00000000000E+00 0.  1.
          2   -1    0    0  501    0  0.00000000000E+00 -0.00000000000E+00 -0.63614588002E+03  0.63614588002E+03  0.00000000000E+00 0. -1.
         23    2    1    2    0    0  0.17358642558E+02  0.12162057235E+03  0.60273096875E+02  0.16311964876E+03  0.88782247745E+02 0.  0.
        254    2    1    2    0    0 -0.17358642558E+02 -0.12162057235E+03 -0.22982713549E+03  0.93961807268E+03  0.90275618204E+03 0.  0.
         23    2    4    4    0    0 -0.89736629804E+02 -0.48872271828E+03 -0.22999201995E+03  0.55485349049E+03  0.89797041022E+02 0.  0.
         23    2    4    4    0    0  0.72377987246E+02  0.36710214593E+03  0.16488446776E+00  0.38476458219E+03  0.89672726841E+02 0.  0.
          3    1    3    3  502    0 -0.19676401138E+02 -0.21640651556E+01 -0.16063239339E+01  0.19860116221E+02  0.00000000000E+00 0. -1.
         -3    1    3    3    0  502  0.37035043695E+02  0.12378463750E+03  0.61879420809E+02  0.14325953254E+03  0.00000000000E+00 0.  1.
         11    1    5    5    0    0  0.17094522700E+02 -0.55336228819E+02 -0.35746935337E+02  0.68060005233E+02  0.00000000000E+00 0. -1.
        -11    1    5    5    0    0 -0.10683115250E+03 -0.43338648946E+03 -0.19424508462E+03  0.48679348525E+03  0.00000000000E+00 0.  1.
          2    1    6    6  503    0  0.41088290183E+02  0.12440417072E+03 -0.39556013909E+02  0.13685511872E+03  0.00000000000E+00 0. -1.
         -2    1    6    6    0  503  0.31289697064E+02  0.24269797521E+03  0.39720898376E+02  0.24790946347E+03  0.00000000000E+00 0.  1.
<mgrwt>
<rscale>  0 0.10896247E+04</rscale>
<asrwt>0</asrwt>
<pdfrwt beam="1">  1        2 0.97868597E-01 0.10896247E+04</pdfrwt>
<pdfrwt beam="2">  1       -2 0.71783360E-01 0.10896247E+04</pdfrwt>
<totfact> 0.80751886E+01</totfact>
</mgrwt>
</event>
<event>
12    2  0.3555611E-008  0.1408167E+04  0.7818608E-02  0.8947928E-01
          2   -1    0    0  501    0  0.00000000000E+00  0.00000000000E+00  0.36270903969E+04  0.36270903969E+04  0.00000000000E+00 0. -1.
         -2   -1    0    0    0  501 -0.00000000000E+00 -0.00000000000E+00 -0.13667524606E+03  0.13667524606E+03  0.00000000000E+00 0.  1.
         23    2    1    2    0    0 -0.17781948605E+03  0.26036961391E+02  0.17023818834E+04  0.17154342210E+04  0.11096304256E+03 0.  0.
        254    2    1    2    0    0  0.17781948605E+03 -0.26036961391E+02  0.17880332674E+04  0.20483314219E+04  0.98300608115E+03 0.  0.
         23    2    4    4    0    0 -0.12166886799E+03  0.22191102184E+03  0.60953182793E+02  0.27570971291E+03  0.90844593944E+02 0.  0.
         23    2    4    4    0    0  0.29948835403E+03 -0.24794798323E+03  0.17270800846E+04  0.17726217090E+04  0.90612515012E+02 0.  0.
          4    1    3    3  502    0 -0.18884162769E+03  0.36302210126E+02  0.14637643389E+04  0.14763417798E+04  0.00000000000E+00 0. -1.
         -4    1    3    3    0  502  0.11022141645E+02 -0.10265248735E+02  0.23861754448E+03  0.23909244127E+03  0.00000000000E+00 0.  1.
         11    1    5    5    0    0 -0.12870138279E+03  0.22458334415E+03  0.52005313585E+02  0.26401946337E+03  0.00000000000E+00 0. -1.
        -11    1    5    5    0    0  0.70325148010E+01 -0.26723223020E+01  0.89478692082E+01  0.11690249539E+02  0.00000000000E+00 0.  1.
          3    1    6    6  503    0  0.24938940561E+03 -0.24334274680E+03  0.15364197136E+04  0.15754352746E+04  0.00000000000E+00 0. -1.
         -3    1    6    6    0  503  0.50098948421E+02 -0.46052364359E+01  0.19066037106E+03  0.19718643444E+03  0.00000000000E+00 0.  1.
<mgrwt>
<rscale>  0 0.14081669E+04</rscale>
<asrwt>0</asrwt>
<pdfrwt beam="1">  1        2 0.55801383E+00 0.14081669E+04</pdfrwt>
<pdfrwt beam="2">  1       -2 0.21026964E-01 0.14081669E+04</pdfrwt>
<totfact> 0.12808486E+01</totfact>
</mgrwt>
</event>
<event>
12    2  0.3555611E-008  0.1442716E+04  0.7818608E-02  0.8923466E-01
         -2   -1    0    0    0  501 -0.00000000000E+00  0.00000000000E+00  0.27049463041E+03  0.27049463041E+03  0.00000000000E+00 0. -1.
          2   -1    0    0  501    0  0.00000000000E+00 -0.00000000000E+00 -0.19237264241E+04  0.19237264241E+04  0.00000000000E+00 0.  1.
         23    2    1    2    0    0  0.65839273803E+02 -0.31422244803E+03 -0.82824829106E+02  0.34451528241E+03  0.93596317647E+02 0.  0.
        254    2    1    2    0    0 -0.65839273803E+02  0.31422244803E+03 -0.15704069646E+04  0.18497057721E+04  0.92312667177E+03 0.  0.
         23    2    4    4    0    0 -0.19432608115E+03 -0.28399259233E+03 -0.50192714856E+03  0.61508680872E+03  0.89367228221E+02 0.  0.
         23    2    4    4    0    0  0.12848680735E+03  0.59821504036E+03 -0.10684798160E+04  0.12346189634E+04  0.90910798870E+02 0.  0.
          4    1    3    3  502    0  0.70399943759E+02 -0.13739788843E+03 -0.62164447723E+02  0.16642941563E+03  0.00000000000E+00 0. -1.
         -4    1    3    3    0  502 -0.45606699557E+01 -0.17682455960E+03 -0.20660381383E+02  0.17808586678E+03  0.00000000000E+00 0.  1.
         11    1    5    5    0    0 -0.23135432865E+01 -0.28473993690E+02 -0.14052247700E+02  0.31836872721E+02  0.00000000000E+00 0. -1.
        -11    1    5    5    0    0 -0.19201253787E+03 -0.25551859864E+03 -0.48787490086E+03  0.58324993600E+03  0.00000000000E+00 0.  1.
          4    1    6    6  503    0  0.83722276708E+02  0.22068407637E+03 -0.35775002805E+03  0.42859767119E+03  0.00000000000E+00 0. -1.
         -4    1    6    6    0  503  0.44764530643E+02  0.37753096399E+03 -0.71072978798E+03  0.80602129221E+03  0.00000000000E+00 0.  1.
<mgrwt>
<rscale>  0 0.14427164E+04</rscale>
<asrwt>0</asrwt>
<pdfrwt beam="1">  1        2 0.29595791E+00 0.14427164E+04</pdfrwt>
<pdfrwt beam="2">  1       -2 0.41614559E-01 0.14427164E+04</pdfrwt>
<totfact> 0.39117970E+01</totfact>
</mgrwt>
</event>
<event>
12    2  0.3555611E-008  0.1437921E+04  0.7818608E-02  0.8926817E-01
          2   -1    0    0  501    0  0.00000000000E+00  0.00000000000E+00  0.32217555555E+04  0.32217555555E+04  0.00000000000E+00 0. -1.
         -2   -1    0    0    0  501 -0.00000000000E+00 -0.00000000000E+00 -0.16044187134E+03  0.16044187134E+03  0.00000000000E+00 0.  1.
         23    2    1    2    0    0 -0.89502256584E+02 -0.19684496100E+03  0.17932830901E+04  0.18081660886E+04  0.82714992590E+02 0.  0.
        254    2    1    2    0    0  0.89502256584E+02  0.19684496100E+03  0.12680305941E+04  0.15740313383E+04  0.90714633536E+03 0.  0.
         23    2    4    4    0    0  0.18085629307E+03 -0.16202770267E+03  0.11430651952E+04  0.11721503540E+04  0.91522875288E+02 0.  0.
         23    2    4    4    0    0 -0.91354036482E+02  0.35887266367E+03  0.12496539889E+03  0.40188098431E+03  0.93577913603E+02 0.  0.
          3    1    3    3  502    0 -0.10438686482E+03 -0.16280801666E+03  0.14382523745E+04  0.14511970785E+04  0.00000000000E+00 0. -1.
         -3    1    3    3    0  502  0.14884608237E+02 -0.34036944343E+02  0.35503071561E+03  0.35696901010E+03  0.00000000000E+00 0.  1.
         11    1    5    5    0    0 -0.29101285510E+01 -0.19265969522E+00  0.12561176017E+03  0.12564561377E+03  0.00000000000E+00 0. -1.
        -11    1    5    5    0    0  0.18376642162E+03 -0.16183504297E+03  0.10174534350E+04  0.10465047402E+04  0.00000000000E+00 0.  1.
          1    1    6    6  503    0 -0.87931750554E+02  0.19994362006E+03  0.41489290660E+02  0.22233039648E+03  0.00000000000E+00 0.  1.
         -1    1    6    6    0  503 -0.34222859277E+01  0.15892904361E+03  0.83476108230E+02  0.17955058783E+03  0.00000000000E+00 0. -1.
<mgrwt>
<rscale>  0 0.14379214E+04</rscale>
<asrwt>0</asrwt>
<pdfrwt beam="1">  1        2 0.49565466E+00 0.14379214E+04</pdfrwt>
<pdfrwt beam="2">  1       -2 0.24683367E-01 0.14379214E+04</pdfrwt>
<totfact> 0.18089721E+01</totfact>
</mgrwt>
</event>
<event>
12    2  0.3555611E-008  0.1445538E+04  0.7818608E-02  0.8921500E-01
         -2   -1    0    0    0  501 -0.00000000000E+00  0.00000000000E+00  0.28433004740E+03  0.28433004740E+03  0.00000000000E+00 0.  1.
          2   -1    0    0  501    0  0.00000000000E+00 -0.00000000000E+00 -0.18372845532E+04  0.18372845532E+04  0.00000000000E+00 0. -1.
         23    2    1    2    0    0  0.12378134393E+03  0.31460603124E+02  0.13380762930E+03  0.20614980468E+03  0.91003679363E+02 0.  0.
        254    2    1    2    0    0 -0.12378134393E+03 -0.31460603124E+02 -0.16867621351E+04  0.19154647959E+04  0.89862522405E+03 0.  0.
         23    2    4    4    0    0 -0.36103293689E+03  0.30298486385E+03 -0.10182143737E+04  0.11257978499E+04  0.92280435112E+02 0.  0.
         23    2    4    4    0    0  0.23725159296E+03 -0.33444546697E+03 -0.66854776132E+03  0.78966694598E+03  0.92063497968E+02 0.  0.
          4    1    3    3  502    0 -0.34627626772E+01  0.57466560144E+01  0.52599281891E+02  0.53025458378E+02  0.00000000000E+00 0.  1.
         -4    1    3    3    0  502  0.12724410661E+03  0.25713947110E+02  0.81208347409E+02  0.15312434631E+03  0.00000000000E+00 0. -1.
         11    1    5    5    0    0 -0.35918274395E+03  0.30909652175E+03 -0.10036128453E+04  0.11098610934E+04  0.00000000000E+00 0.  1.
        -11    1    5    5    0    0 -0.18501929376E+01 -0.61116578954E+01 -0.14601528397E+02  0.15936756498E+02  0.00000000000E+00 0. -1.
          1    1    6    6  503    0  0.11342453608E+03 -0.85317010475E+02 -0.23498557649E+03  0.27452201883E+03  0.00000000000E+00 0. -1.
         -1    1    6    6    0  503  0.12382705687E+03 -0.24912845650E+03 -0.43356218483E+03  0.51514492715E+03  0.00000000000E+00 0.  1.
<mgrwt>
<rscale>  0 0.14455382E+04</rscale>
<asrwt>0</asrwt>
<pdfrwt beam="1">  1        2 0.28265918E+00 0.14455382E+04</pdfrwt>
<pdfrwt beam="2">  1       -2 0.43743082E-01 0.14455382E+04</pdfrwt>
<totfact> 0.39556535E+01</totfact>
</mgrwt>
</event>
<event>
12    2  0.3555611E-008  0.3384040E+04  0.7818608E-02  0.8141835E-01
          2   -1    0    0  501    0  0.00000000000E+00  0.00000000000E+00  0.41727825636E+04  0.41727825636E+04  0.00000000000E+00 0. -1.
         -2   -1    0    0    0  501 -0.00000000000E+00 -0.00000000000E+00 -0.68609650876E+03  0.68609650876E+03  0.00000000000E+00 0.  1.
         23    2    1    2    0    0  0.14149719971E+04 -0.66553407511E+03  0.14415281898E+04  0.21300924825E+04  0.11920194831E+03 0.  0.
        254    2    1    2    0    0 -0.14149719971E+04  0.66553407511E+03  0.20451578651E+04  0.27287865898E+04  0.90472327384E+03 0.  0.
         23    2    4    4    0    0 -0.57774500491E+02 -0.17371475587E+03  0.18342154536E+03  0.27512474322E+03  0.92387508427E+02 0.  0.
         23    2    4    4    0    0 -0.13571974966E+04  0.83924883098E+03  0.18617363197E+04  0.24536618466E+04  0.89837010450E+02 0.  0.
          1    1    3    3  502    0  0.13982482773E+04 -0.66149757819E+03  0.14047848080E+04  0.20895209135E+04  0.00000000000E+00 0. -1.
         -1    1    3    3    0  502  0.16723719751E+02 -0.40364969189E+01  0.36743381837E+02  0.40571569091E+02  0.00000000000E+00 0.  1.
         11    1    5    5    0    0  0.74904506601E+00 -0.41068388330E+01 -0.10279326312E+02  0.11094671836E+02  0.00000000000E+00 0. -1.
        -11    1    5    5    0    0 -0.58523545557E+02 -0.16960791704E+03  0.19370087167E+03  0.26403007138E+03  0.00000000000E+00 0.  1.
          3    1    6    6  503    0 -0.17851949905E+03  0.11537412251E+03  0.29659331061E+03  0.36489449377E+03  0.00000000000E+00 0. -1.
         -3    1    6    6    0  503 -0.11786779975E+04  0.72387470847E+03  0.15651430091E+04  0.20887673529E+04  0.00000000000E+00 0.  1.
<mgrwt>
<rscale>  0 0.33840399E+04</rscale>
<asrwt>0</asrwt>
<pdfrwt beam="1">  1        2 0.64196653E+00 0.33840399E+04</pdfrwt>
<pdfrwt beam="2">  1       -2 0.10555331E+00 0.33840399E+04</pdfrwt>
<totfact> 0.14738375E-01</totfact>
</mgrwt>
</event>
<event>
12    2  0.3555611E-008  0.1718450E+04  0.7818608E-02  0.8750911E-01
          1   -1    0    0  501    0  0.00000000000E+00  0.00000000000E+00  0.20104066546E+04  0.20104066546E+04  0.00000000000E+00 0. -1.
         -1   -1    0    0    0  501 -0.00000000000E+00 -0.00000000000E+00 -0.36722315003E+03  0.36722315003E+03  0.00000000000E+00 0.  1.
         23    2    1    2    0    0 -0.15229772830E+03  0.32545601734E+03 -0.10412651489E+03  0.38437135276E+03  0.88220113651E+02 0.  0.
        254    2    1    2    0    0  0.15229772830E+03 -0.32545601734E+03  0.17473100194E+04  0.19932584518E+04  0.88930913330E+03 0.  0.
         23    2    4    4    0    0 -0.25941136691E+03 -0.44145622689E+03  0.89268709752E+03  0.10332926433E+04  0.92873973846E+02 0.  0.
         23    2    4    4    0    0  0.41170909521E+03  0.11600020955E+03  0.85462292189E+03  0.95996580855E+03  0.90518436116E+02 0.  0.
          3    1    3    3  502    0 -0.44718505993E+01  0.54924443921E+01  0.11433173193E+02  0.13449232039E+02  0.00000000000E+00 0. -1.
         -3    1    3    3    0  502 -0.14782587770E+03  0.31996357294E+03 -0.11555968809E+03  0.37092212072E+03  0.00000000000E+00 0.  1.
         11    1    5    5    0    0 -0.16870063337E+03 -0.36304061236E+03  0.67603200832E+03  0.78567020192E+03  0.00000000000E+00 0.  1.
        -11    1    5    5    0    0 -0.90710733538E+02 -0.78415614532E+02  0.21665508921E+03  0.24762244135E+03  0.00000000000E+00 0. -1.
          4    1    6    6  503    0  0.16321400336E+03  0.18808410402E+01  0.34280095806E+03  0.37967729100E+03  0.00000000000E+00 0. -1.
         -4    1    6    6    0  503  0.24849509185E+03  0.11411936851E+03  0.51182196383E+03  0.58028851755E+03  0.00000000000E+00 0.  1.
<mgrwt>
<rscale>  0 0.17184503E+04</rscale>
<asrwt>0</asrwt>
<pdfrwt beam="1">  1        1 0.30929333E+00 0.17184503E+04</pdfrwt>
<pdfrwt beam="2">  1       -1 0.56495870E-01 0.17184503E+04</pdfrwt>
<totfact> 0.88352932E+00</totfact>
</mgrwt>
</event>
<event>
12    2  0.3555611E-008  0.1290762E+04  0.7818608E-02  0.9036923E-01
         -1   -1    0    0    0  501 -0.00000000000E+00  0.00000000000E+00  0.73233068722E+03  0.73233068722E+03  0.00000000000E+00 0.  1.
          1   -1    0    0  501    0  0.00000000000E+00 -0.00000000000E+00 -0.56875525445E+03  0.56875525445E+03  0.00000000000E+00 0. -1.
         23    2    1    2    0    0 -0.22973251759E+03 -0.21640229375E+03 -0.58845796501E+02  0.33769056168E+03  0.10471439873E+03 0.  0.
        254    2    1    2    0    0  0.22973251759E+03  0.21640229375E+03  0.22242122928E+03  0.96339537999E+03  0.88263949185E+03 0.  0.
         23    2    4    4    0    0 -0.16384455738E+03  0.22416466087E+03  0.42246095421E+03  0.51267963733E+03  0.85277890073E+02 0.  0.
         23    2    4    4    0    0  0.39357707497E+03 -0.77623671153E+01 -0.20003972493E+03  0.45071574267E+03  0.90363824882E+02 0.  0.
          2    1    3    3  502    0 -0.92793069295E+02 -0.53389983468E+02 -0.64004859487E+02  0.12473037353E+03  0.00000000000E+00 0. -1.
         -2    1    3    3    0  502 -0.13693944830E+03 -0.16301231028E+03  0.51590629865E+01  0.21296018814E+03  0.00000000000E+00 0.  1.
         11    1    5    5    0    0 -0.15785349505E+03  0.15571164187E+03  0.32481198299E+03  0.39327683075E+03  0.00000000000E+00 0. -1.
        -11    1    5    5    0    0 -0.59910623283E+01  0.68453018999E+02  0.97648971218E+02  0.11940280657E+03  0.00000000000E+00 0.  1.
          2    1    6    6  503    0  0.34638252582E+03  0.13836625179E+02 -0.14709995086E+03  0.37657761740E+03  0.00000000000E+00 0. -1.
         -2    1    6    6    0  503  0.47194549158E+02 -0.21598992295E+02 -0.52939774072E+02  0.74138125261E+02  0.00000000000E+00 0.  1.
<mgrwt>
<rscale>  0 0.12907625E+04</rscale>
<asrwt>0</asrwt>
<pdfrwt beam="1">  1        1 0.87500808E-01 0.12907625E+04</pdfrwt>
<pdfrwt beam="2">  1       -1 0.11266626E+00 0.12907625E+04</pdfrwt>
<totfact> 0.26228644E+01</totfact>
</mgrwt>
</event>
<event>
12    2  0.3555611E-008  0.1124271E+04  0.7818608E-02  0.9181853E-01
         -2   -1    0    0    0  501 -0.00000000000E+00  0.00000000000E+00  0.83884933649E+03  0.83884933649E+03  0.00000000000E+00 0. -1.
          2   -1    0    0  501    0  0.00000000000E+00 -0.00000000000E+00 -0.37670201833E+03  0.37670201833E+03  0.00000000000E+00 0.  1.
         23    2    1    2    0    0  0.79597795731E+02 -0.17691522482E+03  0.75679409250E+02  0.22768029091E+03  0.92065933040E+02 0.  0.
        254    2    1    2    0    0 -0.79597795731E+02  0.17691522482E+03  0.38646790891E+03  0.98787106391E+03  0.88819873251E+03 0.  0.
         23    2    4    4    0    0 -0.43068555247E+03  0.12436279073E+02  0.10930568716E+02  0.44052824339E+03  0.91109548048E+02 0.  0.
         23    2    4    4    0    0  0.35108775674E+03  0.16447894575E+03  0.37553734019E+03  0.54734282052E+03  0.90774075416E+02 0.  0.
          2    1    3    3  502    0  0.59928073141E+02 -0.40914448766E+02  0.39508811054E+01  0.72670320831E+02  0.00000000000E+00 0.  1.
         -2    1    3    3    0  502  0.19669722590E+02 -0.13600077606E+03  0.71728528144E+02  0.15500997008E+03  0.00000000000E+00 0. -1.
         11    1    5    5    0    0 -0.36188635463E+03  0.38405336956E+02  0.28137658456E+02  0.36500470051E+03  0.00000000000E+00 0.  1.
        -11    1    5    5    0    0 -0.68799197847E+02 -0.25969057884E+02 -0.17207089740E+02  0.75523542879E+02  0.00000000000E+00 0. -1.
          2    1    6    6  503    0  0.93112033699E+02  0.51478146406E+02  0.52089927209E+02  0.11846185417E+03  0.00000000000E+00 0. -1.
         -2    1    6    6    0  503  0.25797572304E+03  0.11300079935E+03  0.32344741298E+03  0.42888096635E+03  0.00000000000E+00 0.  1.
<mgrwt>
<rscale>  0 0.11242709E+04</rscale>
<asrwt>0</asrwt>
<pdfrwt beam="1">  1        2 0.57954157E-01 0.11242709E+04</pdfrwt>
<pdfrwt beam="2">  1       -2 0.12905374E+00 0.11242709E+04</pdfrwt>
<totfact> 0.37295590E+01</totfact>
</mgrwt>
</event>
<event>
12    2  0.3555611E-008  0.1286690E+04  0.7818608E-02  0.9040187E-01
          1   -1    0    0  501    0  0.00000000000E+00  0.00000000000E+00  0.18823324732E+04  0.18823324732E+04  0.00000000000E+00 0. -1.
         -1   -1    0    0    0  501 -0.00000000000E+00 -0.00000000000E+00 -0.21988304634E+03  0.21988304634E+03  0.00000000000E+00 0.  1.
         23    2    1    2    0    0  0.32198547055E+03  0.40164216249E+02  0.60434628921E+03  0.69208505173E+03  0.91975399031E+02 0.  0.
        254    2    1    2    0    0 -0.32198547055E+03 -0.40164216249E+02  0.10581031377E+04  0.14101304678E+04  0.87384087731E+03 0.  0.
         23    2    4    4    0    0 -0.48254463785E+03  0.14407401096E+03  0.10262259769E+04  0.11473692774E+04  0.98538595801E+02 0.  0.
         23    2    4    4    0    0  0.16055916730E+03 -0.18423822721E+03  0.31877160766E+02  0.26276119045E+03  0.91128037717E+02 0.  0.
          4    1    3    3  502    0  0.26533277532E+03  0.20710561408E+02  0.55085556852E+03  0.61177795513E+03  0.00000000000E+00 0. -1.
         -4    1    3    3    0  502  0.56652695232E+02  0.19453654841E+02  0.53490720688E+02  0.80307096595E+02  0.00000000000E+00 0.  1.
         11    1    5    5    0    0 -0.31491470999E+03  0.60528041721E+02  0.72357563392E+03  0.79145221991E+03  0.00000000000E+00 0. -1.
        -11    1    5    5    0    0 -0.16762992786E+03  0.83545969243E+02  0.30265034298E+03  0.35591705747E+03  0.00000000000E+00 0.  1.
          4    1    6    6  503    0  0.15398702848E+03 -0.15215912504E+03 -0.82402627933E+00  0.21648344808E+03  0.00000000000E+00 0. -1.
         -4    1    6    6    0  503  0.65721388207E+01 -0.32079102173E+02  0.32701187045E+02  0.46277742372E+02  0.00000000000E+00 0.  1.
<mgrwt>
<rscale>  0 0.12866903E+04</rscale>
<asrwt>0</asrwt>
<pdfrwt beam="1">  1        1 0.28958960E+00 0.12866903E+04</pdfrwt>
<pdfrwt beam="2">  1       -1 0.33828162E-01 0.12866903E+04</pdfrwt>
<totfact> 0.29077096E+01</totfact>
</mgrwt>
</event>
<event>
12    2  0.3555611E-008  0.2001062E+04  0.7818608E-02  0.8606124E-01
         -2   -1    0    0    0  501 -0.00000000000E+00  0.00000000000E+00  0.82583980673E+03  0.82583980673E+03  0.00000000000E+00 0. -1.
          2   -1    0    0  501    0  0.00000000000E+00 -0.00000000000E+00 -0.12121747928E+04  0.12121747928E+04  0.00000000000E+00 0.  1.
         23    2    1    2    0    0 -0.10048472426E+02 -0.78400934218E+03 -0.14272450855E+02  0.78946053505E+03  0.90953906627E+02 0.  0.
        254    2    1    2    0    0  0.10048472426E+02  0.78400934218E+03 -0.37206253521E+03  0.12485540645E+04  0.89759963313E+03 0.  0.
         23    2    4    4    0    0 -0.18118388936E+02  0.19654512982E+03 -0.57878495010E+03  0.61862786956E+03  0.93542281666E+02 0.  0.
         23    2    4    4    0    0  0.28166861362E+02  0.58746421236E+03  0.20672241489E+03  0.62992619492E+03  0.90361946341E+02 0.  0.
          4    1    3    3  502    0  0.13800986877E+01 -0.54789375788E+03  0.31002523119E+02  0.54877192990E+03  0.00000000000E+00 0. -1.
         -4    1    3    3    0  502 -0.11428571114E+02 -0.23611558429E+03 -0.45274973974E+02  0.24068860516E+03  0.00000000000E+00 0.  1.
         11    1    5    5    0    0 -0.45084709107E+02  0.49934210679E+02 -0.22150390768E+03  0.23149522135E+03  0.00000000000E+00 0. -1.
        -11    1    5    5    0    0  0.26966320171E+02  0.14661091914E+03 -0.35728104242E+03  0.38713264821E+03  0.00000000000E+00 0.  1.
          4    1    6    6  503    0 -0.27046941472E+02  0.30312933436E+03  0.12469800449E+03  0.32888983371E+03  0.00000000000E+00 0.  1.
         -4    1    6    6    0  503  0.55213802834E+02  0.28433487800E+03  0.82024410398E+02  0.30103636121E+03  0.00000000000E+00 0. -1.
<mgrwt>
<rscale>  0 0.20010619E+04</rscale>
<asrwt>0</asrwt>
<pdfrwt beam="1">  1        2 0.18648843E+00 0.20010619E+04</pdfrwt>
<pdfrwt beam="2">  1       -2 0.12705228E+00 0.20010619E+04</pdfrwt>
<totfact> 0.79646783E+00</totfact>
</mgrwt>
</event>
<event>
12    2  0.3555611E-008  0.2051445E+04  0.7818608E-02  0.8582939E-01
          2   -1    0    0  501    0  0.00000000000E+00  0.00000000000E+00  0.17001160306E+04  0.17001160306E+04  0.00000000000E+00 0. -1.
         -2   -1    0    0    0  501 -0.00000000000E+00 -0.00000000000E+00 -0.61884411266E+03  0.61884411266E+03  0.00000000000E+00 0.  1.
         23    2    1    2    0    0  0.63123845536E+03 -0.28195798670E+03  0.94831324062E+03  0.11768050278E+04  0.87234038013E+02 0.  0.
        254    2    1    2    0    0 -0.63123845536E+03  0.28195798670E+03  0.13295867735E+03  0.11421551155E+04  0.89937645293E+03 0.  0.
         23    2    4    4    0    0 -0.56311301272E+03  0.57839526212E+03  0.14061302242E+03  0.82444651397E+03  0.91119086742E+02 0.  0.
         23    2    4    4    0    0 -0.68125442639E+02 -0.29643727542E+03 -0.76543450732E+01  0.31770860149E+03  0.91455083345E+02 0.  0.
          1    1    3    3  502    0  0.12453607405E+03 -0.33688357379E+02  0.22590860878E+03  0.26015156867E+03  0.00000000000E+00 0. -1.
         -1    1    3    3    0  502  0.50670238131E+03 -0.24826962932E+03  0.72240463185E+03  0.91665345916E+03  0.00000000000E+00 0.  1.
         11    1    5    5    0    0 -0.46595124252E+03  0.45852203622E+03  0.14685861205E+03  0.67001527598E+03  0.00000000000E+00 0.  1.
        -11    1    5    5    0    0 -0.97161770199E+02  0.11987322590E+03 -0.62455896275E+01  0.15443123799E+03  0.00000000000E+00 0. -1.
          3    1    6    6  503    0 -0.75498300193E+01 -0.17537019509E+01 -0.14878922757E+02  0.16776702485E+02  0.00000000000E+00 0. -1.
         -3    1    6    6    0  503 -0.60575612620E+02 -0.29468357347E+03  0.72245776837E+01  0.30093189901E+03  0.00000000000E+00 0.  1.
<mgrwt>
<rscale>  0 0.20514451E+04</rscale>
<asrwt>0</asrwt>
<pdfrwt beam="1">  1        2 0.26155631E+00 0.20514451E+04</pdfrwt>
<pdfrwt beam="2">  1       -2 0.95206787E-01 0.20514451E+04</pdfrwt>
<totfact> 0.84124133E+00</totfact>
</mgrwt>
</event>
<event>
12    2  0.3555611E-008  0.1293906E+04  0.7818608E-02  0.9034412E-01
          1   -1    0    0  501    0  0.00000000000E+00  0.00000000000E+00  0.90910398179E+03  0.90910398179E+03  0.00000000000E+00 0. -1.
         -1   -1    0    0    0  501 -0.00000000000E+00 -0.00000000000E+00 -0.46039642459E+03  0.46039642459E+03  0.00000000000E+00 0.  1.
         23    2    1    2    0    0  0.10939307329E+01 -0.32533191103E+03  0.10433211544E+03  0.35403338439E+03  0.92803006049E+02 0.  0.
        254    2    1    2    0    0 -0.10939307329E+01  0.32533191103E+03  0.34437544175E+03  0.10154670220E+04  0.89818526979E+03 0.  0.
         23    2    4    4    0    0  0.16914837685E+03 -0.18752612093E+03  0.38054101337E+03  0.46564561513E+03  0.90758782570E+02 0.  0.
         23    2    4    4    0    0 -0.17024230758E+03  0.51285803195E+03 -0.36165571618E+02  0.54982140687E+03  0.94814696368E+02 0.  0.
          1    1    3    3  502    0  0.26095507188E+01 -0.26814755944E+03  0.12136685202E+03  0.29434645599E+03  0.00000000000E+00 0. -1.
         -1    1    3    3    0  502 -0.15156199859E+01 -0.57184351590E+02 -0.17034736579E+02  0.59686928393E+02  0.00000000000E+00 0.  1.
         11    1    5    5    0    0  0.16721875418E+03 -0.14252671664E+03  0.28362262383E+03  0.35877258738E+03  0.00000000000E+00 0. -1.
        -11    1    5    5    0    0  0.19296226652E+01 -0.44999404290E+02  0.96918389538E+02  0.10687302775E+03  0.00000000000E+00 0.  1.
          3    1    6    6  503    0 -0.76417716295E+02  0.14745749851E+03 -0.46353697987E+02  0.17242983080E+03  0.00000000000E+00 0. -1.
         -3    1    6    6    0  503 -0.93824591283E+02  0.36540053344E+03  0.10188126369E+02  0.37739157607E+03  0.00000000000E+00 0.  1.
<mgrwt>
<rscale>  0 0.12939061E+04</rscale>
<asrwt>0</asrwt>
<pdfrwt beam="1">  1        1 0.13986215E+00 0.12939061E+04</pdfrwt>
<pdfrwt beam="2">  1       -1 0.70830219E-01 0.12939061E+04</pdfrwt>
<totfact> 0.35413847E+01</totfact>
</mgrwt>
</event>
<event>
12    2  0.3555611E-008  0.1484311E+04  0.7818608E-02  0.8894953E-01
         -2   -1    0    0    0  501 -0.00000000000E+00  0.00000000000E+00  0.44452026972E+03  0.44452026972E+03  0.00000000000E+00 0. -1.
          2   -1    0    0  501    0  0.00000000000E+00 -0.00000000000E+00 -0.12390772193E+04  0.12390772193E+04  0.00000000000E+00 0.  1.
         23    2    1    2    0    0  0.23779460712E+03 -0.80404856153E+02  0.18945369973E+03  0.32753351729E+03  0.91511116994E+02 0.  0.
        254    2    1    2    0    0 -0.23779460712E+03  0.80404856153E+02 -0.98401064933E+03  0.13560639717E+04  0.89867754028E+03 0.  0.
         23    2    4    4    0    0 -0.46553107062E+03 -0.21998789751E+03 -0.41470038897E+03  0.66704643330E+03  0.88660469158E+02 0.  0.
         23    2    4    4    0    0  0.22773646350E+03  0.30039275367E+03 -0.56931026035E+03  0.68901753845E+03  0.92364996024E+02 0.  0.
          2    1    3    3  502    0  0.13503403006E+03 -0.78292419203E+02  0.73329740997E+02  0.17245620631E+03  0.00000000000E+00 0. -1.
         -2    1    3    3    0  502  0.10276057706E+03 -0.21124369504E+01  0.11612395873E+03  0.15507731098E+03  0.00000000000E+00 0.  1.
         11    1    5    5    0    0 -0.75620594973E+02 -0.68381241007E+02 -0.10646331076E+03  0.14740727609E+03  0.00000000000E+00 0. -1.
        -11    1    5    5    0    0 -0.38991047565E+03 -0.15160665650E+03 -0.30823707821E+03  0.51963915721E+03  0.00000000000E+00 0.  1.
          1    1    6    6  503    0  0.17413492452E+02  0.27881381267E+02 -0.14138323129E+02  0.35783981356E+02  0.00000000000E+00 0. -1.
         -1    1    6    6    0  503  0.21032297104E+03  0.27251137240E+03 -0.55517193723E+03  0.65323355710E+03  0.00000000000E+00 0.  1.
<mgrwt>
<rscale>  0 0.14843112E+04</rscale>
<asrwt>0</asrwt>
<pdfrwt beam="1">  1        2 0.19062726E+00 0.14843112E+04</pdfrwt>
<pdfrwt beam="2">  1       -2 0.68387735E-01 0.14843112E+04</pdfrwt>
<totfact> 0.33967175E+01</totfact>
</mgrwt>
</event>
<event>
12    2  0.3555611E-008  0.1729235E+04  0.7818608E-02  0.8744864E-01
         -1   -1    0    0    0  501 -0.00000000000E+00  0.00000000000E+00  0.62507218118E+03  0.62507218118E+03  0.00000000000E+00 0.  1.
          1   -1    0    0  501    0  0.00000000000E+00 -0.00000000000E+00 -0.11959633796E+04  0.11959633796E+04  0.00000000000E+00 0. -1.
         23    2    1    2    0    0  0.53754562097E+03 -0.29342947667E+03 -0.36426809440E+03  0.71819554720E+03  0.89763283239E+02 0.  0.
        254    2    1    2    0    0 -0.53754562097E+03  0.29342947667E+03 -0.20662310397E+03  0.11028400135E+04  0.89359209708E+03 0.  0.
         23    2    4    4    0    0 -0.59540844818E+03 -0.13028409756E+03  0.61319744495E+01  0.61648790552E+03  0.92382738095E+02 0.  0.
         23    2    4    4    0    0  0.57862827208E+02  0.42371357423E+03 -0.21275507842E+03  0.48635210802E+03  0.91609769256E+02 0.  0.
          1    1    3    3  502    0  0.38815521559E+03 -0.17054735179E+03 -0.27341020394E+03  0.50448390481E+03  0.00000000000E+00 0. -1.
         -1    1    3    3    0  502  0.14939040538E+03 -0.12288212488E+03 -0.90857890458E+02  0.21371164239E+03  0.00000000000E+00 0.  1.
         11    1    5    5    0    0 -0.35950651307E+03 -0.12315109130E+03 -0.74501337787E+01  0.38008765926E+03  0.00000000000E+00 0.  1.
        -11    1    5    5    0    0 -0.23590193511E+03 -0.71330062590E+01  0.13582108228E+02  0.23640024625E+03  0.00000000000E+00 0. -1.
          3    1    6    6  503    0  0.27051250274E+02  0.36550582533E+02 -0.42661882604E+02  0.62351835997E+02  0.00000000000E+00 0. -1.
         -3    1    6    6    0  503  0.30811576934E+02  0.38716299170E+03 -0.17009319581E+03  0.42400027202E+03  0.00000000000E+00 0.  1.
<mgrwt>
<rscale>  0 0.17292350E+04</rscale>
<asrwt>0</asrwt>
<pdfrwt beam="1">  1        1 0.18399436E+00 0.17292350E+04</pdfrwt>
<pdfrwt beam="2">  1       -1 0.96164952E-01 0.17292350E+04</pdfrwt>
<totfact> 0.10640535E+01</totfact>
</mgrwt>
</event>
<event>
12    2  0.3555611E-008  0.1415616E+04  0.7818608E-02  0.8942592E-01
          2   -1    0    0  501    0  0.00000000000E+00  0.00000000000E+00  0.33155852153E+04  0.33155852153E+04  0.00000000000E+00 0.  1.
         -2   -1    0    0    0  501 -0.00000000000E+00 -0.00000000000E+00 -0.15110228058E+03  0.15110228058E+03  0.00000000000E+00 0. -1.
         23    2    1    2    0    0 -0.18756847360E+03 -0.29092168541E+03  0.40042652651E+03  0.53562028959E+03  0.82038601619E+02 0.  0.
        254    2    1    2    0    0  0.18756847360E+03  0.29092168541E+03  0.27640564082E+04  0.29310672063E+04  0.91177287782E+03 0.  0.
         23    2    4    4    0    0 -0.25696569281E+03 -0.37206344552E+02  0.31558082070E+03  0.41931688686E+03  0.93913352947E+02 0.  0.
         23    2    4    4    0    0  0.44453416641E+03  0.32812802996E+03  0.24484755875E+04  0.25117503195E+04  0.92619303445E+02 0.  0.
          2    1    3    3  502    0 -0.16688484129E+03 -0.28532811776E+03  0.39157076100E+03  0.51243569929E+03  0.00000000000E+00 0. -1.
         -2    1    3    3    0  502 -0.20683632308E+02 -0.55935676510E+01  0.88557655098E+01  0.23184590298E+02  0.00000000000E+00 0.  1.
         11    1    5    5    0    0 -0.14010543471E+02  0.11957634426E+02  0.51151356788E+00  0.18426665340E+02  0.00000000000E+00 0.  1.
        -11    1    5    5    0    0 -0.24295514934E+03 -0.49163978978E+02  0.31506930713E+03  0.40089022152E+03  0.00000000000E+00 0. -1.
          2    1    6    6  503    0  0.22466657701E+03  0.17460474958E+03  0.14646537064E+04  0.14920363163E+04  0.00000000000E+00 0. -1.
         -2    1    6    6    0  503  0.21986758940E+03  0.15352328038E+03  0.98382188116E+03  0.10197140032E+04  0.00000000000E+00 0.  1.
<mgrwt>
<rscale>  0 0.14156165E+04</rscale>
<asrwt>0</asrwt>
<pdfrwt beam="1">  1        2 0.51008998E+00 0.14156165E+04</pdfrwt>
<pdfrwt beam="2">  1       -2 0.23246507E-01 0.14156165E+04</pdfrwt>
<totfact> 0.17530892E+01</totfact>
</mgrwt>
</event>
<event>
12    2  0.3555611E-008  0.1215164E+04  0.7818608E-02  0.9099686E-01
          1   -1    0    0  501    0  0.00000000000E+00  0.00000000000E+00  0.58104801722E+03  0.58104801722E+03  0.00000000000E+00 0. -1.
         -1   -1    0    0    0  501 -0.00000000000E+00 -0.00000000000E+00 -0.63532730946E+03  0.63532730946E+03  0.00000000000E+00 0.  1.
         23    2    1    2    0    0  0.19473997740E+03  0.12396512659E+03 -0.14093349870E+03  0.28571228680E+03  0.92077404192E+02 0.  0.
        254    2    1    2    0    0 -0.19473997740E+03 -0.12396512659E+03  0.86654206454E+02  0.93066303989E+03  0.89740388394E+03 0.  0.
         23    2    4    4    0    0  0.21245324146E+03 -0.37385649520E+03  0.59982758028E+02  0.44357174663E+03  0.90845497058E+02 0.  0.
         23    2    4    4    0    0 -0.40719321886E+03  0.24989136861E+03  0.26671448426E+02  0.48709129326E+03  0.91074410328E+02 0.  0.
          4    1    3    3  502    0  0.19986502003E+03  0.11074123316E+03 -0.11418511093E+03  0.25543665851E+03  0.00000000000E+00 0.  1.
         -4    1    3    3    0  502 -0.51250426356E+01  0.13223893427E+02 -0.26748387773E+02  0.30275628282E+02  0.00000000000E+00 0. -1.
         11    1    5    5    0    0  0.25611116815E+02 -0.65350432460E+01 -0.32777976614E+01  0.26634189536E+02  0.00000000000E+00 0. -1.
        -11    1    5    5    0    0  0.18684212464E+03 -0.36732145195E+03  0.63260555689E+02  0.41693755709E+03  0.00000000000E+00 0.  1.
          3    1    6    6  503    0 -0.44862721244E+02  0.15215697549E+02  0.28716036929E+02  0.55396678476E+02  0.00000000000E+00 0. -1.
         -3    1    6    6    0  503 -0.36233049761E+03  0.23467567106E+03 -0.20445885029E+01  0.43169461478E+03  0.00000000000E+00 0.  1.
<mgrwt>
<rscale>  0 0.12151636E+04</rscale>
<asrwt>0</asrwt>
<pdfrwt beam="1">  1        1 0.89392003E-01 0.12151636E+04</pdfrwt>
<pdfrwt beam="2">  1       -1 0.97742663E-01 0.12151636E+04</pdfrwt>
<totfact> 0.35627181E+01</totfact>
</mgrwt>
</event>
<event>
12    2  0.3555611E-008  0.2364986E+04  0.7818608E-02  0.8452730E-01
         -1   -1    0    0    0  501 -0.00000000000E+00  0.00000000000E+00  0.96500556640E+03  0.96500556640E+03  0.00000000000E+00 0.  1.
          1   -1    0    0  501    0  0.00000000000E+00 -0.00000000000E+00 -0.14489961654E+04  0.14489961654E+04  0.00000000000E+00 0. -1.
         23    2    1    2    0    0  0.16691028271E+03  0.45341979570E+03  0.69461482477E+03  0.85155140955E+03  0.95924421915E+02 0.  0.
        254    2    1    2    0    0 -0.16691028271E+03 -0.45341979570E+03 -0.11786054238E+04  0.15624503222E+04  0.90481584367E+03 0.  0.
         23    2    4    4    0    0  0.33348321161E+02 -0.42461719619E+03 -0.81391276693E+02  0.44304483712E+03  0.90842247592E+02 0.  0.
         23    2    4    4    0    0 -0.20025860387E+03 -0.28802599506E+02 -0.10972141471E+04  0.11194054851E+04  0.90866151217E+02 0.  0.
          3    1    3    3  502    0  0.10479796832E+00  0.95231751342E+02  0.10465429860E+03  0.14149777264E+03  0.00000000000E+00 0. -1.
         -3    1    3    3    0  502  0.16680548474E+03  0.35818804436E+03  0.58996052617E+03  0.71005363691E+03  0.00000000000E+00 0.  1.
         11    1    5    5    0    0  0.60255896216E+02 -0.36652814958E+03 -0.67346219094E+02  0.37750386845E+03  0.00000000000E+00 0.  1.
        -11    1    5    5    0    0 -0.26907575055E+02 -0.58089046607E+02 -0.14045057599E+02  0.65540968669E+02  0.00000000000E+00 0. -1.
          3    1    6    6  503    0 -0.35581164062E+02 -0.33141673346E+02 -0.14210444671E+03  0.15019342037E+03  0.00000000000E+00 0. -1.
         -3    1    6    6    0  503 -0.16467743981E+03  0.43390738398E+01 -0.95510970036E+03  0.96921206476E+03  0.00000000000E+00 0.  1.
<mgrwt>
<rscale>  0 0.23649857E+04</rscale>
<asrwt>0</asrwt>
<pdfrwt beam="1">  1        1 0.22292249E+00 0.23649857E+04</pdfrwt>
<pdfrwt beam="2">  1       -1 0.14846240E+00 0.23649857E+04</pdfrwt>
<totfact> 0.22890057E+00</totfact>
</mgrwt>
</event>
<event>
12    2  0.3555611E-008  0.2307852E+04  0.7818608E-02  0.8474832E-01
          2   -1    0    0  501    0  0.00000000000E+00  0.00000000000E+00  0.16122864741E+04  0.16122864741E+04  0.00000000000E+00 0. -1.
         -2   -1    0    0    0  501 -0.00000000000E+00 -0.00000000000E+00 -0.82587362166E+03  0.82587362166E+03  0.00000000000E+00 0.  1.
         23    2    1    2    0    0  0.87960257993E+03 -0.31806945885E+03  0.62142894725E+03  0.11253814082E+04  0.73759732903E+02 0.  0.
        254    2    1    2    0    0 -0.87960257993E+03  0.31806945885E+03  0.16498390519E+03  0.13127786875E+04  0.90625565611E+03 0.  0.
         23    2    4    4    0    0 -0.85570151799E+03 -0.86239196688E+02  0.21687594163E+03  0.89286945495E+03  0.10255926381E+03 0.  0.
         23    2    4    4    0    0 -0.23901061944E+02  0.40430865553E+03 -0.51892036444E+02  0.41990923260E+03  0.97950142788E+02 0.  0.
          1    1    3    3  502    0  0.41518007557E+03 -0.13515120794E+03  0.33083838046E+03  0.54780870579E+03  0.00000000000E+00 0. -1.
         -1    1    3    3    0  502  0.46442250436E+03 -0.18291825091E+03  0.29059056679E+03  0.57757270242E+03  0.00000000000E+00 0.  1.
         11    1    5    5    0    0 -0.72091853408E+03 -0.65488892614E+02  0.14336425565E+03  0.73794690706E+03  0.00000000000E+00 0.  1.
        -11    1    5    5    0    0 -0.13478298391E+03 -0.20750304073E+02  0.73511685980E+02  0.15492254790E+03  0.00000000000E+00 0. -1.
          4    1    6    6  503    0 -0.29938423772E+02  0.18994163677E+03  0.20948477351E+02  0.19342433482E+03  0.00000000000E+00 0. -1.
         -4    1    6    6    0  503  0.60373618280E+01  0.21436701877E+03 -0.72840513795E+02  0.22648489778E+03  0.00000000000E+00 0.  1.
<mgrwt>
<rscale>  0 0.23078517E+04</rscale>
<asrwt>0</asrwt>
<pdfrwt beam="1">  1        2 0.24804407E+00 0.23078517E+04</pdfrwt>
<pdfrwt beam="2">  1       -2 0.12705748E+00 0.23078517E+04</pdfrwt>
<totfact> 0.45773047E+00</totfact>
</mgrwt>
</event>
<event>
12    2  0.3555611E-008  0.1956110E+04  0.7818608E-02  0.8627420E-01
         -2   -1    0    0    0  501 -0.00000000000E+00  0.00000000000E+00  0.19339663087E+04  0.19339663087E+04  0.00000000000E+00 0.  1.
          2   -1    0    0  501    0  0.00000000000E+00 -0.00000000000E+00 -0.49462695173E+03  0.49462695173E+03  0.00000000000E+00 0. -1.
         23    2    1    2    0    0 -0.42505067576E+03  0.55328480932E+03  0.17230098706E+03  0.72433380763E+03  0.90441569792E+02 0.  0.
        254    2    1    2    0    0  0.42505067576E+03 -0.55328480932E+03  0.12670383699E+04  0.17042594528E+04  0.90128901827E+03 0.  0.
         23    2    4    4    0    0  0.40694436295E+03  0.10726147207E+03  0.73245474498E+03  0.84955449545E+03  0.90244940980E+02 0.  0.
         23    2    4    4    0    0  0.18106312814E+02 -0.66054628138E+03  0.53458362489E+03  0.85470495732E+03  0.89953786216E+02 0.  0.
          1    1    3    3  502    0 -0.32630988779E+03  0.48051679243E+03  0.13914130006E+03  0.59727282883E+03  0.00000000000E+00 0. -1.
         -1    1    3    3    0  502 -0.98740787973E+02  0.72768016881E+02  0.33159687004E+02  0.12706097880E+03  0.00000000000E+00 0.  1.
         11    1    5    5    0    0  0.74718375132E+02  0.26738140200E+02  0.78404367964E+02  0.11155719896E+03  0.00000000000E+00 0.  1.
        -11    1    5    5    0    0  0.33222598782E+03  0.80523331868E+02  0.65405037701E+03  0.73799729649E+03  0.00000000000E+00 0. -1.
          2    1    6    6  503    0  0.12836728513E+02 -0.62297683082E+03  0.52684968810E+03  0.81598744304E+03  0.00000000000E+00 0. -1.
         -2    1    6    6    0  503  0.52695843001E+01 -0.37569450560E+02  0.77339367897E+01  0.38717514284E+02  0.00000000000E+00 0.  1.
<mgrwt>
<rscale>  0 0.19561103E+04</rscale>
<asrwt>0</asrwt>
<pdfrwt beam="1">  1        2 0.76096455E-01 0.19561103E+04</pdfrwt>
<pdfrwt beam="2">  1       -2 0.29753327E+00 0.19561103E+04</pdfrwt>
<totfact> 0.19153710E+00</totfact>
</mgrwt>
</event>
<event>
12    2  0.3555611E-008  0.2999762E+04  0.7818608E-02  0.8243799E-01
         -1   -1    0    0    0  501 -0.00000000000E+00  0.00000000000E+00  0.13909804910E+04  0.13909804910E+04  0.00000000000E+00 0.  1.
          1   -1    0    0  501    0  0.00000000000E+00 -0.00000000000E+00 -0.16173069531E+04  0.16173069531E+04  0.00000000000E+00 0. -1.
         23    2    1    2    0    0 -0.13042185800E+04  0.11645566254E+03 -0.49816503566E+03  0.14036054583E+04  0.85975891933E+02 0.  0.
        254    2    1    2    0    0  0.13042185800E+04 -0.11645566254E+03  0.27183857353E+03  0.16046819859E+04  0.88688220188E+03 0.  0.
         23    2    4    4    0    0  0.60960619830E+03  0.26711328179E+03  0.41983831843E+03  0.79216013612E+03  0.91017829689E+02 0.  0.
         23    2    4    4    0    0  0.69461238168E+03 -0.38356894432E+03 -0.14799974490E+03  0.81252184974E+03  0.93146851772E+02 0.  0.
          4    1    3    3  502    0 -0.73458996062E+03  0.78184572999E+02 -0.32446203144E+03  0.80685243232E+03  0.00000000000E+00 0. -1.
         -4    1    3    3    0  502 -0.56962861935E+03  0.38271089538E+02 -0.17370300423E+03  0.59675302593E+03  0.00000000000E+00 0.  1.
         11    1    5    5    0    0  0.21842132737E+03  0.51797955105E+02  0.15824270603E+03  0.27464824488E+03  0.00000000000E+00 0.  1.
        -11    1    5    5    0    0  0.39118487093E+03  0.21531532668E+03  0.26159561240E+03  0.51751189125E+03  0.00000000000E+00 0. -1.
          1    1    6    6  503    0  0.65495718375E+03 -0.37652132450E+03 -0.15612168601E+03  0.77143450869E+03  0.00000000000E+00 0. -1.
         -1    1    6    6    0  503  0.39655197927E+02 -0.70476198181E+01  0.81219411102E+01  0.41087341057E+02  0.00000000000E+00 0.  1.
<mgrwt>
<rscale>  0 0.29997616E+04</rscale>
<asrwt>0</asrwt>
<pdfrwt beam="1">  1        1 0.24881645E+00 0.29997616E+04</pdfrwt>
<pdfrwt beam="2">  1       -1 0.21399700E+00 0.29997616E+04</pdfrwt>
<totfact> 0.55815473E-01</totfact>
</mgrwt>
</event>
<event>
12    2  0.3555611E-008  0.2079901E+04  0.7818608E-02  0.8570149E-01
         -2   -1    0    0    0  501 -0.00000000000E+00  0.00000000000E+00  0.91396802722E+03  0.91396802722E+03  0.00000000000E+00 0.  1.
          2   -1    0    0  501    0  0.00000000000E+00 -0.00000000000E+00 -0.11832985053E+04  0.11832985053E+04  0.00000000000E+00 0. -1.
         23    2    1    2    0    0 -0.23809652795E+03 -0.23345692788E+03 -0.88802037179E+03  0.95301628343E+03  0.92020443239E+02 0.  0.
        254    2    1    2    0    0  0.23809652795E+03  0.23345692788E+03  0.61868989376E+03  0.11442502490E+04  0.90296143550E+03 0.  0.
         23    2    4    4    0    0 -0.65727684486E+02  0.97731107106E+02  0.75795320064E+03  0.77217554494E+03  0.88828599277E+02 0.  0.
         23    2    4    4    0    0  0.30382421244E+03  0.13572582077E+03 -0.13926330688E+03  0.37207470409E+03  0.91184792024E+02 0.  0.
          1    1    3    3  502    0  0.24401248926E+01 -0.99802128643E+01 -0.60687710495E+01  0.11932679513E+02  0.00000000000E+00 0.  1.
         -1    1    3    3    0  502 -0.24053665284E+03 -0.22347671501E+03 -0.88195160074E+03  0.94108360392E+03  0.00000000000E+00 0. -1.
         11    1    5    5    0    0  0.14102180512E+02  0.18780960727E+02  0.48435295907E+02  0.53829117313E+02  0.00000000000E+00 0.  1.
        -11    1    5    5    0    0 -0.79829864998E+02  0.78950146379E+02  0.70951790473E+03  0.71834642763E+03  0.00000000000E+00 0. -1.
          1    1    6    6  503    0  0.15169467508E+03  0.40050794942E+02 -0.24372808541E+02  0.15877460257E+03  0.00000000000E+00 0. -1.
         -1    1    6    6    0  503  0.15212953735E+03  0.95675025828E+02 -0.11489049834E+03  0.21330010153E+03  0.00000000000E+00 0.  1.
<mgrwt>
<rscale>  0 0.20799010E+04</rscale>
<asrwt>0</asrwt>
<pdfrwt beam="1">  1        2 0.18204593E+00 0.20799010E+04</pdfrwt>
<pdfrwt beam="2">  1       -2 0.14061046E+00 0.20799010E+04</pdfrwt>
<totfact> 0.63542265E+00</totfact>
</mgrwt>
</event>
<event>
12    2  0.3555611E-008  0.1404896E+04  0.7818608E-02  0.8950282E-01
         -2   -1    0    0    0  501 -0.00000000000E+00  0.00000000000E+00  0.42818365490E+03  0.42818365490E+03  0.00000000000E+00 0. -1.
          2   -1    0    0  501    0  0.00000000000E+00 -0.00000000000E+00 -0.11523862519E+04  0.11523862519E+04  0.00000000000E+00 0.  1.
         23    2    1    2    0    0  0.64202613967E+02 -0.22130699312E+02 -0.65390117349E+03  0.66375614010E+03  0.91508061554E+02 0.  0.
        254    2    1    2    0    0 -0.64202613967E+02  0.22130699312E+02 -0.70301423515E+02  0.91681376671E+03  0.91158842094E+03 0.  0.
         23    2    4    4    0    0  0.10209827866E+03 -0.18588784285E+01 -0.46104233371E+03  0.48116418324E+03  0.92365706949E+02 0.  0.
         23    2    4    4    0    0 -0.16630089263E+03  0.23989577741E+02  0.39074091020E+03  0.43564958347E+03  0.94237009438E+02 0.  0.
          4    1    3    3  502    0  0.17006721884E+02 -0.31504496826E+01 -0.15180782545E+02  0.23013258812E+02  0.00000000000E+00 0. -1.
         -4    1    3    3    0  502  0.47195892082E+02 -0.18980249629E+02 -0.63872039095E+03  0.64074288128E+03  0.00000000000E+00 0.  1.
         11    1    5    5    0    0  0.10498258222E+02  0.15811361968E+02 -0.24634458055E+03  0.24707461415E+03  0.00000000000E+00 0.  1.
        -11    1    5    5    0    0  0.91600020442E+02 -0.17670240397E+02 -0.21469775316E+03  0.23408956909E+03  0.00000000000E+00 0. -1.
          2    1    6    6  503    0 -0.12993559130E+03  0.51563055767E+02  0.23575983610E+03  0.27408886684E+03  0.00000000000E+00 0. -1.
         -2    1    6    6    0  503 -0.36365301333E+02 -0.27573478027E+02  0.15498107410E+03  0.16156071663E+03  0.00000000000E+00 0.  1.
<mgrwt>
<rscale>  0 0.14048957E+04</rscale>
<asrwt>0</asrwt>
<pdfrwt beam="1">  1        2 0.17729019E+00 0.14048957E+04</pdfrwt>
<pdfrwt beam="2">  1       -2 0.65874408E-01 0.14048957E+04</pdfrwt>
<totfact> 0.41764525E+01</totfact>
</mgrwt>
</event>
<event>
12    2  0.3555611E-008  0.2554989E+04  0.7818608E-02  0.8383653E-01
          1   -1    0    0  501    0  0.00000000000E+00  0.00000000000E+00  0.27052903086E+04  0.27052903086E+04  0.00000000000E+00 0.  1.
         -1   -1    0    0    0  501 -0.00000000000E+00 -0.00000000000E+00 -0.60325951891E+03  0.60325951891E+03  0.00000000000E+00 0. -1.
         23    2    1    2    0    0  0.68089486566E+03  0.87934542654E+03  0.81162752035E+03  0.13796164740E+04  0.87955593057E+02 0.  0.
        254    2    1    2    0    0 -0.68089486566E+03 -0.87934542654E+03  0.12904032693E+04  0.19289333535E+04  0.90486302136E+03 0.  0.
         23    2    4    4    0    0  0.14422200017E+03  0.11706141057E+02  0.23981728441E+02  0.17231029910E+03  0.90436147681E+02 0.  0.
         23    2    4    4    0    0 -0.82511686583E+03 -0.89105156760E+03  0.12664215409E+04  0.17566230544E+04  0.84322580343E+02 0.  0.
          3    1    3    3  502    0  0.29004642760E+03  0.38417249619E+03  0.29820573735E+03  0.56625268104E+03  0.00000000000E+00 0. -1.
         -3    1    3    3    0  502  0.39084843806E+03  0.49517293035E+03  0.51342178300E+03  0.81336379299E+03  0.00000000000E+00 0.  1.
         11    1    5    5    0    0  0.12636128333E+03 -0.25031159853E+02  0.10286447107E+02  0.12922671505E+03  0.00000000000E+00 0.  1.
        -11    1    5    5    0    0  0.17860716838E+02  0.36737300910E+02  0.13695281334E+02  0.43083584054E+02  0.00000000000E+00 0. -1.
          1    1    6    6  503    0 -0.78534402383E+03 -0.87076467612E+03  0.12237534227E+04  0.16948654214E+04  0.00000000000E+00 0. -1.
         -1    1    6    6    0  503 -0.39772842002E+02 -0.20286891472E+02  0.42668118198E+02  0.61757633027E+02  0.00000000000E+00 0.  1.
<mgrwt>
<rscale>  0 0.25549889E+04</rscale>
<asrwt>0</asrwt>
<pdfrwt beam="1">  1        1 0.41619850E+00 0.25549889E+04</pdfrwt>
<pdfrwt beam="2">  1       -1 0.92809158E-01 0.25549889E+04</pdfrwt>
<totfact> 0.97027216E-01</totfact>
</mgrwt>
</event>
<event>
12    2  0.3555611E-008  0.2791527E+04  0.7818608E-02  0.8305904E-01
         -2   -1    0    0    0  501 -0.00000000000E+00  0.00000000000E+00  0.10704223676E+04  0.10704223676E+04  0.00000000000E+00 0.  1.
          2   -1    0    0  501    0  0.00000000000E+00 -0.00000000000E+00 -0.18199872938E+04  0.18199872938E+04  0.00000000000E+00 0. -1.
         23    2    1    2    0    0  0.10073829701E+03  0.88528654232E+03 -0.12442574410E+04  0.15338033389E+04  0.10244821350E+03 0.  0.
        254    2    1    2    0    0 -0.10073829701E+03 -0.88528654232E+03  0.49469251482E+03  0.13566063225E+04  0.89542144470E+03 0.  0.
         23    2    4    4    0    0  0.79168846861E+02 -0.36773266207E+03 -0.22444631938E+03  0.44775237038E+03  0.92795570147E+02 0.  0.
         23    2    4    4    0    0 -0.17990714387E+03 -0.51755388026E+03  0.71913883420E+03  0.90885395215E+03  0.92877575901E+02 0.  0.
          1    1    3    3  502    0  0.73627867948E+02  0.83873583976E+03 -0.11857854286E+04  0.14542991283E+04  0.00000000000E+00 0. -1.
         -1    1    3    3    0  502  0.27110429065E+02  0.46550702562E+02 -0.58472012421E+02  0.79504210641E+02  0.00000000000E+00 0.  1.
         11    1    5    5    0    0  0.33136679274E+02 -0.60381855249E+02 -0.86929646033E+01  0.69423163211E+02  0.00000000000E+00 0.  1.
        -11    1    5    5    0    0  0.46032167587E+02 -0.30735080682E+03 -0.21575335477E+03  0.37832920717E+03  0.00000000000E+00 0. -1.
          4    1    6    6  503    0 -0.59097738530E+01 -0.11008527068E+03  0.11111940538E+03  0.15652863795E+03  0.00000000000E+00 0. -1.
         -4    1    6    6    0  503 -0.17399737002E+03 -0.40746860958E+03  0.60801942881E+03  0.75232531420E+03  0.00000000000E+00 0.  1.
<mgrwt>
<rscale>  0 0.27915265E+04</rscale>
<asrwt>0</asrwt>
<pdfrwt beam="1">  1        2 0.27999804E+00 0.27915265E+04</pdfrwt>
<pdfrwt beam="2">  1       -2 0.16468037E+00 0.27915265E+04</pdfrwt>
<totfact> 0.17049731E+00</totfact>
</mgrwt>
</event>
<event>
12    2  0.3555611E-008  0.1276259E+04  0.7818608E-02  0.9048607E-01
         -2   -1    0    0    0  501 -0.00000000000E+00  0.00000000000E+00  0.24898725202E+03  0.24898725202E+03  0.00000000000E+00 0.  1.
          2   -1    0    0  501    0  0.00000000000E+00 -0.00000000000E+00 -0.16354628789E+04  0.16354628789E+04  0.00000000000E+00 0. -1.
         23    2    1    2    0    0 -0.29991098886E+03 -0.51805517032E+02 -0.17904196418E+03  0.36501852471E+03  0.92477487058E+02 0.  0.
        254    2    1    2    0    0  0.29991098886E+03  0.51805517032E+02 -0.12074336627E+04  0.15194316062E+04  0.87071576493E+03 0.  0.
         23    2    4    4    0    0  0.28505310052E+03  0.29833739872E+03 -0.11818949445E+04  0.12551977844E+04  0.91571526382E+02 0.  0.
         23    2    4    4    0    0  0.14857888337E+02 -0.24653188169E+03 -0.25538718164E+02  0.26423382182E+03  0.90380091446E+02 0.  0.
          1    1    3    3  502    0 -0.69559097165E+02 -0.32975811491E+02 -0.87204257362E+02  0.11632048248E+03  0.00000000000E+00 0. -1.
         -1    1    3    3    0  502 -0.23035189169E+03 -0.18829705542E+02 -0.91837706817E+02  0.24869804223E+03  0.00000000000E+00 0.  1.
         11    1    5    5    0    0  0.28656521078E+03  0.30340061527E+03 -0.11650251920E+04  0.12375197984E+04  0.00000000000E+00 0. -1.
        -11    1    5    5    0    0 -0.15121102617E+01 -0.50632165444E+01 -0.16869752483E+02  0.17677985973E+02  0.00000000000E+00 0.  1.
          4    1    6    6  503    0  0.24636049152E+02 -0.13626304742E+03  0.27985316727E+02  0.14127183358E+03  0.00000000000E+00 0.  1.
         -4    1    6    6    0  503 -0.97781608153E+01 -0.11026883427E+03 -0.53524034892E+02  0.12296198824E+03  0.00000000000E+00 0. -1.
<mgrwt>
<rscale>  0 0.12762592E+04</rscale>
<asrwt>0</asrwt>
<pdfrwt beam="1">  1        2 0.25160968E+00 0.12762592E+04</pdfrwt>
<pdfrwt beam="2">  1       -2 0.38305731E-01 0.12762592E+04</pdfrwt>
<totfact> 0.67298483E+01</totfact>
</mgrwt>
</event>
<event>
12    2  0.3555611E-008  0.1555850E+04  0.7818608E-02  0.8848140E-01
         -1   -1    0    0    0  501 -0.00000000000E+00  0.00000000000E+00  0.37972833944E+03  0.37972833944E+03  0.00000000000E+00 0.  1.
          1   -1    0    0  501    0  0.00000000000E+00 -0.00000000000E+00 -0.15936838593E+04  0.15936838593E+04  0.00000000000E+00 0. -1.
         23    2    1    2    0    0 -0.39057154562E+03 -0.10695014195E+03 -0.51746996148E+01  0.41629675966E+03  0.96393721112E+02 0.  0.
        254    2    1    2    0    0  0.39057154562E+03  0.10695014195E+03 -0.12087808202E+04  0.15571154390E+04  0.89413251483E+03 0.  0.
         23    2    4    4    0    0  0.62584813427E+03  0.99645105868E+02 -0.11190086532E+04  0.12892363018E+04  0.91295354495E+02 0.  0.
         23    2    4    4    0    0 -0.23527658864E+03  0.73050360816E+01 -0.89772167016E+02  0.26787913721E+03  0.91059065798E+02 0.  0.
          3    1    3    3  502    0 -0.12761453306E+02  0.99336757729E+01  0.12477080417E+02  0.20425722523E+02  0.00000000000E+00 0. -1.
         -3    1    3    3    0  502 -0.37781009232E+03 -0.11688381772E+03 -0.17651780032E+02  0.39587103713E+03  0.00000000000E+00 0.  1.
         11    1    5    5    0    0  0.13676944799E+03  0.57409095676E+02 -0.22954167730E+03  0.27329666626E+03  0.00000000000E+00 0. -1.
        -11    1    5    5    0    0  0.48907868628E+03  0.42236010193E+02 -0.88946697589E+03  0.10159396356E+04  0.00000000000E+00 0.  1.
          4    1    6    6  503    0 -0.15103552044E+03 -0.24754509643E+02 -0.90375004142E+02  0.17774182276E+03  0.00000000000E+00 0. -1.
         -4    1    6    6    0  503 -0.84241068202E+02  0.32059545725E+02  0.60283712655E+00  0.90137314451E+02  0.00000000000E+00 0.  1.
<mgrwt>
<rscale>  0 0.15558495E+04</rscale>
<asrwt>0</asrwt>
<pdfrwt beam="1">  1        1 0.24518213E+00 0.15558495E+04</pdfrwt>
<pdfrwt beam="2">  1       -1 0.58419745E-01 0.15558495E+04</pdfrwt>
<totfact> 0.16114637E+01</totfact>
</mgrwt>
</event>
<event>
12    2  0.3555611E-008  0.1639944E+04  0.7818608E-02  0.8796378E-01
         -1   -1    0    0    0  501 -0.00000000000E+00  0.00000000000E+00  0.94290140491E+03  0.94290140491E+03  0.00000000000E+00 0.  1.
          1   -1    0    0  501    0  0.00000000000E+00 -0.00000000000E+00 -0.71306900641E+03  0.71306900641E+03  0.00000000000E+00 0. -1.
         23    2    1    2    0    0  0.30764773365E+03  0.48879270370E+03  0.12992875422E+03  0.59915491319E+03  0.92410462654E+02 0.  0.
        254    2    1    2    0    0 -0.30764773365E+03 -0.48879270370E+03  0.99903644276E+02  0.10568154981E+04  0.87938206927E+03 0.  0.
         23    2    4    4    0    0 -0.47970680343E+03 -0.56732704965E+03  0.26018183181E+03  0.79242793926E+03  0.90933243582E+02 0.  0.
         23    2    4    4    0    0  0.17205906978E+03  0.78534345950E+02 -0.16027818753E+03  0.26438755888E+03  0.91867931849E+02 0.  0.
          1    1    3    3  502    0  0.42927112399E+02  0.11451614115E+03 -0.13199672704E+01  0.12230464373E+03  0.00000000000E+00 0. -1.
         -1    1    3    3    0  502  0.26472062125E+03  0.37427656255E+03  0.13124872150E+03  0.47685026946E+03  0.00000000000E+00 0.  1.
         11    1    5    5    0    0 -0.18001651929E+02 -0.26451643798E+01  0.59702210944E+00  0.18204746694E+02  0.00000000000E+00 0.  1.
        -11    1    5    5    0    0 -0.46170515150E+03 -0.56468188527E+03  0.25958480970E+03  0.77422319257E+03  0.00000000000E+00 0. -1.
          2    1    6    6  503    0  0.99912484915E+02  0.35799195597E+02 -0.14413472488E+03  0.17899415064E+03  0.00000000000E+00 0. -1.
         -2    1    6    6    0  503  0.72146584868E+02  0.42735150354E+02 -0.16143462650E+02  0.85393408236E+02  0.00000000000E+00 0.  1.
<mgrwt>
<rscale>  0 0.16399436E+04</rscale>
<asrwt>0</asrwt>
<pdfrwt beam="1">  1        1 0.10970292E+00 0.16399436E+04</pdfrwt>
<pdfrwt beam="2">  1       -1 0.14506175E+00 0.16399436E+04</pdfrwt>
<totfact> 0.96679728E+00</totfact>
</mgrwt>
</event>
<event>
12    2  0.3555611E-008  0.2068019E+04  0.7818608E-02  0.8575463E-01
         -1   -1    0    0    0  501 -0.00000000000E+00  0.00000000000E+00  0.98144445481E+03  0.98144445481E+03  0.00000000000E+00 0.  1.
          1   -1    0    0  501    0  0.00000000000E+00 -0.00000000000E+00 -0.10893903126E+04  0.10893903126E+04  0.00000000000E+00 0. -1.
         23    2    1    2    0    0  0.77872118711E+03  0.98365920310E+02 -0.31375126015E+03  0.85126769423E+03  0.10066922299E+03 0.  0.
        254    2    1    2    0    0 -0.77872118711E+03 -0.98365920310E+02  0.20580540239E+03  0.12195670731E+04  0.91044244228E+03 0.  0.
         23    2    4    4    0    0 -0.87644517027E+01 -0.89406558275E+02  0.40191202582E+03  0.41980431719E+03  0.81437337610E+02 0.  0.
         23    2    4    4    0    0 -0.76995673541E+03 -0.89593620357E+01 -0.19610662343E+03  0.79976275595E+03  0.90824079863E+02 0.  0.
          4    1    3    3  502    0  0.70068624694E+03  0.10505705287E+03 -0.25368468773E+03  0.75256502829E+03  0.00000000000E+00 0. -1.
         -4    1    3    3    0  502  0.78034940170E+02 -0.66911325558E+01 -0.60066572415E+02  0.98702665941E+02  0.00000000000E+00 0.  1.
         11    1    5    5    0    0 -0.14974334099E+02 -0.10312510843E+03  0.32062105195E+03  0.33713035702E+03  0.00000000000E+00 0.  1.
        -11    1    5    5    0    0  0.62098823965E+01  0.13718550155E+02  0.81290973865E+02  0.82673960167E+02  0.00000000000E+00 0. -1.
          4    1    6    6  503    0 -0.21329947067E+03 -0.37947568197E+02 -0.75713861476E+02  0.22949786696E+03  0.00000000000E+00 0. -1.
         -4    1    6    6    0  503 -0.55665726474E+03  0.28988206161E+02 -0.12039276196E+03  0.57026488900E+03  0.00000000000E+00 0.  1.
<mgrwt>
<rscale>  0 0.20680194E+04</rscale>
<asrwt>0</asrwt>
<pdfrwt beam="1">  1        1 0.16759851E+00 0.20680194E+04</pdfrwt>
<pdfrwt beam="2">  1       -1 0.15099145E+00 0.20680194E+04</pdfrwt>
<totfact> 0.40825345E+00</totfact>
</mgrwt>
</event>
<event>
12    2  0.3555611E-008  0.2225117E+04  0.7818608E-02  0.8508046E-01
         -1   -1    0    0    0  501 -0.00000000000E+00  0.00000000000E+00  0.10677733060E+04  0.10677733060E+04  0.00000000000E+00 0.  1.
          1   -1    0    0  501    0  0.00000000000E+00 -0.00000000000E+00 -0.11592224192E+04  0.11592224192E+04  0.00000000000E+00 0. -1.
         23    2    1    2    0    0 -0.16596490924E+03 -0.90621255337E+03  0.50129111937E+02  0.92719089752E+03  0.91676003404E+02 0.  0.
        254    2    1    2    0    0  0.16596490924E+03  0.90621255337E+03 -0.14157822516E+03  0.12998048276E+04  0.90591536749E+03 0.  0.
         23    2    4    4    0    0 -0.35607152068E+03  0.28603831743E+03  0.26714216263E+02  0.46672891245E+03  0.92289660782E+02 0.  0.
         23    2    4    4    0    0  0.52203642992E+03  0.62017423594E+03 -0.16829244142E+03  0.83307591516E+03  0.92493337531E+02 0.  0.
          3    1    3    3  502    0 -0.46912574580E+02 -0.31924008542E+03  0.59928413527E+02  0.32818658799E+03  0.00000000000E+00 0.  1.
         -3    1    3    3    0  502 -0.11905233466E+03 -0.58697246795E+03 -0.97993015899E+01  0.59900430953E+03  0.00000000000E+00 0. -1.
         11    1    5    5    0    0 -0.23576473199E+03  0.22897392520E+03 -0.93127656747E+01  0.32878685326E+03  0.00000000000E+00 0.  1.
        -11    1    5    5    0    0 -0.12030678869E+03  0.57064392226E+02  0.36026981938E+02  0.13794205919E+03  0.00000000000E+00 0. -1.
          2    1    6    6  503    0  0.19286055412E+03  0.23107308898E+03 -0.10839434849E+03  0.31990514309E+03  0.00000000000E+00 0. -1.
         -2    1    6    6    0  503  0.32917587580E+03  0.38910114696E+03 -0.59898092930E+02  0.51317077207E+03  0.00000000000E+00 0.  1.
<mgrwt>
<rscale>  0 0.22251173E+04</rscale>
<asrwt>0</asrwt>
<pdfrwt beam="1">  1        1 0.17834191E+00 0.22251173E+04</pdfrwt>
<pdfrwt beam="2">  1       -1 0.16427282E+00 0.22251173E+04</pdfrwt>
<totfact> 0.28269606E+00</totfact>
</mgrwt>
</event>
<event>
12    2  0.3555611E-008  0.1531622E+04  0.7818608E-02  0.8863693E-01
         -1   -1    0    0    0  501 -0.00000000000E+00  0.00000000000E+00  0.37584931849E+03  0.37584931849E+03  0.00000000000E+00 0.  1.
          1   -1    0    0  501    0  0.00000000000E+00 -0.00000000000E+00 -0.15603763757E+04  0.15603763757E+04  0.00000000000E+00 0. -1.
         23    2    1    2    0    0 -0.37730361438E+03 -0.23389163042E+03 -0.10661456314E+03  0.46518248396E+03  0.89245538315E+02 0.  0.
        254    2    1    2    0    0  0.37730361438E+03  0.23389163042E+03 -0.10779124940E+04  0.14710432102E+04  0.89722319925E+03 0.  0.
         23    2    4    4    0    0  0.48195333539E+02 -0.24011695021E+03 -0.76509679192E+03  0.80853230363E+03  0.91501065850E+02 0.  0.
         23    2    4    4    0    0  0.32910828084E+03  0.47400858062E+03 -0.31281570213E+03  0.66251090659E+03  0.89836756508E+02 0.  0.
          3    1    3    3  502    0 -0.74808030185E+02 -0.48381636194E+02 -0.59706512744E+02  0.10724687298E+03  0.00000000000E+00 0. -1.
         -3    1    3    3    0  502 -0.30249558420E+03 -0.18550999422E+03 -0.46908050394E+02  0.35793561098E+03  0.00000000000E+00 0.  1.
         11    1    5    5    0    0  0.40620820512E+02 -0.82186382797E+02 -0.40509769299E+03  0.41534177907E+03  0.00000000000E+00 0. -1.
        -11    1    5    5    0    0  0.75745130267E+01 -0.15793056741E+03 -0.35999909892E+03  0.39319052455E+03  0.00000000000E+00 0.  1.
          1    1    6    6  503    0  0.19477746829E+03  0.26638292316E+03 -0.12869854755E+03  0.35420536423E+03  0.00000000000E+00 0. -1.
         -1    1    6    6    0  503  0.13433081255E+03  0.20762565746E+03 -0.18411715458E+03  0.30830554236E+03  0.00000000000E+00 0.  1.
<mgrwt>
<rscale>  0 0.15316219E+04</rscale>
<asrwt>0</asrwt>
<pdfrwt beam="1">  1        1 0.24005790E+00 0.15316219E+04</pdfrwt>
<pdfrwt beam="2">  1       -1 0.57822973E-01 0.15316219E+04</pdfrwt>
<totfact> 0.17369228E+01</totfact>
</mgrwt>
</event>
<event>
12    2  0.3555611E-008  0.2289176E+04  0.7818608E-02  0.8482201E-01
          2   -1    0    0  501    0  0.00000000000E+00  0.00000000000E+00  0.33347108761E+04  0.33347108761E+04  0.00000000000E+00 0.  1.
         -2   -1    0    0    0  501 -0.00000000000E+00 -0.00000000000E+00 -0.39286223003E+03  0.39286223003E+03  0.00000000000E+00 0. -1.
         23    2    1    2    0    0  0.75685205426E+03 -0.41337032834E+03  0.53552587851E+03  0.10192643658E+04  0.91715976811E+02 0.  0.
        254    2    1    2    0    0 -0.75685205426E+03  0.41337032834E+03  0.24063227676E+04  0.27083087404E+04  0.89490050342E+03 0.  0.
         23    2    4    4    0    0 -0.58789522559E+03 -0.86777767565E+01  0.20175401117E+04  0.21034256109E+04  0.90747439942E+02 0.  0.
         23    2    4    4    0    0 -0.16895682867E+03  0.42204810509E+03  0.38878265587E+03  0.60488312954E+03  0.89781033262E+02 0.  0.
          2    1    3    3  502    0  0.50542165556E+03 -0.26161274819E+03  0.40125447634E+03  0.69634577237E+03  0.00000000000E+00 0. -1.
         -2    1    3    3    0  502  0.25143039870E+03 -0.15175758015E+03  0.13427140217E+03  0.32291859340E+03  0.00000000000E+00 0.  1.
         11    1    5    5    0    0 -0.38388181462E-01  0.55688780156E+01  0.37595429800E+02  0.38005660340E+02  0.00000000000E+00 0. -1.
        -11    1    5    5    0    0 -0.58785683741E+03 -0.14246654772E+02  0.19799446819E+04  0.20654199505E+04  0.00000000000E+00 0.  1.
          3    1    6    6  503    0 -0.49749732158E+02  0.24378232289E+03  0.20154440564E+03  0.32019525956E+03  0.00000000000E+00 0. -1.
         -3    1    6    6    0  503 -0.11920709651E+03  0.17826578220E+03  0.18723825023E+03  0.28468786998E+03  0.00000000000E+00 0.  1.
<mgrwt>
<rscale>  0 0.22891762E+04</rscale>
<asrwt>0</asrwt>
<pdfrwt beam="1">  1        2 0.51303243E+00 0.22891762E+04</pdfrwt>
<pdfrwt beam="2">  1       -2 0.60440345E-01 0.22891762E+04</pdfrwt>
<totfact> 0.24479279E+00</totfact>
</mgrwt>
</event>
<event>
12    2  0.3555611E-008  0.1345614E+04  0.7818608E-02  0.8994155E-01
         -2   -1    0    0    0  501 -0.00000000000E+00  0.00000000000E+00  0.33261820429E+03  0.33261820429E+03  0.00000000000E+00 0.  1.
          2   -1    0    0  501    0  0.00000000000E+00 -0.00000000000E+00 -0.13609280363E+04  0.13609280363E+04  0.00000000000E+00 0. -1.
         23    2    1    2    0    0 -0.22175265828E+03 -0.11514451853E+03  0.57185308747E+02  0.27400004882E+03  0.96816143370E+02 0.  0.
        254    2    1    2    0    0  0.22175265828E+03  0.11514451853E+03 -0.10854951408E+04  0.14195461918E+04  0.87998817513E+03 0.  0.
         23    2    4    4    0    0  0.50629641269E+03  0.17962262411E+03 -0.92737503561E+03  0.10753983562E+04  0.88638723631E+02 0.  0.
         23    2    4    4    0    0 -0.28454375441E+03 -0.64478105578E+02 -0.15812010520E+03  0.34414783558E+03  0.91176700953E+02 0.  0.
          1    1    3    3  502    0  0.15363810882E+01  0.23306897443E+01 -0.12048143091E+02  0.12367309063E+02  0.00000000000E+00 0. -1.
         -1    1    3    3    0  502 -0.22328903937E+03 -0.11747520827E+03  0.69233451838E+02  0.26163273976E+03  0.00000000000E+00 0.  1.
         11    1    5    5    0    0  0.40914374586E+03  0.17367197192E+03 -0.79881702783E+03  0.91414944214E+03  0.00000000000E+00 0. -1.
        -11    1    5    5    0    0  0.97152666825E+02  0.59506521844E+01 -0.12855800777E+03  0.16124891409E+03  0.00000000000E+00 0.  1.
          2    1    6    6  503    0 -0.23337822698E+03 -0.80523162167E+02 -0.10378031079E+03  0.26780539461E+03  0.00000000000E+00 0. -1.
         -2    1    6    6    0  503 -0.51165527430E+02  0.16045056589E+02 -0.54339794401E+02  0.76342440973E+02  0.00000000000E+00 0.  1.
<mgrwt>
<rscale>  0 0.13456143E+04</rscale>
<asrwt>0</asrwt>
<pdfrwt beam="1">  1        2 0.20937355E+00 0.13456143E+04</pdfrwt>
<pdfrwt beam="2">  1       -2 0.51172031E-01 0.13456143E+04</pdfrwt>
<totfact> 0.53722039E+01</totfact>
</mgrwt>
</event>
<event>
12    2  0.3555611E-008  0.1639049E+04  0.7818608E-02  0.8796911E-01
          2   -1    0    0  501    0  0.00000000000E+00  0.00000000000E+00  0.11099950303E+04  0.11099950303E+04  0.00000000000E+00 0.  1.
         -2   -1    0    0    0  501 -0.00000000000E+00 -0.00000000000E+00 -0.60506616560E+03  0.60506616560E+03  0.00000000000E+00 0. -1.
         23    2    1    2    0    0  0.66871620630E+02 -0.33336855288E+03  0.66206491039E+03  0.74996970755E+03  0.92294154682E+02 0.  0.
        254    2    1    2    0    0 -0.66871620630E+02  0.33336855288E+03 -0.15713604570E+03  0.96509148833E+03  0.88943995767E+03 0.  0.
         23    2    4    4    0    0 -0.26703939454E+03  0.27822552436E+03 -0.44647179870E+03  0.59713993429E+03  0.92301427131E+02 0.  0.
         23    2    4    4    0    0  0.20016777391E+03  0.55143028523E+02  0.28933575300E+03  0.36795155404E+03  0.92548780924E+02 0.  0.
          2    1    3    3  502    0  0.84456750831E+02 -0.20010021304E+03  0.43155119370E+03  0.48312469489E+03  0.00000000000E+00 0. -1.
         -2    1    3    3    0  502 -0.17585130201E+02 -0.13326833984E+03  0.23051371668E+03  0.26684501267E+03  0.00000000000E+00 0.  1.
         11    1    5    5    0    0 -0.24882710598E+03  0.23545131120E+03 -0.34838932018E+03  0.48859734653E+03  0.00000000000E+00 0. -1.
        -11    1    5    5    0    0 -0.18212288552E+02  0.42774213158E+02 -0.98082478515E+02  0.10854258776E+03  0.00000000000E+00 0.  1.
          4    1    6    6  503    0  0.69056464468E+01  0.23018037050E+02  0.84145985072E+01  0.25462196498E+02  0.00000000000E+00 0.  1.
         -4    1    6    6    0  503  0.19326212746E+03  0.32124991473E+02  0.28092115449E+03  0.34248935754E+03  0.00000000000E+00 0. -1.
<mgrwt>
<rscale>  0 0.16390490E+04</rscale>
<asrwt>0</asrwt>
<pdfrwt beam="1">  1        2 0.17076847E+00 0.16390490E+04</pdfrwt>
<pdfrwt beam="2">  1       -2 0.93087103E-01 0.16390490E+04</pdfrwt>
<totfact> 0.20073285E+01</totfact>
</mgrwt>
</event>
<event>
12    2  0.3555611E-008  0.2467563E+04  0.7818608E-02  0.8414633E-01
          1   -1    0    0  501    0  0.00000000000E+00  0.00000000000E+00  0.88935586426E+03  0.88935586426E+03  0.00000000000E+00 0. -1.
         -1   -1    0    0    0  501 -0.00000000000E+00 -0.00000000000E+00 -0.17115943466E+04  0.17115943466E+04  0.00000000000E+00 0.  1.
         23    2    1    2    0    0 -0.46112595517E+02  0.51726159581E+03  0.62575851604E+03  0.81945361870E+03  0.10121552672E+03 0.  0.
        254    2    1    2    0    0  0.46112595517E+02 -0.51726159581E+03 -0.14479969984E+04  0.17814965922E+04  0.89852594320E+03 0.  0.
         23    2    4    4    0    0 -0.11994161893E+03  0.19612974038E+03 -0.15095681798E+03  0.28894462859E+03  0.88589900576E+02 0.  0.
         23    2    4    4    0    0  0.16605421445E+03 -0.71339133619E+03 -0.12970401804E+04  0.14925519636E+04  0.94323558470E+02 0.  0.
          1    1    3    3  502    0 -0.44673576117E+02  0.51994515958E+03  0.60718632987E+03  0.80063345956E+03  0.00000000000E+00 0. -1.
         -1    1    3    3    0  502 -0.14390194004E+01 -0.26835637746E+01  0.18572186166E+02  0.18820159148E+02  0.00000000000E+00 0.  1.
         11    1    5    5    0    0 -0.76285617468E+02  0.52598898154E+02 -0.33938781527E+02  0.98681205967E+02  0.00000000000E+00 0. -1.
        -11    1    5    5    0    0 -0.43656001464E+02  0.14353084223E+03 -0.11701803645E+03  0.19026342262E+03  0.00000000000E+00 0.  1.
          4    1    6    6  503    0  0.27429007247E+01 -0.17790234934E+03 -0.28472591860E+03  0.33574635982E+03  0.00000000000E+00 0. -1.
         -4    1    6    6    0  503  0.16331131373E+03 -0.53548898685E+03 -0.10123142618E+04  0.11568056038E+04  0.00000000000E+00 0.  1.
<mgrwt>
<rscale>  0 0.24675627E+04</rscale>
<asrwt>0</asrwt>
<pdfrwt beam="1">  1        1 0.13682398E+00 0.24675627E+04</pdfrwt>
<pdfrwt beam="2">  1       -1 0.26332221E+00 0.24675627E+04</pdfrwt>
<totfact> 0.94439706E-01</totfact>
</mgrwt>
</event>
<event>
12    2  0.3555611E-008  0.3527148E+04  0.7818608E-02  0.8107386E-01
          2   -1    0    0  501    0  0.00000000000E+00  0.00000000000E+00  0.34293834740E+04  0.34293834740E+04  0.00000000000E+00 0. -1.
         -2   -1    0    0    0  501 -0.00000000000E+00 -0.00000000000E+00 -0.90692468759E+03  0.90692468759E+03  0.00000000000E+00 0.  1.
         23    2    1    2    0    0  0.40448295427E+03 -0.20023646711E+03  0.31361632410E+04  0.31698098095E+04  0.92050264704E+02 0.  0.
        254    2    1    2    0    0 -0.40448295427E+03  0.20023646711E+03 -0.61370445461E+03  0.11664983521E+04  0.88339353899E+03 0.  0.
         23    2    4    4    0    0 -0.20380749648E+03  0.29186531216E+03 -0.78898954003E+03  0.87061236986E+03  0.93480202306E+02 0.  0.
         23    2    4    4    0    0 -0.20067545779E+03 -0.91628845050E+02  0.17528508542E+03  0.29588598221E+03  0.90317045411E+02 0.  0.
          2    1    3    3  502    0  0.28518118684E+03 -0.17658985844E+03  0.24647917099E+04  0.24875108966E+04  0.00000000000E+00 0.  1.
         -2    1    3    3    0  502  0.11930176743E+03 -0.23646608668E+02  0.67137153112E+03  0.68229891295E+03  0.00000000000E+00 0. -1.
         11    1    5    5    0    0 -0.81631543231E+02  0.77562426048E+02 -0.34214176883E+03  0.36019526477E+03  0.00000000000E+00 0. -1.
        -11    1    5    5    0    0 -0.12217595324E+03  0.21430288611E+03 -0.44684777120E+03  0.51041710509E+03  0.00000000000E+00 0.  1.
          1    1    6    6  503    0 -0.11663784523E+03 -0.98472177863E+01  0.11476024572E+03  0.16392458215E+03  0.00000000000E+00 0. -1.
         -1    1    6    6    0  503 -0.84037612567E+02 -0.81781627264E+02  0.60524839706E+02  0.13196140006E+03  0.00000000000E+00 0.  1.
<mgrwt>
<rscale>  0 0.35271476E+04</rscale>
<asrwt>0</asrwt>
<pdfrwt beam="1">  1        2 0.52759745E+00 0.35271476E+04</pdfrwt>
<pdfrwt beam="2">  1       -2 0.13952688E+00 0.35271476E+04</pdfrwt>
<totfact> 0.26998850E-01</totfact>
</mgrwt>
</event>
<event>
12    2  0.3555611E-008  0.3359343E+04  0.7818608E-02  0.8147958E-01
          1   -1    0    0  501    0  0.00000000000E+00  0.00000000000E+00  0.16885200986E+04  0.16885200986E+04  0.00000000000E+00 0. -1.
         -1   -1    0    0    0  501 -0.00000000000E+00 -0.00000000000E+00 -0.16708693236E+04  0.16708693236E+04  0.00000000000E+00 0.  1.
         23    2    1    2    0    0 -0.10703092054E+04  0.78035966024E+03  0.80986339649E+03  0.15550779767E+04  0.88689335371E+02 0.  0.
        254    2    1    2    0    0  0.10703092054E+04 -0.78035966024E+03 -0.79221262149E+03  0.18043114455E+04  0.93456725841E+03 0.  0.
         23    2    4    4    0    0  0.86889939363E+03 -0.51733161757E+03 -0.98285694085E+03  0.14130704582E+04  0.90234111262E+02 0.  0.
         23    2    4    4    0    0  0.20140981173E+03 -0.26302804267E+03  0.19064431937E+03  0.39124098736E+03  0.83514011958E+02 0.  0.
          1    1    3    3  502    0 -0.95849255198E+03  0.67013147023E+03  0.73317944521E+03  0.13803391824E+04  0.00000000000E+00 0. -1.
         -1    1    3    3    0  502 -0.11181665338E+03  0.11022819001E+03  0.76683951276E+02  0.17473879429E+03  0.00000000000E+00 0.  1.
         11    1    5    5    0    0  0.51360028179E+02 -0.10355709620E+02 -0.38363500170E+02  0.64937287913E+02  0.00000000000E+00 0. -1.
        -11    1    5    5    0    0  0.81753936545E+03 -0.50697590795E+03 -0.94449344068E+03  0.13481331703E+04  0.00000000000E+00 0.  1.
          1    1    6    6  503    0  0.45826843306E+02 -0.52042823762E+02  0.40395479146E+01  0.69461305918E+02  0.00000000000E+00 0. -1.
         -1    1    6    6    0  503  0.15558296842E+03 -0.21098521891E+03  0.18660477145E+03  0.32177968144E+03  0.00000000000E+00 0.  1.
<mgrwt>
<rscale>  0 0.33593431E+04</rscale>
<asrwt>0</asrwt>
<pdfrwt beam="1">  1        1 0.25977232E+00 0.33593431E+04</pdfrwt>
<pdfrwt beam="2">  1       -1 0.25705682E+00 0.33593431E+04</pdfrwt>
<totfact> 0.25120753E-01</totfact>
</mgrwt>
</event>
<event>
12    2  0.3555611E-008  0.3119309E+04  0.7818608E-02  0.8210459E-01
          2   -1    0    0  501    0  0.00000000000E+00  0.00000000000E+00  0.26554654445E+04  0.26554654445E+04  0.00000000000E+00 0. -1.
         -2   -1    0    0    0  501 -0.00000000000E+00 -0.00000000000E+00 -0.91604386879E+03  0.91604386879E+03  0.00000000000E+00 0.  1.
         23    2    1    2    0    0 -0.31960506287E+03 -0.45731224734E+03  0.23144023665E+04  0.23822781688E+04  0.86654900390E+02 0.  0.
        254    2    1    2    0    0  0.31960506287E+03  0.45731224734E+03 -0.57498079075E+03  0.11892311445E+04  0.87885488996E+03 0.  0.
         23    2    4    4    0    0 -0.20104991850E+03  0.36910175773E+03 -0.48101415448E+03  0.64500647811E+03  0.89451454484E+02 0.  0.
         23    2    4    4    0    0  0.52065498137E+03  0.88210489611E+02 -0.93966636267E+02  0.54422466641E+03  0.92130660988E+02 0.  0.
          1    1    3    3  502    0 -0.32076618361E+03 -0.43944325587E+03  0.22723215672E+04  0.23365458747E+04  0.00000000000E+00 0. -1.
         -1    1    3    3    0  502  0.11611207418E+01 -0.17868991474E+02  0.42080799265E+02  0.45732294108E+02  0.00000000000E+00 0.  1.
         11    1    5    5    0    0 -0.16491222051E+03  0.24561505808E+03 -0.37906622788E+03  0.48084717151E+03  0.00000000000E+00 0.  1.
        -11    1    5    5    0    0 -0.36137697994E+02  0.12348669965E+03 -0.10194792660E+03  0.16415930660E+03  0.00000000000E+00 0. -1.
          4    1    6    6  503    0  0.49892699645E+03  0.63806970510E+02 -0.83222667760E+02  0.50982888277E+03  0.00000000000E+00 0.  1.
         -4    1    6    6    0  503  0.21727984920E+02  0.24403519101E+02 -0.10743968506E+02  0.34395783644E+02  0.00000000000E+00 0. -1.
<mgrwt>
<rscale>  0 0.31193094E+04</rscale>
<asrwt>0</asrwt>
<pdfrwt beam="1">  1        2 0.40853314E+00 0.31193094E+04</pdfrwt>
<pdfrwt beam="2">  1       -2 0.14092983E+00 0.31193094E+04</pdfrwt>
<totfact> 0.84430021E-01</totfact>
</mgrwt>
</event>
<event>
12    2  0.3555611E-008  0.1410153E+04  0.7818608E-02  0.8946502E-01
         -2   -1    0    0    0  501 -0.00000000000E+00  0.00000000000E+00  0.97285452180E+03  0.97285452180E+03  0.00000000000E+00 0.  1.
          2   -1    0    0  501    0  0.00000000000E+00 -0.00000000000E+00 -0.51100462270E+03  0.51100462270E+03  0.00000000000E+00 0. -1.
         23    2    1    2    0    0 -0.40669957141E+02  0.15544392384E+03 -0.21941654996E+03  0.28727702603E+03  0.92561376485E+02 0.  0.
        254    2    1    2    0    0  0.40669957141E+02 -0.15544392384E+03  0.68126644906E+03  0.11965821185E+04  0.97049880615E+03 0.  0.
         23    2    4    4    0    0 -0.23438822491E+03  0.85329069762E+02  0.76590371056E+03  0.81045312525E+03  0.89481195035E+02 0.  0.
         23    2    4    4    0    0  0.27505818205E+03 -0.24077299360E+03 -0.84637261493E+02  0.38612899321E+03  0.91123517312E+02 0.  0.
          2    1    3    3  502    0  0.90765947018E+01  0.36631477416E+02 -0.11632968876E+03  0.12229818558E+03  0.00000000000E+00 0. -1.
         -2    1    3    3    0  502 -0.49746551843E+02  0.11881244642E+03 -0.10308686121E+03  0.16497884046E+03  0.00000000000E+00 0.  1.
         11    1    5    5    0    0 -0.14540000683E+03  0.96727125362E+01  0.47930549680E+03  0.50096754647E+03  0.00000000000E+00 0. -1.
        -11    1    5    5    0    0 -0.88988218075E+02  0.75656357226E+02  0.28659821375E+03  0.30948557878E+03  0.00000000000E+00 0.  1.
          4    1    6    6  503    0  0.24723769664E+03 -0.17438608235E+03 -0.51562244721E+02  0.30691309753E+03  0.00000000000E+00 0. -1.
         -4    1    6    6    0  503  0.27820485408E+02 -0.66386911249E+02 -0.33075016772E+02  0.79215895678E+02  0.00000000000E+00 0.  1.
<mgrwt>
<rscale>  0 0.14101534E+04</rscale>
<asrwt>0</asrwt>
<pdfrwt beam="1">  1        2 0.78616096E-01 0.14101534E+04</pdfrwt>
<pdfrwt beam="2">  1       -2 0.14966993E+00 0.14101534E+04</pdfrwt>
<totfact> 0.17581723E+01</totfact>
</mgrwt>
</event>
<event>
12    2  0.3555611E-008  0.1345238E+04  0.7818608E-02  0.8994441E-01
         -2   -1    0    0    0  501 -0.00000000000E+00  0.00000000000E+00  0.16301508959E+03  0.16301508959E+03  0.00000000000E+00 0.  1.
          2   -1    0    0  501    0  0.00000000000E+00 -0.00000000000E+00 -0.27753014859E+04  0.27753014859E+04  0.00000000000E+00 0. -1.
         23    2    1    2    0    0  0.97724894280E+02 -0.30928416568E+03 -0.35989279694E+03  0.49304943758E+03  0.91477169330E+02 0.  0.
        254    2    1    2    0    0 -0.97724894280E+02  0.30928416568E+03 -0.22523935994E+04  0.24452671379E+04  0.89490088790E+03 0.  0.
         23    2    4    4    0    0 -0.12589175978E+03 -0.20711268935E+03 -0.20063533503E+03  0.32747618364E+03  0.90783874794E+02 0.  0.
         23    2    4    4    0    0  0.28166865499E+02  0.51639685502E+03 -0.20517582644E+04  0.21177909543E+04  0.88698740118E+02 0.  0.
          4    1    3    3  502    0  0.12529772208E+02 -0.33939446616E+02 -0.60596003580E+01  0.36682420649E+02  0.00000000000E+00 0.  1.
         -4    1    3    3    0  502  0.85195122072E+02 -0.27534471906E+03 -0.35383319658E+03  0.45636701693E+03  0.00000000000E+00 0. -1.
         11    1    5    5    0    0 -0.11451100033E+03 -0.18459537956E+03 -0.20844952695E+03  0.30106382818E+03  0.00000000000E+00 0. -1.
        -11    1    5    5    0    0 -0.11380759452E+02 -0.22517309781E+02  0.78141919254E+01  0.26412355460E+02  0.00000000000E+00 0.  1.
          4    1    6    6  503    0  0.27398065059E+02  0.51832979861E+03 -0.20085802511E+04  0.20745628598E+04  0.00000000000E+00 0. -1.
         -4    1    6    6    0  503  0.76880043951E+00 -0.19329435852E+01 -0.43178013281E+02  0.43228094521E+02  0.00000000000E+00 0.  1.
<mgrwt>
<rscale>  0 0.13452376E+04</rscale>
<asrwt>0</asrwt>
<pdfrwt beam="1">  1        2 0.42696944E+00 0.13452376E+04</pdfrwt>
<pdfrwt beam="2">  1       -2 0.25079246E-01 0.13452376E+04</pdfrwt>
<totfact> 0.33599195E+01</totfact>
</mgrwt>
</event>
<event>
12    2  0.3555611E-008  0.1909653E+04  0.7818608E-02  0.8650066E-01
          2   -1    0    0  501    0  0.00000000000E+00  0.00000000000E+00  0.77752187873E+03  0.77752187873E+03  0.00000000000E+00 0.  1.
         -2   -1    0    0    0  501 -0.00000000000E+00 -0.00000000000E+00 -0.11725633484E+04  0.11725633484E+04  0.00000000000E+00 0. -1.
         23    2    1    2    0    0 -0.12464098163E+02 -0.32141136045E+03  0.52262116189E+03  0.62059875377E+03  0.92462521903E+02 0.  0.
        254    2    1    2    0    0  0.12464098163E+02  0.32141136045E+03 -0.91766263159E+03  0.13294864734E+04  0.90662503889E+03 0.  0.
         23    2    4    4    0    0 -0.22839675371E+03  0.11178428193E+03  0.77066905177E+02  0.28092537766E+03  0.91208317304E+02 0.  0.
         23    2    4    4    0    0  0.24086085187E+03  0.20962707852E+03 -0.99472953677E+03  0.10485610957E+04  0.89644063669E+02 0.  0.
          1    1    3    3  502    0 -0.13046748728E+02 -0.98959357947E+01  0.62273209284E+01  0.17519324289E+02  0.00000000000E+00 0. -1.
         -1    1    3    3    0  502  0.58265056438E+00 -0.31151542465E+03  0.51639384096E+03  0.60307942948E+03  0.00000000000E+00 0.  1.
         11    1    5    5    0    0 -0.23190820338E+03  0.97904228500E+02  0.83519783955E+02  0.26522105321E+03  0.00000000000E+00 0.  1.
        -11    1    5    5    0    0  0.35114496659E+01  0.13880053426E+02 -0.64528787780E+01  0.15704324449E+02  0.00000000000E+00 0. -1.
          3    1    6    6  503    0  0.17247503930E+02  0.58872845761E+02 -0.16056673828E+03  0.17188707281E+03  0.00000000000E+00 0. -1.
         -3    1    6    6    0  503  0.22361334794E+03  0.15075423276E+03 -0.83416279849E+03  0.87667402292E+03  0.00000000000E+00 0.  1.
<mgrwt>
<rscale>  0 0.19096530E+04</rscale>
<asrwt>0</asrwt>
<pdfrwt beam="1">  1        2 0.11961875E+00 0.19096530E+04</pdfrwt>
<pdfrwt beam="2">  1       -2 0.18039436E+00 0.19096530E+04</pdfrwt>
<totfact> 0.60289754E+00</totfact>
</mgrwt>
</event>
<event>
12    2  0.3555611E-008  0.2754343E+04  0.7818608E-02  0.8317585E-01
          2   -1    0    0  501    0  0.00000000000E+00  0.00000000000E+00  0.26700224976E+04  0.26700224976E+04  0.00000000000E+00 0. -1.
         -2   -1    0    0    0  501 -0.00000000000E+00 -0.00000000000E+00 -0.71033161045E+03  0.71033161045E+03  0.00000000000E+00 0.  1.
         23    2    1    2    0    0 -0.48809071118E+03  0.45147501564E+03 -0.41332904404E+03  0.78881434175E+03  0.96565703095E+02 0.  0.
        254    2    1    2    0    0  0.48809071118E+03 -0.45147501564E+03  0.23730199312E+04  0.25915397663E+04  0.80174343424E+03 0.  0.
         23    2    4    4    0    0  0.26569532503E+03 -0.64139634625E+03  0.13089120464E+04  0.14842666120E+04  0.88393165257E+02 0.  0.
         23    2    4    4    0    0  0.22239538615E+03  0.18992133062E+03  0.10641078848E+04  0.11072731542E+04  0.90545171363E+02 0.  0.
          3    1    3    3  502    0 -0.13355428767E+03  0.18109420224E+03 -0.11885567835E+03  0.25447697365E+03  0.00000000000E+00 0. -1.
         -3    1    3    3    0  502 -0.35453642351E+03  0.27038081340E+03 -0.29447336569E+03  0.53433736810E+03  0.00000000000E+00 0.  1.
         11    1    5    5    0    0  0.23765333876E+03 -0.47905181533E+03  0.98052695556E+03  0.11168719093E+04  0.00000000000E+00 0.  1.
        -11    1    5    5    0    0  0.28041986261E+02 -0.16234453092E+03  0.32838509084E+03  0.36739470274E+03  0.00000000000E+00 0. -1.
          1    1    6    6  503    0  0.17291995600E+03  0.91348407186E+02  0.70335366614E+03  0.73003576786E+03  0.00000000000E+00 0. -1.
         -1    1    6    6    0  503  0.49475430151E+02  0.98572923429E+02  0.36075421862E+03  0.37723738636E+03  0.00000000000E+00 0.  1.
<mgrwt>
<rscale>  0 0.27543430E+04</rscale>
<asrwt>0</asrwt>
<pdfrwt beam="1">  1        2 0.41077269E+00 0.27543430E+04</pdfrwt>
<pdfrwt beam="2">  1       -2 0.10928179E+00 0.27543430E+04</pdfrwt>
<totfact> 0.16126139E+00</totfact>
</mgrwt>
</event>
<event>
12    2  0.3555611E-008  0.1912559E+04  0.7818608E-02  0.8648630E-01
          1   -1    0    0  501    0  0.00000000000E+00  0.00000000000E+00  0.91312605821E+03  0.91312605821E+03  0.00000000000E+00 0. -1.
         -1   -1    0    0    0  501 -0.00000000000E+00 -0.00000000000E+00 -0.10014718714E+04  0.10014718714E+04  0.00000000000E+00 0.  1.
         23    2    1    2    0    0 -0.44929444507E+03 -0.19912927851E+03  0.53222980642E+03  0.72985943097E+03  0.88928365526E+02 0.  0.
        254    2    1    2    0    0  0.44929444507E+03  0.19912927851E+03 -0.62057561961E+03  0.11847384987E+04  0.88146085710E+03 0.  0.
         23    2    4    4    0    0  0.24406809518E+03 -0.51166446294E+02  0.17888356934E+03  0.31738793153E+03  0.80922971947E+02 0.  0.
         23    2    4    4    0    0  0.20522634989E+03  0.25029572480E+03 -0.79945918896E+03  0.86735056712E+03  0.91630818651E+02 0.  0.
          4    1    3    3  502    0 -0.41570460884E+03 -0.17031763375E+03  0.51215781539E+03  0.68126650148E+03  0.00000000000E+00 0. -1.
         -4    1    3    3    0  502 -0.33589836231E+02 -0.28811644766E+02  0.20071991036E+02  0.48592929489E+02  0.00000000000E+00 0.  1.
         11    1    5    5    0    0  0.22732932173E+03 -0.65810267666E+02  0.17606028628E+03  0.29496921238E+03  0.00000000000E+00 0. -1.
        -11    1    5    5    0    0  0.16738773457E+02  0.14643821372E+02  0.28232830638E+01  0.22418719153E+02  0.00000000000E+00 0.  1.
          4    1    6    6  503    0  0.19188861048E+03  0.21635011738E+03 -0.76218021301E+03  0.81519769947E+03  0.00000000000E+00 0. -1.
         -4    1    6    6    0  503  0.13337739406E+02  0.33945607424E+02 -0.37278975951E+02  0.52152867647E+02  0.00000000000E+00 0.  1.
<mgrwt>
<rscale>  0 0.19125586E+04</rscale>
<asrwt>0</asrwt>
<pdfrwt beam="1">  1        1 0.14048093E+00 0.19125586E+04</pdfrwt>
<pdfrwt beam="2">  1       -1 0.15407260E+00 0.19125586E+04</pdfrwt>
<totfact> 0.53827546E+00</totfact>
</mgrwt>
</event>
<event>
12    2  0.3555611E-008  0.1395816E+04  0.7818608E-02  0.8956853E-01
          2   -1    0    0  501    0  0.00000000000E+00  0.00000000000E+00  0.20249373668E+04  0.20249373668E+04  0.00000000000E+00 0. -1.
         -2   -1    0    0    0  501 -0.00000000000E+00 -0.00000000000E+00 -0.24053846018E+03  0.24053846018E+03  0.00000000000E+00 0.  1.
         23    2    1    2    0    0  0.20949444953E+03  0.34383051962E+03  0.53175151994E+03  0.67340675991E+03  0.92788117370E+02 0.  0.
        254    2    1    2    0    0 -0.20949444953E+03 -0.34383051962E+03  0.12526473866E+04  0.15920690670E+04  0.89635433191E+03 0.  0.
         23    2    4    4    0    0 -0.28971122402E+03 -0.13329403312E+03  0.17413058824E+02  0.33304569164E+03  0.94426296701E+02 0.  0.
         23    2    4    4    0    0  0.80216774492E+02 -0.21053648650E+03  0.12352343278E+04  0.12590233754E+04  0.92604924902E+02 0.  0.
          4    1    3    3  502    0  0.43222059149E+02  0.93873888496E+02  0.20567194530E+03  0.23017689376E+03  0.00000000000E+00 0. -1.
         -4    1    3    3    0  502  0.16627239038E+03  0.24995663113E+03  0.32607957464E+03  0.44322986614E+03  0.00000000000E+00 0.  1.
         11    1    5    5    0    0 -0.25380338527E+02 -0.34950080063E+02 -0.21658945571E+02  0.48319557152E+02  0.00000000000E+00 0. -1.
        -11    1    5    5    0    0 -0.26433088550E+03 -0.98343953059E+02  0.39072004395E+02  0.28472613448E+03  0.00000000000E+00 0.  1.
          4    1    6    6  503    0  0.12043503272E+02  0.60869964791E+00  0.19583716414E+03  0.19620808175E+03  0.00000000000E+00 0. -1.
         -4    1    6    6    0  503  0.68173271220E+02 -0.21114518615E+03  0.10393971637E+04  0.10628152936E+04  0.00000000000E+00 0.  1.
<mgrwt>
<rscale>  0 0.13958156E+04</rscale>
<asrwt>0</asrwt>
<pdfrwt beam="1">  1        2 0.31152881E+00 0.13958156E+04</pdfrwt>
<pdfrwt beam="2">  1       -2 0.37005918E-01 0.13958156E+04</pdfrwt>
<totfact> 0.43386065E+01</totfact>
</mgrwt>
</event>
<event>
12    2  0.3555611E-008  0.2791061E+04  0.7818608E-02  0.8306049E-01
         -2   -1    0    0    0  501 -0.00000000000E+00  0.00000000000E+00  0.85122112916E+03  0.85122112916E+03  0.00000000000E+00 0. -1.
          2   -1    0    0  501    0  0.00000000000E+00 -0.00000000000E+00 -0.22878961560E+04  0.22878961560E+04  0.00000000000E+00 0.  1.
         23    2    1    2    0    0  0.89465086758E+03  0.35962078333E+02 -0.16180610384E+04  0.18514524166E+04  0.89783522941E+02 0.  0.
        254    2    1    2    0    0 -0.89465086758E+03 -0.35962078333E+02  0.18138601160E+03  0.12876648685E+04  0.90746155980E+03 0.  0.
         23    2    4    4    0    0 -0.81202961879E+03  0.31259445587E+03  0.25444321498E+03  0.91104609350E+03  0.90311899453E+02 0.  0.
         23    2    4    4    0    0 -0.82621248785E+02 -0.34855653421E+03 -0.73057203386E+02  0.37661877504E+03  0.90478828764E+02 0.  0.
          4    1    3    3  502    0  0.18384399069E+03  0.60358386737E+01 -0.26236727909E+03  0.32042414609E+03  0.00000000000E+00 0. -1.
         -4    1    3    3    0  502  0.71080687689E+03  0.29926239659E+02 -0.13556937593E+04  0.15310282705E+04  0.00000000000E+00 0.  1.
         11    1    5    5    0    0 -0.57920956433E+03  0.26558577368E+03  0.19076865136E+03  0.66514073769E+03  0.00000000000E+00 0.  1.
        -11    1    5    5    0    0 -0.23282005447E+03  0.47008682197E+02  0.63674563622E+02  0.24590535581E+03  0.00000000000E+00 0. -1.
          2    1    6    6  503    0 -0.10047466403E+03 -0.32271358275E+03 -0.68756969016E+02  0.34491554820E+03  0.00000000000E+00 0.  1.
         -2    1    6    6    0  503  0.17853415248E+02 -0.25842951455E+02 -0.43002343694E+01  0.31703226832E+02  0.00000000000E+00 0. -1.
<mgrwt>
<rscale>  0 0.27910611E+04</rscale>
<asrwt>0</asrwt>
<pdfrwt beam="1">  1        2 0.35198401E+00 0.27910611E+04</pdfrwt>
<pdfrwt beam="2">  1       -2 0.13095710E+00 0.27910611E+04</pdfrwt>
<totfact> 0.17095827E+00</totfact>
</mgrwt>
</event>
<event>
12    2  0.3555611E-008  0.2200408E+04  0.7818608E-02  0.8518258E-01
          2   -1    0    0  501    0  0.00000000000E+00  0.00000000000E+00  0.20843692075E+04  0.20843692075E+04  0.00000000000E+00 0.  1.
         -2   -1    0    0    0  501 -0.00000000000E+00 -0.00000000000E+00 -0.58072693051E+03  0.58072693051E+03  0.00000000000E+00 0. -1.
         23    2    1    2    0    0  0.78150293561E+03  0.42561966182E+03  0.86914134548E+03  0.12473009480E+04  0.91945862051E+02 0.  0.
        254    2    1    2    0    0 -0.78150293561E+03 -0.42561966182E+03  0.63450093151E+03  0.14177951900E+04  0.90313500313E+03 0.  0.
         23    2    4    4    0    0 -0.81663110716E+03 -0.61651796251E+03  0.62576188020E+03  0.12029092963E+04  0.91826363574E+02 0.  0.
         23    2    4    4    0    0  0.35128171555E+02  0.19089830069E+03  0.87390513107E+01  0.21488589376E+03  0.91779227919E+02 0.  0.
          2    1    3    3  502    0  0.18133982450E+03  0.56639204832E+02  0.17598584229E+03  0.25896553470E+03  0.00000000000E+00 0. -1.
         -2    1    3    3    0  502  0.60016311111E+03  0.36898045699E+03  0.69315550319E+03  0.98833541330E+03  0.00000000000E+00 0.  1.
         11    1    5    5    0    0 -0.38570617383E+03 -0.24909365088E+03  0.31651443549E+03  0.55767220418E+03  0.00000000000E+00 0. -1.
        -11    1    5    5    0    0 -0.43092493333E+03 -0.36742431163E+03  0.30924744471E+03  0.64523709208E+03  0.00000000000E+00 0.  1.
          1    1    6    6  503    0  0.37861173183E+02  0.15879791458E+03 -0.28421336009E+02  0.16570461204E+03  0.00000000000E+00 0. -1.
         -1    1    6    6    0  503 -0.27330016278E+01  0.32100386104E+02  0.37160387320E+02  0.49181281721E+02  0.00000000000E+00 0.  1.
<mgrwt>
<rscale>  0 0.22004084E+04</rscale>
<asrwt>0</asrwt>
<pdfrwt beam="1">  1        2 0.32067218E+00 0.22004084E+04</pdfrwt>
<pdfrwt beam="2">  1       -2 0.89342606E-01 0.22004084E+04</pdfrwt>
<totfact> 0.58891911E+00</totfact>
</mgrwt>
</event>
<event>
12    2  0.3555611E-008  0.1364867E+04  0.7818608E-02  0.8979650E-01
          1   -1    0    0  501    0  0.00000000000E+00  0.00000000000E+00  0.77737651183E+03  0.77737651183E+03  0.00000000000E+00 0. -1.
         -1   -1    0    0    0  501 -0.00000000000E+00 -0.00000000000E+00 -0.59908575095E+03  0.59908575095E+03  0.00000000000E+00 0.  1.
         23    2    1    2    0    0 -0.14854183216E+03 -0.10507312990E+03  0.38370927413E+03  0.43450070546E+03  0.91940292903E+02 0.  0.
        254    2    1    2    0    0  0.14854183216E+03  0.10507312990E+03 -0.20541851325E+03  0.94196155732E+03  0.90110475049E+03 0.  0.
         23    2    4    4    0    0 -0.72598937674E+02  0.43721385699E+03 -0.26990344561E+03  0.52746203591E+03  0.94560916243E+02 0.  0.
         23    2    4    4    0    0  0.22114076984E+03 -0.33214072709E+03  0.64484932363E+02  0.41449952141E+03  0.91819627920E+02 0.  0.
          2    1    3    3  502    0 -0.14586907769E+03 -0.59749650688E+02  0.28076069608E+03  0.32198505718E+03  0.00000000000E+00 0. -1.
         -2    1    3    3    0  502 -0.26727544690E+01 -0.45323479208E+02  0.10294857805E+03  0.11251564828E+03  0.00000000000E+00 0.  1.
         11    1    5    5    0    0 -0.91021722979E+02  0.39769640454E+03 -0.25622429174E+03  0.48176578533E+03  0.00000000000E+00 0.  1.
        -11    1    5    5    0    0  0.18422785305E+02  0.39517452446E+02 -0.13679153869E+02  0.45696250576E+02  0.00000000000E+00 0. -1.
          1    1    6    6  503    0  0.76696590172E+02 -0.14878805488E+03 -0.14656954281E+02  0.16803296857E+03  0.00000000000E+00 0. -1.
         -1    1    6    6    0  503  0.14444417967E+03 -0.18335267222E+03  0.79141886644E+02  0.24646655284E+03  0.00000000000E+00 0.  1.
<mgrwt>
<rscale>  0 0.13648666E+04</rscale>
<asrwt>0</asrwt>
<pdfrwt beam="1">  1        1 0.11959639E+00 0.13648666E+04</pdfrwt>
<pdfrwt beam="2">  1       -1 0.92167039E-01 0.13648666E+04</pdfrwt>
<totfact> 0.25942965E+01</totfact>
</mgrwt>
</event>
<event>
12    2  0.3555611E-008  0.2339004E+04  0.7818608E-02  0.8462699E-01
          1   -1    0    0  501    0  0.00000000000E+00  0.00000000000E+00  0.19409966187E+04  0.19409966187E+04  0.00000000000E+00 0. -1.
         -1   -1    0    0    0  501 -0.00000000000E+00 -0.00000000000E+00 -0.70465588428E+03  0.70465588428E+03  0.00000000000E+00 0.  1.
         23    2    1    2    0    0 -0.64943982165E+03  0.44411006593E+03  0.11001595959E+04  0.13544827324E+04  0.72570679149E+02 0.  0.
        254    2    1    2    0    0  0.64943982165E+03 -0.44411006593E+03  0.13618113856E+03  0.12911697705E+04  0.10146764220E+04 0.  0.
         23    2    4    4    0    0  0.29893213838E+03 -0.58833625780E+03  0.43847312793E+03  0.79742427273E+03  0.90148828201E+02 0.  0.
         23    2    4    4    0    0  0.35050768327E+03  0.14422619187E+03 -0.30229198938E+03  0.49374549781E+03  0.93527211620E+02 0.  0.
          4    1    3    3  502    0 -0.43108409674E+03  0.25241440884E+03  0.69488352135E+03  0.85580934822E+03  0.00000000000E+00 0. -1.
         -4    1    3    3    0  502 -0.21835572491E+03  0.19169565709E+03  0.40527607450E+03  0.49867338420E+03  0.00000000000E+00 0.  1.
         11    1    5    5    0    0  0.26206612054E+03 -0.44906096904E+03  0.31680602208E+03  0.60885175624E+03  0.00000000000E+00 0.  1.
        -11    1    5    5    0    0  0.36866017846E+02 -0.13927528876E+03  0.12166710585E+03  0.18857251649E+03  0.00000000000E+00 0. -1.
          1    1    6    6  503    0  0.23083934437E+02 -0.13269528285E+02 -0.15063995188E+02  0.30592031006E+02  0.00000000000E+00 0. -1.
         -1    1    6    6    0  503  0.32742374883E+03  0.15749572016E+03 -0.28722799419E+03  0.46315346680E+03  0.00000000000E+00 0.  1.
<mgrwt>
<rscale>  0 0.23390038E+04</rscale>
<asrwt>0</asrwt>
<pdfrwt beam="1">  1        1 0.29861486E+00 0.23390038E+04</pdfrwt>
<pdfrwt beam="2">  1       -1 0.10840860E+00 0.23390038E+04</pdfrwt>
<totfact> 0.23249961E+00</totfact>
</mgrwt>
</event>
<event>
12    2  0.3555611E-008  0.2122591E+04  0.7818608E-02  0.8551357E-01
          2   -1    0    0  501    0  0.00000000000E+00  0.00000000000E+00  0.27254368661E+04  0.27254368661E+04  0.00000000000E+00 0. -1.
         -2   -1    0    0    0  501 -0.00000000000E+00 -0.00000000000E+00 -0.41327232475E+03  0.41327232475E+03  0.00000000000E+00 0.  1.
         23    2    1    2    0    0 -0.81831539372E+03  0.31286267444E+03  0.86561527782E+03  0.12349322358E+04  0.90800226210E+02 0.  0.
        254    2    1    2    0    0  0.81831539372E+03 -0.31286267444E+03  0.14465492635E+04  0.19037769550E+04  0.87426471174E+03 0.  0.
         23    2    4    4    0    0  0.12706746392E+03 -0.49132570887E+03  0.54644781163E+03  0.75144625693E+03  0.92299369664E+02 0.  0.
         23    2    4    4    0    0  0.69124792980E+03  0.17846303443E+03  0.90010145185E+03  0.11523306981E+04  0.89502285192E+02 0.  0.
          4    1    3    3  502    0 -0.31045237055E+03  0.12545927168E+03  0.27062530577E+03  0.43053311063E+03  0.00000000000E+00 0. -1.
         -4    1    3    3    0  502 -0.50786302317E+03  0.18740340276E+03  0.59498997205E+03  0.80439912513E+03  0.00000000000E+00 0.  1.
         11    1    5    5    0    0  0.27671247280E+02 -0.20503636893E+02  0.31743375895E+02  0.46837367188E+02  0.00000000000E+00 0. -1.
        -11    1    5    5    0    0  0.99396216637E+02 -0.47082207198E+03  0.51470443573E+03  0.70460888975E+03  0.00000000000E+00 0.  1.
          3    1    6    6  503    0  0.65205518971E+03  0.14542775491E+03  0.82936649553E+03  0.10649760496E+04  0.00000000000E+00 0.  1.
         -3    1    6    6    0  503  0.39192740093E+02  0.33035279512E+02  0.70734956318E+02  0.87354648496E+02  0.00000000000E+00 0. -1.
<mgrwt>
<rscale>  0 0.21225905E+04</rscale>
<asrwt>0</asrwt>
<pdfrwt beam="1">  1        2 0.41929797E+00 0.21225905E+04</pdfrwt>
<pdfrwt beam="2">  1       -2 0.63580359E-01 0.21225905E+04</pdfrwt>
<totfact> 0.54035114E+00</totfact>
</mgrwt>
</event>
<event>
12    2  0.3555611E-008  0.1329161E+04  0.7818608E-02  0.9006754E-01
          1   -1    0    0  501    0  0.00000000000E+00  0.00000000000E+00  0.14009550817E+04  0.14009550817E+04  0.00000000000E+00 0. -1.
         -1   -1    0    0    0  501 -0.00000000000E+00 -0.00000000000E+00 -0.31526174321E+03  0.31526174321E+03  0.00000000000E+00 0.  1.
         23    2    1    2    0    0 -0.28897180106E+02  0.34508916211E+03  0.32592198006E+03  0.48431714508E+03  0.91740847580E+02 0.  0.
        254    2    1    2    0    0  0.28897180106E+02 -0.34508916211E+03  0.75977135845E+03  0.12318996798E+04  0.90576085545E+03 0.  0.
         23    2    4    4    0    0  0.79123634419E+02  0.29280112178E+03  0.31843850592E+03  0.44939112185E+03  0.92500010296E+02 0.  0.
         23    2    4    4    0    0 -0.50226454313E+02 -0.63789028389E+03  0.44133285253E+03  0.78250855800E+03  0.90101307560E+02 0.  0.
          1    1    3    3  502    0  0.63893066183E+01  0.19504781589E+03  0.23460667040E+03  0.30516350292E+03  0.00000000000E+00 0. -1.
         -1    1    3    3    0  502 -0.35286486725E+02  0.15004134622E+03  0.91315309660E+02  0.17915364216E+03  0.00000000000E+00 0.  1.
         11    1    5    5    0    0  0.92998054024E+02  0.28632989811E+03  0.30898034004E+03  0.43139575698E+03  0.00000000000E+00 0. -1.
        -11    1    5    5    0    0 -0.13874419605E+02  0.64712236682E+01  0.94581658796E+01  0.17995364874E+02  0.00000000000E+00 0.  1.
          1    1    6    6  503    0 -0.75468860718E+02 -0.47197836946E+03  0.33832071183E+03  0.58559374504E+03  0.00000000000E+00 0. -1.
         -1    1    6    6    0  503  0.25242406406E+02 -0.16591191442E+03  0.10301214070E+03  0.19691481295E+03  0.00000000000E+00 0.  1.
<mgrwt>
<rscale>  0 0.13291615E+04</rscale>
<asrwt>0</asrwt>
<pdfrwt beam="1">  1        1 0.21553155E+00 0.13291615E+04</pdfrwt>
<pdfrwt beam="2">  1       -1 0.48501807E-01 0.13291615E+04</pdfrwt>
<totfact> 0.31978342E+01</totfact>
</mgrwt>
</event>
<event>
12    2  0.3555611E-008  0.1336591E+04  0.7818608E-02  0.9001041E-01
         -1   -1    0    0    0  501 -0.00000000000E+00  0.00000000000E+00  0.12036800423E+04  0.12036800423E+04  0.00000000000E+00 0.  1.
          1   -1    0    0  501    0  0.00000000000E+00 -0.00000000000E+00 -0.37104473231E+03  0.37104473231E+03  0.00000000000E+00 0. -1.
         23    2    1    2    0    0  0.19597200017E+03  0.16782400861E+03  0.46620787873E+03  0.54053359808E+03  0.90867275484E+02 0.  0.
        254    2    1    2    0    0 -0.19597200017E+03 -0.16782400861E+03  0.36642743125E+03  0.10341911765E+04  0.93204742610E+03 0.  0.
         23    2    4    4    0    0  0.11756497237E+02 -0.17515902377E+03 -0.28234772950E+03  0.34679560444E+03  0.98630888005E+02 0.  0.
         23    2    4    4    0    0 -0.20772849740E+03  0.73350151655E+01  0.64877516076E+03  0.68739557208E+03  0.91643506133E+02 0.  0.
          4    1    3    3  502    0  0.95816539612E+02  0.65774512546E+02  0.29742741878E+03  0.31932767686E+03  0.00000000000E+00 0.  1.
         -4    1    3    3    0  502  0.10015546056E+03  0.10204949606E+03  0.16878045994E+03  0.22120592122E+03  0.00000000000E+00 0. -1.
         11    1    5    5    0    0  0.46998705215E+02 -0.13627479415E+03 -0.23720931675E+03  0.27757513895E+03  0.00000000000E+00 0. -1.
        -11    1    5    5    0    0 -0.35242207978E+02 -0.38884229623E+02 -0.45138412753E+02  0.69220465488E+02  0.00000000000E+00 0.  1.
          4    1    6    6  503    0 -0.20270424721E+03  0.13299778434E+02  0.51829687480E+03  0.55668442261E+03  0.00000000000E+00 0. -1.
         -4    1    6    6    0  503 -0.50242501982E+01 -0.59647632683E+01  0.13047828595E+03  0.13071114947E+03  0.00000000000E+00 0.  1.
<mgrwt>
<rscale>  0 0.13365914E+04</rscale>
<asrwt>0</asrwt>
<pdfrwt beam="1">  1        1 0.57083806E-01 0.13365914E+04</pdfrwt>
<pdfrwt beam="2">  1       -1 0.18518154E+00 0.13365914E+04</pdfrwt>
<totfact> 0.12413461E+01</totfact>
</mgrwt>
</event>
<event>
12    2  0.3555611E-008  0.3465355E+04  0.7818608E-02  0.8122050E-01
         -2   -1    0    0    0  501 -0.00000000000E+00  0.00000000000E+00  0.12027420120E+04  0.12027420120E+04  0.00000000000E+00 0.  1.
          2   -1    0    0  501    0  0.00000000000E+00 -0.00000000000E+00 -0.24961064490E+04  0.24961064490E+04  0.00000000000E+00 0. -1.
         23    2    1    2    0    0  0.34560846584E+03  0.96472883636E+03 -0.19117337184E+04  0.21711907950E+04  0.95899525616E+02 0.  0.
        254    2    1    2    0    0 -0.34560846584E+03 -0.96472883636E+03  0.61836928131E+03  0.15276576660E+04  0.94932104000E+03 0.  0.
         23    2    4    4    0    0  0.29071446027E+03 -0.55695493946E+03  0.30425829588E+03  0.70397640725E+03  0.91082212080E+02 0.  0.
         23    2    4    4    0    0 -0.63632292610E+03 -0.40777389690E+03  0.31411098543E+03  0.82368125873E+03  0.92729108315E+02 0.  0.
          1    1    3    3  502    0  0.33130192781E+03  0.84585667778E+03 -0.17196502235E+04  0.19448473919E+04  0.00000000000E+00 0. -1.
         -1    1    3    3    0  502  0.14306538027E+02  0.11887215858E+03 -0.19208349490E+03  0.22634340310E+03  0.00000000000E+00 0.  1.
         11    1    5    5    0    0  0.17929823354E+03 -0.37954670068E+03  0.24598089896E+03  0.48652868075E+03  0.00000000000E+00 0. -1.
        -11    1    5    5    0    0  0.11141622673E+03 -0.17740823878E+03  0.58277396923E+02  0.21744772650E+03  0.00000000000E+00 0.  1.
          1    1    6    6  503    0 -0.60337523733E+03 -0.36567180133E+03  0.27410716872E+03  0.75690969293E+03  0.00000000000E+00 0. -1.
         -1    1    6    6    0  503 -0.32947688772E+02 -0.42102095567E+02  0.40003816714E+02  0.66771565791E+02  0.00000000000E+00 0.  1.
<mgrwt>
<rscale>  0 0.34653554E+04</rscale>
<asrwt>0</asrwt>
<pdfrwt beam="1">  1        2 0.38401637E+00 0.34653554E+04</pdfrwt>
<pdfrwt beam="2">  1       -2 0.18503723E+00 0.34653554E+04</pdfrwt>
<totfact> 0.48279890E-01</totfact>
</mgrwt>
</event>
<event>
12    2  0.3555611E-008  0.3939508E+04  0.7818608E-02  0.8016862E-01
         -2   -1    0    0    0  501 -0.00000000000E+00  0.00000000000E+00  0.11199686018E+04  0.11199686018E+04  0.00000000000E+00 0.  1.
          2   -1    0    0  501    0  0.00000000000E+00 -0.00000000000E+00 -0.34643215717E+04  0.34643215717E+04  0.00000000000E+00 0. -1.
         23    2    1    2    0    0 -0.12576415790E+04  0.40329731827E+03 -0.26386389653E+04  0.29521022175E+04  0.90448024927E+02 0.  0.
        254    2    1    2    0    0  0.12576415790E+04 -0.40329731827E+03  0.29428599540E+03  0.16321879561E+04  0.91275528411E+03 0.  0.
         23    2    4    4    0    0  0.56746451620E+03 -0.63204957228E+03  0.35758512330E+02  0.85497857405E+03  0.90592780619E+02 0.  0.
         23    2    4    4    0    0  0.69017706279E+03  0.22875225402E+03  0.25852748307E+03  0.77720938201E+03  0.92444536146E+02 0.  0.
          3    1    3    3  502    0 -0.11790680272E+04  0.37217710569E+03 -0.25128561162E+04  0.28005647773E+04  0.00000000000E+00 0. -1.
         -3    1    3    3    0  502 -0.78573551776E+02  0.31120212577E+02 -0.12578284902E+03  0.15153744019E+03  0.00000000000E+00 0.  1.
         11    1    5    5    0    0  0.10543495939E+03 -0.78683653655E+02 -0.14397273121E+02  0.13234398168E+03  0.00000000000E+00 0.  1.
        -11    1    5    5    0    0  0.46202955682E+03 -0.55336591863E+03  0.50155785451E+02  0.72263459237E+03  0.00000000000E+00 0. -1.
          4    1    6    6  503    0  0.12626616804E+03  0.37990864359E+02  0.10405645199E+02  0.13226763935E+03  0.00000000000E+00 0. -1.
         -4    1    6    6    0  503  0.56391089475E+03  0.19076138966E+03  0.24812183787E+03  0.64494174266E+03  0.00000000000E+00 0.  1.
<mgrwt>
<rscale>  0 0.39395083E+04</rscale>
<asrwt>0</asrwt>
<pdfrwt beam="1">  1        2 0.53297255E+00 0.39395083E+04</pdfrwt>
<pdfrwt beam="2">  1       -2 0.17230286E+00 0.39395083E+04</pdfrwt>
<totfact> 0.13985278E-01</totfact>
</mgrwt>
</event>
<event>
12    2  0.3555611E-008  0.2178442E+04  0.7818608E-02  0.8527455E-01
          1   -1    0    0  501    0  0.00000000000E+00  0.00000000000E+00  0.34581173364E+04  0.34581173364E+04  0.00000000000E+00 0. -1.
         -1   -1    0    0    0  501 -0.00000000000E+00 -0.00000000000E+00 -0.34307752348E+03  0.34307752348E+03  0.00000000000E+00 0.  1.
         23    2    1    2    0    0  0.63653828117E+03  0.60338088779E+03  0.16169208213E+04  0.18414782475E+04  0.85788780115E+02 0.  0.
        254    2    1    2    0    0 -0.63653828117E+03 -0.60338088779E+03  0.14981189916E+04  0.19597166123E+04  0.90932898795E+03 0.  0.
         23    2    4    4    0    0  0.14961608355E+03 -0.40342609494E+03  0.62698877190E+03  0.76601549429E+03  0.92343006607E+02 0.  0.
         23    2    4    4    0    0 -0.78615436471E+03 -0.19995479285E+03  0.87113021973E+03  0.11937011180E+04  0.89631998118E+02 0.  0.
          1    1    3    3  502    0  0.26581958594E+01  0.11561111156E+02  0.10127501292E+02  0.15597806859E+02  0.00000000000E+00 0. -1.
         -1    1    3    3    0  502  0.63388008531E+03  0.59181977664E+03  0.16067933200E+04  0.18258804407E+04  0.00000000000E+00 0.  1.
         11    1    5    5    0    0  0.14987251711E+03 -0.28834003859E+03  0.46644460780E+03  0.56848247236E+03  0.00000000000E+00 0. -1.
        -11    1    5    5    0    0 -0.25643356695E+00 -0.11508605635E+03  0.16054416410E+03  0.19753302193E+03  0.00000000000E+00 0.  1.
          1    1    6    6  503    0 -0.48274907736E+03 -0.83428167996E+02  0.49169931111E+03  0.69410024020E+03  0.00000000000E+00 0. -1.
         -1    1    6    6    0  503 -0.30340528736E+03 -0.11652662486E+03  0.37943090862E+03  0.49960087782E+03  0.00000000000E+00 0.  1.
<mgrwt>
<rscale>  0 0.21784419E+04</rscale>
<asrwt>0</asrwt>
<pdfrwt beam="1">  1        1 0.53201803E+00 0.21784419E+04</pdfrwt>
<pdfrwt beam="2">  1       -1 0.52781160E-01 0.21784419E+04</pdfrwt>
<totfact> 0.89335026E-01</totfact>
</mgrwt>
</event>
<event>
12    2  0.3555611E-008  0.1618228E+04  0.7818608E-02  0.8809427E-01
          2   -1    0    0  501    0  0.00000000000E+00  0.00000000000E+00  0.21049221745E+04  0.21049221745E+04  0.00000000000E+00 0.  1.
         -2   -1    0    0    0  501 -0.00000000000E+00 -0.00000000000E+00 -0.31101649878E+03  0.31101649878E+03  0.00000000000E+00 0. -1.
         23    2    1    2    0    0  0.45079547309E+03 -0.32120052646E+03  0.50431307130E+03  0.75404224271E+03  0.88666189451E+02 0.  0.
        254    2    1    2    0    0 -0.45079547309E+03  0.32120052646E+03  0.12895926045E+04  0.16618964306E+04  0.89020465279E+03 0.  0.
         23    2    4    4    0    0 -0.62726035224E+02 -0.29019907530E+03  0.48413359592E+03  0.57512305669E+03  0.90725590879E+02 0.  0.
         23    2    4    4    0    0 -0.38806943786E+03  0.61139960176E+03  0.80545900855E+03  0.10867733739E+04  0.88908887011E+02 0.  0.
          3    1    3    3  502    0  0.10840686330E+03 -0.95918940827E+02  0.18254215620E+03  0.23296808797E+03  0.00000000000E+00 0. -1.
         -3    1    3    3    0  502  0.34238860979E+03 -0.22528158563E+03  0.32177091510E+03  0.52107415474E+03  0.00000000000E+00 0.  1.
         11    1    5    5    0    0  0.55294759134E+01 -0.13972623277E+03  0.16944785125E+03  0.21969653962E+03  0.00000000000E+00 0. -1.
        -11    1    5    5    0    0 -0.68255511138E+02 -0.15047284253E+03  0.31468574467E+03  0.35542651707E+03  0.00000000000E+00 0.  1.
          1    1    6    6  503    0 -0.73146658800E+02  0.14751099514E+03  0.13615383306E+03  0.21365344284E+03  0.00000000000E+00 0.  1.
         -1    1    6    6    0  503 -0.31492277906E+03  0.46388860662E+03  0.66930517549E+03  0.87311993109E+03  0.00000000000E+00 0. -1.
<mgrwt>
<rscale>  0 0.16182281E+04</rscale>
<asrwt>0</asrwt>
<pdfrwt beam="1">  1        2 0.32383417E+00 0.16182281E+04</pdfrwt>
<pdfrwt beam="2">  1       -2 0.47848693E-01 0.16182281E+04</pdfrwt>
<totfact> 0.23149056E+01</totfact>
</mgrwt>
</event>
<event>
12    2  0.3555611E-008  0.1522660E+04  0.7818608E-02  0.8869522E-01
          1   -1    0    0  501    0  0.00000000000E+00  0.00000000000E+00  0.36463395797E+03  0.36463395797E+03  0.00000000000E+00 0. -1.
         -1   -1    0    0    0  501 -0.00000000000E+00 -0.00000000000E+00 -0.15896038852E+04  0.15896038852E+04  0.00000000000E+00 0.  1.
         23    2    1    2    0    0  0.28845406665E+03 -0.38572409506E+03 -0.50606518597E+03  0.70444934081E+03  0.90322063960E+02 0.  0.
        254    2    1    2    0    0 -0.28845406665E+03  0.38572409506E+03 -0.71890474130E+03  0.12497885024E+04  0.90175298590E+03 0.  0.
         23    2    4    4    0    0 -0.17295078598E+03  0.66248068998E+03 -0.59932872205E+03  0.91444606938E+03  0.90686590831E+02 0.  0.
         23    2    4    4    0    0 -0.11550328067E+03 -0.27675659491E+03 -0.11957601924E+03  0.33534243302E+03  0.90669191760E+02 0.  0.
          3    1    3    3  502    0  0.25612942071E+03 -0.28943579193E+03 -0.42533664392E+03  0.57470567986E+03  0.00000000000E+00 0. -1.
         -3    1    3    3    0  502  0.32324645944E+02 -0.96288303131E+02 -0.80728542052E+02  0.12974366095E+03  0.00000000000E+00 0.  1.
         11    1    5    5    0    0 -0.17443063094E+03  0.54122642604E+03 -0.50989609142E+03  0.76377098223E+03  0.00000000000E+00 0. -1.
        -11    1    5    5    0    0  0.14798449628E+01  0.12125426393E+03 -0.89432630637E+02  0.15067508714E+03  0.00000000000E+00 0.  1.
          3    1    6    6  503    0 -0.13057694738E+03 -0.24046033923E+03 -0.10986225772E+03  0.29485798209E+03  0.00000000000E+00 0. -1.
         -3    1    6    6    0  503  0.15073666708E+02 -0.36296255682E+02 -0.97137615207E+01  0.40484450934E+02  0.00000000000E+00 0.  1.
<mgrwt>
<rscale>  0 0.15226602E+04</rscale>
<asrwt>0</asrwt>
<pdfrwt beam="1">  1        1 0.56097533E-01 0.15226602E+04</pdfrwt>
<pdfrwt beam="2">  1       -1 0.24455444E+00 0.15226602E+04</pdfrwt>
<totfact> 0.49601890E+00</totfact>
</mgrwt>
</event>
<event>
12    2  0.3555611E-008  0.1603228E+04  0.7818608E-02  0.8818568E-01
         -4   -1    0    0    0  501 -0.00000000000E+00  0.00000000000E+00  0.95749845244E+03  0.95749845244E+03  0.00000000000E+00 0.  1.
          4   -1    0    0  501    0  0.00000000000E+00 -0.00000000000E+00 -0.67110791082E+03  0.67110791082E+03  0.00000000000E+00 0. -1.
         23    2    1    2    0    0  0.24105385942E+03 -0.71608749663E+02 -0.39474540311E+03  0.47701955450E+03  0.92135475951E+02 0.  0.
        254    2    1    2    0    0 -0.24105385942E+03  0.71608749663E+02  0.68113594473E+03  0.11515868088E+04  0.89385190426E+03 0.  0.
         23    2    4    4    0    0 -0.62560732859E+02 -0.18487390545E+03 -0.14728671329E+03  0.26102051735E+03  0.91357147251E+02 0.  0.
         23    2    4    4    0    0 -0.17849312656E+03  0.25648265511E+03  0.82842265802E+03  0.89056629141E+03  0.95817902699E+02 0.  0.
          2    1    3    3  502    0  0.22849522665E+03 -0.88285025900E+02 -0.34544691779E+03  0.42348304265E+03  0.00000000000E+00 0. -1.
         -2    1    3    3    0  502  0.12558632766E+02  0.16676276237E+02 -0.49298485325E+02  0.53536511853E+02  0.00000000000E+00 0.  1.
         11    1    5    5    0    0  0.19698420503E+02 -0.10942592369E+02 -0.21526307089E+02  0.31163279593E+02  0.00000000000E+00 0. -1.
        -11    1    5    5    0    0 -0.82259153362E+02 -0.17393131308E+03 -0.12576040620E+03  0.22985723776E+03  0.00000000000E+00 0.  1.
          1    1    6    6  503    0 -0.24133276888E+02  0.23352582136E+02  0.19930850983E+03  0.20211788698E+03  0.00000000000E+00 0. -1.
         -1    1    6    6    0  503 -0.15435984967E+03  0.23313007298E+03  0.62911414819E+03  0.68844840444E+03  0.00000000000E+00 0.  1.
<mgrwt>
<rscale>  0 0.16032277E+04</rscale>
<asrwt>0</asrwt>
<pdfrwt beam="1">  1        4 0.10324737E+00 0.16032277E+04</pdfrwt>
<pdfrwt beam="2">  1       -4 0.14730745E+00 0.16032277E+04</pdfrwt>
<totfact> 0.45834903E-01</totfact>
</mgrwt>
</event>
<event>
12    2  0.3555611E-008  0.2633988E+04  0.7818608E-02  0.8356747E-01
          1   -1    0    0  501    0  0.00000000000E+00  0.00000000000E+00  0.17578863350E+04  0.17578863350E+04  0.00000000000E+00 0. -1.
         -1   -1    0    0    0  501 -0.00000000000E+00 -0.00000000000E+00 -0.98668091285E+03  0.98668091285E+03  0.00000000000E+00 0.  1.
         23    2    1    2    0    0  0.10690256664E+04 -0.45445895377E+03  0.26629613873E+03  0.11953916434E+04  0.93266990680E+02 0.  0.
        254    2    1    2    0    0 -0.10690256664E+04  0.45445895377E+03  0.50490928343E+03  0.15491756044E+04  0.89199935689E+03 0.  0.
         23    2    4    4    0    0 -0.11850602669E+04  0.39982213866E+03  0.29785233269E+03  0.12888713648E+04  0.90817423232E+02 0.  0.
         23    2    4    4    0    0  0.11603460044E+03  0.54636815116E+02  0.20705695073E+03  0.26030423958E+03  0.91850455800E+02 0.  0.
          1    1    3    3  502    0  0.23011953613E+03 -0.12468694088E+03  0.29314082733E+02  0.26336505004E+03  0.00000000000E+00 0. -1.
         -1    1    3    3    0  502  0.83890613030E+03 -0.32977201289E+03  0.23698205599E+03  0.93202659340E+03  0.00000000000E+00 0.  1.
         11    1    5    5    0    0 -0.68273414917E+03  0.27385410698E+03  0.15697483150E+03  0.75217224628E+03  0.00000000000E+00 0. -1.
        -11    1    5    5    0    0 -0.50232611769E+03  0.12596803168E+03  0.14087750119E+03  0.53669911856E+03  0.00000000000E+00 0.  1.
          1    1    6    6  503    0  0.60881537919E+02 -0.20721081082E+02  0.87874775299E+02  0.10889398971E+03  0.00000000000E+00 0. -1.
         -1    1    6    6    0  503  0.55153062517E+02  0.75357896198E+02  0.11918217544E+03  0.15141024987E+03  0.00000000000E+00 0.  1.
<mgrwt>
<rscale>  0 0.26339878E+04</rscale>
<asrwt>0</asrwt>
<pdfrwt beam="1">  1        1 0.27044405E+00 0.26339878E+04</pdfrwt>
<pdfrwt beam="2">  1       -1 0.15179706E+00 0.26339878E+04</pdfrwt>
<totfact> 0.12910496E+00</totfact>
</mgrwt>
</event>
<event>
12    2  0.3555611E-008  0.1300317E+04  0.7818608E-02  0.9029314E-01
         -2   -1    0    0    0  501 -0.00000000000E+00  0.00000000000E+00  0.19847780087E+03  0.19847780087E+03  0.00000000000E+00 0. -1.
          2   -1    0    0  501    0  0.00000000000E+00 -0.00000000000E+00 -0.21297410451E+04  0.21297410451E+04  0.00000000000E+00 0.  1.
         23    2    1    2    0    0 -0.78628332545E+02  0.29108077502E+03 -0.99380166229E+03  0.10425044728E+04  0.90903242854E+02 0.  0.
        254    2    1    2    0    0  0.78628332545E+02 -0.29108077502E+03 -0.93746158197E+03  0.12857143732E+04  0.82662978385E+03 0.  0.
         23    2    4    4    0    0 -0.14171390945E+03  0.80541222175E+01 -0.88378319455E+03  0.89997416748E+03  0.93450875555E+02 0.  0.
         23    2    4    4    0    0  0.22034224199E+03 -0.29913489723E+03 -0.53678387417E+02  0.38574020573E+03  0.88779201918E+02 0.  0.
          1    1    3    3  502    0 -0.48752679718E+02  0.11795545489E+03 -0.56241150780E+03  0.57671224820E+03  0.00000000000E+00 0. -1.
         -1    1    3    3    0  502 -0.29875652827E+02  0.17312532013E+03 -0.43139015449E+03  0.46579222460E+03  0.00000000000E+00 0.  1.
         11    1    5    5    0    0 -0.22208303882E+02 -0.23962142271E+02 -0.37270910988E+03  0.37413830813E+03  0.00000000000E+00 0. -1.
        -11    1    5    5    0    0 -0.11950560557E+03  0.32016264489E+02 -0.51107408467E+03  0.52583585935E+03  0.00000000000E+00 0.  1.
          3    1    6    6  503    0  0.10935557303E+03 -0.14345887041E+03  0.18606708061E+02  0.18134304077E+03  0.00000000000E+00 0. -1.
         -3    1    6    6    0  503  0.11098666897E+03 -0.15567602683E+03 -0.72285095478E+02  0.20439716496E+03  0.00000000000E+00 0.  1.
<mgrwt>
<rscale>  0 0.13003174E+04</rscale>
<asrwt>0</asrwt>
<pdfrwt beam="1">  1        2 0.32765249E+00 0.13003174E+04</pdfrwt>
<pdfrwt beam="2">  1       -2 0.30535045E-01 0.13003174E+04</pdfrwt>
<totfact> 0.55078104E+01</totfact>
</mgrwt>
</event>
<event>
12    2  0.3555611E-008  0.3205032E+04  0.7818608E-02  0.8187490E-01
         -2   -1    0    0    0  501 -0.00000000000E+00  0.00000000000E+00  0.13992207051E+04  0.13992207051E+04  0.00000000000E+00 0.  1.
          2   -1    0    0  501    0  0.00000000000E+00 -0.00000000000E+00 -0.18353479860E+04  0.18353479860E+04  0.00000000000E+00 0. -1.
         23    2    1    2    0    0  0.91809781518E+02 -0.13857788981E+04  0.27612667559E+03  0.14189598330E+04  0.91590808720E+02 0.  0.
        254    2    1    2    0    0 -0.91809781518E+02  0.13857788981E+04 -0.71225395641E+03  0.18156088581E+04  0.92753309211E+03 0.  0.
         23    2    4    4    0    0 -0.30803224014E+03  0.76520854919E+03  0.16663239573E+02  0.83002134189E+03  0.90718133411E+02 0.  0.
         23    2    4    4    0    0  0.21622245862E+03  0.62057034890E+03 -0.72891719598E+03  0.98558751625E+03  0.90569111944E+02 0.  0.
          4    1    3    3  502    0 -0.68335665644E+01 -0.10789814316E+03  0.11921665274E+01  0.10812089617E+03  0.00000000000E+00 0. -1.
         -4    1    3    3    0  502  0.98643348083E+02 -0.12778807549E+04  0.27493450907E+03  0.13108389368E+04  0.00000000000E+00 0.  1.
         11    1    5    5    0    0 -0.11156009386E+03  0.39709828797E+03  0.15397417495E+02  0.41275874953E+03  0.00000000000E+00 0.  1.
        -11    1    5    5    0    0 -0.19647214628E+03  0.36811026122E+03  0.12658220787E+01  0.41726259237E+03  0.00000000000E+00 0. -1.
          2    1    6    6  503    0  0.21517128699E+03  0.59630888360E+03 -0.67266103662E+03  0.92431371167E+03  0.00000000000E+00 0. -1.
         -2    1    6    6    0  503  0.10511716244E+01  0.24261465304E+02 -0.56256159369E+02  0.61273804577E+02  0.00000000000E+00 0.  1.
<mgrwt>
<rscale>  0 0.32050316E+04</rscale>
<asrwt>0</asrwt>
<pdfrwt beam="1">  1        2 0.28236123E+00 0.32050316E+04</pdfrwt>
<pdfrwt beam="2">  1       -2 0.21526473E+00 0.32050316E+04</pdfrwt>
<totfact> 0.73549286E-01</totfact>
</mgrwt>
</event>
<event>
12    2  0.3555611E-008  0.2050992E+04  0.7818608E-02  0.8583144E-01
         -4   -1    0    0    0  501 -0.00000000000E+00  0.00000000000E+00  0.10110747312E+04  0.10110747312E+04  0.00000000000E+00 0.  1.
          4   -1    0    0  501    0  0.00000000000E+00 -0.00000000000E+00 -0.10401229647E+04  0.10401229647E+04  0.00000000000E+00 0. -1.
         23    2    1    2    0    0 -0.65355114031E+03  0.35638426352E+03 -0.32691832695E+03  0.81826151058E+03  0.92398435710E+02 0.  0.
        254    2    1    2    0    0  0.65355114031E+03 -0.35638426352E+03  0.29787009346E+03  0.12329361853E+04  0.93662490264E+03 0.  0.
         23    2    4    4    0    0  0.60466628111E+03  0.18763455418E+03  0.20720689723E+03  0.67221373419E+03  0.90047591478E+02 0.  0.
         23    2    4    4    0    0  0.48884859199E+02 -0.54401881770E+03  0.90663196233E+02  0.56072245115E+03  0.88564375443E+02 0.  0.
          4    1    3    3  502    0 -0.25093024115E+03  0.13428924312E+03 -0.76627355752E+02  0.29473944153E+03  0.00000000000E+00 0.  1.
         -4    1    3    3    0  502 -0.40262089916E+03  0.22209502039E+03 -0.25029097120E+03  0.52352206905E+03  0.00000000000E+00 0. -1.
         11    1    5    5    0    0  0.33388986665E+03  0.65263758759E+02  0.83214850831E+02  0.35023779445E+03  0.00000000000E+00 0.  1.
        -11    1    5    5    0    0  0.27077641446E+03  0.12237079542E+03  0.12399204640E+03  0.32197593974E+03  0.00000000000E+00 0. -1.
          3    1    6    6  503    0  0.57292582038E+02 -0.53297668410E+03  0.77548348623E+02  0.54162748465E+03  0.00000000000E+00 0. -1.
         -3    1    6    6    0  503 -0.84077228396E+01 -0.11042133601E+02  0.13114847610E+02  0.19094966500E+02  0.00000000000E+00 0.  1.
<mgrwt>
<rscale>  0 0.20509920E+04</rscale>
<asrwt>0</asrwt>
<pdfrwt beam="1">  1        4 0.16001892E+00 0.20509920E+04</pdfrwt>
<pdfrwt beam="2">  1       -4 0.15554996E+00 0.20509920E+04</pdfrwt>
<totfact> 0.12505954E-01</totfact>
</mgrwt>
</event>
<event>
12    2  0.3555611E-008  0.2505223E+04  0.7818608E-02  0.8401127E-01
          1   -1    0    0  501    0  0.00000000000E+00  0.00000000000E+00  0.19261087354E+04  0.19261087354E+04  0.00000000000E+00 0. -1.
         -1   -1    0    0    0  501 -0.00000000000E+00 -0.00000000000E+00 -0.81461413010E+03  0.81461413010E+03  0.00000000000E+00 0.  1.
         23    2    1    2    0    0  0.11141489781E+03 -0.86508276896E+03 -0.22705418879E+03  0.90576538255E+03  0.89865716251E+02 0.  0.
        254    2    1    2    0    0 -0.11141489781E+03  0.86508276896E+03  0.13385487941E+04  0.18349574830E+04  0.90253787369E+03 0.  0.
         23    2    4    4    0    0 -0.27100967668E+03  0.98916500574E+03  0.11524121233E+04  0.15456075929E+04  0.94633377116E+02 0.  0.
         23    2    4    4    0    0  0.15959477887E+03 -0.12408223677E+03  0.18613667082E+03  0.28934989001E+03  0.90606863412E+02 0.  0.
          3    1    3    3  502    0  0.49667527449E+02 -0.13842565086E+03 -0.49657135296E+02  0.15522356517E+03  0.00000000000E+00 0. -1.
         -3    1    3    3    0  502  0.61747370364E+02 -0.72665711810E+03 -0.17739705350E+03  0.75054181737E+03  0.00000000000E+00 0.  1.
         11    1    5    5    0    0 -0.31684795969E+01  0.12961448148E+03  0.14705645446E+03  0.19604987597E+03  0.00000000000E+00 0. -1.
        -11    1    5    5    0    0 -0.26784119708E+03  0.85955052426E+03  0.10053556688E+04  0.13495577170E+04  0.00000000000E+00 0.  1.
          1    1    6    6  503    0  0.23801732755E+02  0.10992386923E+02  0.70839776056E+01  0.27157647010E+02  0.00000000000E+00 0. -1.
         -1    1    6    6    0  503  0.13579304611E+03 -0.13507462370E+03  0.17905269322E+03  0.26219224300E+03  0.00000000000E+00 0.  1.
<mgrwt>
<rscale>  0 0.25052229E+04</rscale>
<asrwt>0</asrwt>
<pdfrwt beam="1">  1        1 0.29632442E+00 0.25052229E+04</pdfrwt>
<pdfrwt beam="2">  1       -1 0.12532525E+00 0.25052229E+04</pdfrwt>
<totfact> 0.16512383E+00</totfact>
</mgrwt>
</event>
<event>
12    2  0.3555611E-008  0.1572258E+04  0.7818608E-02  0.8837775E-01
          2   -1    0    0  501    0  0.00000000000E+00  0.00000000000E+00  0.29583758658E+03  0.29583758658E+03  0.00000000000E+00 0. -1.
         -2   -1    0    0    0  501 -0.00000000000E+00 -0.00000000000E+00 -0.20889793713E+04  0.20889793713E+04  0.00000000000E+00 0.  1.
         23    2    1    2    0    0  0.95323992475E+02  0.42371202764E+03 -0.16023465570E+03  0.47135830454E+03  0.88797299897E+02 0.  0.
        254    2    1    2    0    0 -0.95323992475E+02 -0.42371202764E+03 -0.16329071290E+04  0.19134586533E+04  0.89795310573E+03 0.  0.
         23    2    4    4    0    0  0.32323663251E+02 -0.63802427834E+03 -0.73677336211E+03  0.97945316351E+03  0.91507996572E+02 0.  0.
         23    2    4    4    0    0 -0.12764765573E+03  0.21431225070E+03 -0.89613376692E+03  0.93400548983E+03  0.84183501957E+02 0.  0.
          3    1    3    3  502    0  0.37381310193E+02  0.33567207422E+03 -0.12720810248E+03  0.36090858274E+03  0.00000000000E+00 0. -1.
         -3    1    3    3    0  502  0.57942682282E+02  0.88039953419E+02 -0.33026553228E+02  0.11044972180E+03  0.00000000000E+00 0.  1.
         11    1    5    5    0    0  0.45146075304E+02 -0.54159728060E+03 -0.57904449736E+03  0.79413998287E+03  0.00000000000E+00 0.  1.
        -11    1    5    5    0    0 -0.12822412053E+02 -0.96426997744E+02 -0.15772886475E+03  0.18531318064E+03  0.00000000000E+00 0. -1.
          3    1    6    6  503    0 -0.39364703296E+02  0.55005447177E+02 -0.39610856091E+03  0.40184222166E+03  0.00000000000E+00 0. -1.
         -3    1    6    6    0  503 -0.88282952430E+02  0.15930680353E+03 -0.50002520601E+03  0.53216326817E+03  0.00000000000E+00 0.  1.
<mgrwt>
<rscale>  0 0.15722578E+04</rscale>
<asrwt>0</asrwt>
<pdfrwt beam="1">  1        2 0.45513477E-01 0.15722578E+04</pdfrwt>
<pdfrwt beam="2">  1       -2 0.32138143E+00 0.15722578E+04</pdfrwt>
<totfact> 0.25270942E+00</totfact>
</mgrwt>
</event>
<event>
12    2  0.3555611E-008  0.1168980E+04  0.7818608E-02  0.9140450E-01
          1   -1    0    0  501    0  0.00000000000E+00  0.00000000000E+00  0.27877946161E+03  0.27877946161E+03  0.00000000000E+00 0. -1.
         -1   -1    0    0    0  501 -0.00000000000E+00 -0.00000000000E+00 -0.12254428834E+04  0.12254428834E+04  0.00000000000E+00 0.  1.
         23    2    1    2    0    0 -0.11544983196E+03  0.17781277325E+03 -0.29107592572E+03  0.37076798016E+03  0.88304329152E+02 0.  0.
        254    2    1    2    0    0  0.11544983196E+03 -0.17781277325E+03 -0.65558749611E+03  0.11334543649E+04  0.89998765893E+03 0.  0.
         23    2    4    4    0    0  0.38329448361E+03 -0.36431281203E+03 -0.21576630267E+03  0.57839676361E+03  0.91374135394E+02 0.  0.
         23    2    4    4    0    0 -0.26784465165E+03  0.18650003878E+03 -0.43982119345E+03  0.55505760128E+03  0.90129000082E+02 0.  0.
          1    1    3    3  502    0 -0.39095332826E+02  0.10364573308E+03 -0.87957394006E+02  0.14144746797E+03  0.00000000000E+00 0. -1.
         -1    1    3    3    0  502 -0.76354499135E+02  0.74167040169E+02 -0.20311853171E+03  0.22932051219E+03  0.00000000000E+00 0.  1.
         11    1    5    5    0    0  0.35886743590E+02 -0.79575153587E+02 -0.40469828414E+02  0.96217828107E+02  0.00000000000E+00 0. -1.
        -11    1    5    5    0    0  0.34740774002E+03 -0.28473765844E+03 -0.17529647425E+03  0.48217893551E+03  0.00000000000E+00 0.  1.
          1    1    6    6  503    0 -0.13692708743E+03  0.48471637100E+02 -0.15381642911E+03  0.21156091496E+03  0.00000000000E+00 0. -1.
         -1    1    6    6    0  503 -0.13091756422E+03  0.13802840168E+03 -0.28600476434E+03  0.34349668632E+03  0.00000000000E+00 0.  1.
<mgrwt>
<rscale>  0 0.11689796E+04</rscale>
<asrwt>0</asrwt>
<pdfrwt beam="1">  1        1 0.42889148E-01 0.11689796E+04</pdfrwt>
<pdfrwt beam="2">  1       -1 0.18852967E+00 0.11689796E+04</pdfrwt>
<totfact> 0.17321983E+01</totfact>
</mgrwt>
</event>
<event>
12    2  0.3555611E-008  0.1357845E+04  0.7818608E-02  0.8984911E-01
          1   -1    0    0  501    0  0.00000000000E+00  0.00000000000E+00  0.15914019155E+04  0.15914019155E+04  0.00000000000E+00 0. -1.
         -1   -1    0    0    0  501 -0.00000000000E+00 -0.00000000000E+00 -0.28964139321E+03  0.28964139321E+03  0.00000000000E+00 0.  1.
         23    2    1    2    0    0 -0.81846743852E+02 -0.81882270522E+02  0.87731494222E+03  0.88961131868E+03  0.91231544866E+02 0.  0.
        254    2    1    2    0    0  0.81846743852E+02  0.81882270522E+02  0.42444558010E+03  0.99143199007E+03  0.88847045239E+03 0.  0.
         23    2    4    4    0    0 -0.38091180597E+03  0.45703454781E+02  0.70501704188E+02  0.40037901140E+03  0.90278750359E+02 0.  0.
         23    2    4    4    0    0  0.46275854982E+03  0.36178815740E+02  0.35394387592E+03  0.59105297867E+03  0.92806110554E+02 0.  0.
          4    1    3    3  502    0 -0.21560687653E+02 -0.11365090165E+02  0.51601376130E+03  0.51658903432E+03  0.00000000000E+00 0.  1.
         -4    1    3    3    0  502 -0.60286056199E+02 -0.70517180357E+02  0.36130118092E+03  0.37302228436E+03  0.00000000000E+00 0. -1.
         11    1    5    5    0    0 -0.32812648799E+03  0.68181192292E+02  0.72839142876E+02  0.34295948425E+03  0.00000000000E+00 0.  1.
        -11    1    5    5    0    0 -0.52785317981E+02 -0.22477737511E+02 -0.23374386879E+01  0.57419527145E+02  0.00000000000E+00 0. -1.
          1    1    6    6  503    0  0.40248436824E+02  0.93005517470E+01  0.34876059658E+01  0.41456004691E+02  0.00000000000E+00 0. -1.
         -1    1    6    6    0  503  0.42251011300E+03  0.26878263993E+02  0.35045626995E+03  0.54959697398E+03  0.00000000000E+00 0.  1.
<mgrwt>
<rscale>  0 0.13578452E+04</rscale>
<asrwt>0</asrwt>
<pdfrwt beam="1">  1        1 0.24483106E+00 0.13578452E+04</pdfrwt>
<pdfrwt beam="2">  1       -1 0.44560215E-01 0.13578452E+04</pdfrwt>
<totfact> 0.27601572E+01</totfact>
</mgrwt>
</event>
<event>
12    2  0.3555611E-008  0.2443831E+04  0.7818608E-02  0.8423274E-01
         -2   -1    0    0    0  501 -0.00000000000E+00  0.00000000000E+00  0.99629815998E+03  0.99629815998E+03  0.00000000000E+00 0.  1.
          2   -1    0    0  501    0  0.00000000000E+00 -0.00000000000E+00 -0.14986246686E+04  0.14986246686E+04  0.00000000000E+00 0. -1.
         23    2    1    2    0    0  0.35032772676E+03  0.11334750667E+03 -0.12199603200E+04  0.12775068230E+04  0.90240384507E+02 0.  0.
        254    2    1    2    0    0 -0.35032772676E+03 -0.11334750667E+03  0.71763381147E+03  0.12174160055E+04  0.91188062252E+03 0.  0.
         23    2    4    4    0    0 -0.51326579731E+02  0.29102330329E+03 -0.31193690891E+02  0.31077960522E+03  0.91005141736E+02 0.  0.
         23    2    4    4    0    0 -0.29900114703E+03 -0.40437080996E+03  0.74882750236E+03  0.90663640030E+03  0.91266073555E+02 0.  0.
          4    1    3    3  502    0  0.27278691897E+03  0.46681672400E+02 -0.90326109731E+03  0.94470762229E+03  0.00000000000E+00 0. -1.
         -4    1    3    3    0  502  0.77540807791E+02  0.66665834268E+02 -0.31669922274E+03  0.33279920074E+03  0.00000000000E+00 0.  1.
         11    1    5    5    0    0  0.31822148576E+01  0.21522548519E+03 -0.12849441206E+02  0.21563219636E+03  0.00000000000E+00 0. -1.
        -11    1    5    5    0    0 -0.54508794589E+02  0.75797818105E+02 -0.18344249685E+02  0.95147408864E+02  0.00000000000E+00 0.  1.
          2    1    6    6  503    0 -0.10959168817E+03 -0.21942824058E+03  0.39022093042E+03  0.46090288068E+03  0.00000000000E+00 0. -1.
         -2    1    6    6    0  503 -0.18940945886E+03 -0.18494256939E+03  0.35860657194E+03  0.44573351962E+03  0.00000000000E+00 0.  1.
<mgrwt>
<rscale>  0 0.24438306E+04</rscale>
<asrwt>0</asrwt>
<pdfrwt beam="1">  1        2 0.23055764E+00 0.24438306E+04</pdfrwt>
<pdfrwt beam="2">  1       -2 0.15327664E+00 0.24438306E+04</pdfrwt>
<totfact> 0.32235249E+00</totfact>
</mgrwt>
</event>
<event>
12    2  0.3555611E-008  0.1629053E+04  0.7818608E-02  0.8802896E-01
          2   -1    0    0  501    0  0.00000000000E+00  0.00000000000E+00  0.22401613602E+04  0.22401613602E+04  0.00000000000E+00 0. -1.
         -2   -1    0    0    0  501 -0.00000000000E+00 -0.00000000000E+00 -0.29616331487E+03  0.29616331487E+03  0.00000000000E+00 0.  1.
         23    2    1    2    0    0  0.48464397528E+03  0.22220648256E+03  0.10557778736E+04  0.11856016695E+04  0.82029852665E+02 0.  0.
        254    2    1    2    0    0 -0.48464397528E+03 -0.22220648256E+03  0.88822017171E+03  0.13507230055E+04  0.86675374854E+03 0.  0.
         23    2    4    4    0    0 -0.53515098933E+03 -0.21407525251E+03  0.10244276392E+04  0.11791916954E+04  0.93948237740E+02 0.  0.
         23    2    4    4    0    0  0.50507014054E+02 -0.81312300472E+01 -0.13620746753E+03  0.17153131013E+03  0.90848449480E+02 0.  0.
          3    1    3    3  502    0  0.24738811932E+03  0.12688244428E+03  0.46355664784E+03  0.54054121212E+03  0.00000000000E+00 0. -1.
         -3    1    3    3    0  502  0.23725585596E+03  0.95324038281E+02  0.59222122578E+03  0.64506045742E+03  0.00000000000E+00 0.  1.
         11    1    5    5    0    0 -0.42760382508E+03 -0.15026602308E+03  0.72930341369E+03  0.85866662806E+03  0.00000000000E+00 0. -1.
        -11    1    5    5    0    0 -0.10754716425E+03 -0.63809229431E+02  0.29512422555E+03  0.32052506736E+03  0.00000000000E+00 0.  1.
          3    1    6    6  503    0  0.75153570717E+02  0.44754182111E+01 -0.86840055194E+02  0.11493164815E+03  0.00000000000E+00 0. -1.
         -3    1    6    6    0  503 -0.24646556664E+02 -0.12606648258E+02 -0.49367412335E+02  0.56599661981E+02  0.00000000000E+00 0.  1.
<mgrwt>
<rscale>  0 0.16290532E+04</rscale>
<asrwt>0</asrwt>
<pdfrwt beam="1">  1        2 0.34464020E+00 0.16290532E+04</pdfrwt>
<pdfrwt beam="2">  1       -2 0.45563588E-01 0.16290532E+04</pdfrwt>
<totfact> 0.21439214E+01</totfact>
</mgrwt>
</event>
<event>
12    2  0.3555611E-008  0.1350342E+04  0.7818608E-02  0.8990569E-01
         -2   -1    0    0    0  501 -0.00000000000E+00  0.00000000000E+00  0.68976991052E+03  0.68976991052E+03  0.00000000000E+00 0. -1.
          2   -1    0    0  501    0  0.00000000000E+00 -0.00000000000E+00 -0.66088149252E+03  0.66088149252E+03  0.00000000000E+00 0.  1.
         23    2    1    2    0    0 -0.69533387038E+02 -0.14520288172E+03  0.33302206269E+03  0.38093733261E+03  0.91053766341E+02 0.  0.
        254    2    1    2    0    0  0.69533387038E+02  0.14520288172E+03 -0.30413364468E+03  0.96971407043E+03  0.90660318540E+03 0.  0.
         23    2    4    4    0    0 -0.87084980786E+02 -0.27213083122E+03  0.14308345737E+03  0.33172868106E+03  0.89062106865E+02 0.  0.
         23    2    4    4    0    0  0.15661836782E+03  0.41733371295E+03 -0.44721710206E+03  0.63798538937E+03  0.91244065999E+02 0.  0.
          4    1    3    3  502    0 -0.30645229898E+02 -0.60939026841E+02  0.54342364246E+02  0.87211167059E+02  0.00000000000E+00 0.  1.
         -4    1    3    3    0  502 -0.38888157140E+02 -0.84263854880E+02  0.27867969844E+03  0.29372616555E+03  0.00000000000E+00 0. -1.
         11    1    5    5    0    0 -0.43181901186E+02 -0.11126816648E+03  0.10878553343E+03  0.16149171417E+03  0.00000000000E+00 0. -1.
        -11    1    5    5    0    0 -0.43903079600E+02 -0.16086266475E+03  0.34297923942E+02  0.17023696688E+03  0.00000000000E+00 0.  1.
          1    1    6    6  503    0  0.50844866299E+02  0.47136800489E+02 -0.80988753791E+02  0.10661264761E+03  0.00000000000E+00 0. -1.
         -1    1    6    6    0  503  0.10577350152E+03  0.37019691246E+03 -0.36622834827E+03  0.53137274176E+03  0.00000000000E+00 0.  1.
<mgrwt>
<rscale>  0 0.13503424E+04</rscale>
<asrwt>0</asrwt>
<pdfrwt beam="1">  1        2 0.10167408E+00 0.13503424E+04</pdfrwt>
<pdfrwt beam="2">  1       -2 0.10611845E+00 0.13503424E+04</pdfrwt>
<totfact> 0.30831845E+01</totfact>
</mgrwt>
</event>
<event>
12    2  0.3555611E-008  0.1684683E+04  0.7818608E-02  0.8770149E-01
         -2   -1    0    0    0  501 -0.00000000000E+00  0.00000000000E+00  0.12316088198E+04  0.12316088198E+04  0.00000000000E+00 0.  1.
          2   -1    0    0  501    0  0.00000000000E+00 -0.00000000000E+00 -0.57610750411E+03  0.57610750411E+03  0.00000000000E+00 0. -1.
         23    2    1    2    0    0 -0.24298684841E+03 -0.78348885597E+02 -0.30548986795E+03  0.40840419980E+03  0.91042707677E+02 0.  0.
        254    2    1    2    0    0  0.24298684841E+03  0.78348885597E+02  0.96099118359E+03  0.13993121241E+04  0.98457564931E+03 0.  0.
         23    2    4    4    0    0  0.18047370707E+03  0.32739557013E+03  0.10458500494E+04  0.11141639421E+04  0.88319566362E+02 0.  0.
         23    2    4    4    0    0  0.62513141339E+02 -0.24904668454E+03 -0.84858865767E+02  0.28514818197E+03  0.90422976422E+02 0.  0.
          2    1    3    3  502    0 -0.63207048370E+02  0.49048989681E+01 -0.32910851357E+02  0.71430477631E+02  0.00000000000E+00 0.  1.
         -2    1    3    3    0  502 -0.17977980004E+03 -0.83253784565E+02 -0.27257901660E+03  0.33697372217E+03  0.00000000000E+00 0. -1.
         11    1    5    5    0    0  0.18763526850E+03  0.29728266191E+03  0.92919724134E+03  0.99347445280E+03  0.00000000000E+00 0.  1.
        -11    1    5    5    0    0 -0.71615614250E+01  0.30112908221E+02  0.11665280802E+03  0.12068948928E+03  0.00000000000E+00 0. -1.
          3    1    6    6  503    0  0.12619010117E+02 -0.19775806328E+02 -0.39836612350E+02  0.46230699927E+02  0.00000000000E+00 0. -1.
         -3    1    6    6    0  503  0.49894131223E+02 -0.22927087821E+03 -0.45022253417E+02  0.23891748205E+03  0.00000000000E+00 0.  1.
<mgrwt>
<rscale>  0 0.16846829E+04</rscale>
<asrwt>0</asrwt>
<pdfrwt beam="1">  1        2 0.88631924E-01 0.16846829E+04</pdfrwt>
<pdfrwt beam="2">  1       -2 0.18947828E+00 0.16846829E+04</pdfrwt>
<totfact> 0.77466260E+00</totfact>
</mgrwt>
</event>
<event>
12    2  0.3555611E-008  0.1028539E+04  0.7818608E-02  0.9277786E-01
         -1   -1    0    0    0  501 -0.00000000000E+00  0.00000000000E+00  0.66196994159E+03  0.66196994159E+03  0.00000000000E+00 0.  1.
          1   -1    0    0  501    0  0.00000000000E+00 -0.00000000000E+00 -0.39952433105E+03  0.39952433105E+03  0.00000000000E+00 0. -1.
         23    2    1    2    0    0  0.58308829203E+02 -0.32051254792E+01 -0.48316220605E+02  0.11803562274E+03  0.90486234695E+02 0.  0.
        254    2    1    2    0    0 -0.58308829203E+02  0.32051254792E+01  0.31076183115E+03  0.94345864991E+03  0.88889319718E+03 0.  0.
         23    2    4    4    0    0 -0.21947263331E+03 -0.30019832170E+03 -0.10473584838E+03  0.39704001819E+03  0.91563688170E+02 0.  0.
         23    2    4    4    0    0  0.16116380410E+03  0.30340344718E+03  0.41549767952E+03  0.54641863171E+03  0.88924551609E+02 0.  0.
          2    1    3    3  502    0  0.57575853752E+02  0.29136800166E+02 -0.55250822785E+02  0.84950488390E+02  0.00000000000E+00 0. -1.
         -2    1    3    3    0  502  0.73297545170E+00 -0.32341925646E+02  0.69346021804E+01  0.33085134349E+02  0.00000000000E+00 0.  1.
         11    1    5    5    0    0 -0.20686095561E+03 -0.22387561717E+03 -0.73056172444E+02  0.31344688745E+03  0.00000000000E+00 0.  1.
        -11    1    5    5    0    0 -0.12611677699E+02 -0.76322704528E+02 -0.31679675932E+02  0.83593130747E+02  0.00000000000E+00 0. -1.
          1    1    6    6  503    0  0.13500124301E+03  0.28303422455E+03  0.40379425289E+03  0.51125679120E+03  0.00000000000E+00 0. -1.
         -1    1    6    6    0  503  0.26162561089E+02  0.20369222629E+02  0.11703426637E+02  0.35161840513E+02  0.00000000000E+00 0.  1.
<mgrwt>
<rscale>  0 0.10285390E+04</rscale>
<asrwt>0</asrwt>
<pdfrwt beam="1">  1        1 0.61465282E-01 0.10285390E+04</pdfrwt>
<pdfrwt beam="2">  1       -1 0.10184153E+00 0.10285390E+04</pdfrwt>
<totfact> 0.55001700E+01</totfact>
</mgrwt>
</event>
<event>
12    2  0.3555611E-008  0.1797715E+04  0.7818608E-02  0.8707516E-01
          1   -1    0    0  501    0  0.00000000000E+00  0.00000000000E+00  0.17256750859E+04  0.17256750859E+04  0.00000000000E+00 0. -1.
         -1   -1    0    0    0  501 -0.00000000000E+00 -0.00000000000E+00 -0.46819059305E+03  0.46819059305E+03  0.00000000000E+00 0.  1.
         23    2    1    2    0    0 -0.30595993911E+03  0.21562964437E+03 -0.20314885374E+03  0.43559907807E+03  0.91484819361E+02 0.  0.
        254    2    1    2    0    0  0.30595993911E+03 -0.21562964437E+03  0.14606333466E+04  0.17582666009E+04  0.90440258664E+03 0.  0.
         23    2    4    4    0    0 -0.89094333717E+02 -0.42275912858E+03  0.36898539472E+03  0.57554224941E+03  0.91845404004E+02 0.  0.
         23    2    4    4    0    0  0.39505427282E+03  0.20712948421E+03  0.10916479519E+04  0.11827243515E+04  0.90394352845E+02 0.  0.
          1    1    3    3  502    0 -0.11552710947E+03  0.10575743131E+03 -0.39514135420E+02  0.16153177458E+03  0.00000000000E+00 0. -1.
         -1    1    3    3    0  502 -0.19043282964E+03  0.10987221306E+03 -0.16363471832E+03  0.27406730349E+03  0.00000000000E+00 0.  1.
         11    1    5    5    0    0 -0.33701317093E+02 -0.34262132834E+03  0.28636051388E+03  0.44780296707E+03  0.00000000000E+00 0. -1.
        -11    1    5    5    0    0 -0.55393016624E+02 -0.80137800244E+02  0.82624880844E+02  0.12773928234E+03  0.00000000000E+00 0.  1.
          4    1    6    6  503    0  0.26855065466E+03  0.17308938926E+03  0.84613329885E+03  0.90444510624E+03  0.00000000000E+00 0. -1.
         -4    1    6    6    0  503  0.12650361817E+03  0.34040094954E+02  0.24551465304E+03  0.27827924524E+03  0.00000000000E+00 0.  1.
<mgrwt>
<rscale>  0 0.17977150E+04</rscale>
<asrwt>0</asrwt>
<pdfrwt beam="1">  1        1 0.26548847E+00 0.17977150E+04</pdfrwt>
<pdfrwt beam="2">  1       -1 0.72029323E-01 0.17977150E+04</pdfrwt>
<totfact> 0.84023696E+00</totfact>
</mgrwt>
</event>
<event>
12    2  0.3555611E-008  0.1241787E+04  0.7818608E-02  0.9077046E-01
         -1   -1    0    0    0  501 -0.00000000000E+00  0.00000000000E+00  0.20843629785E+03  0.20843629785E+03  0.00000000000E+00 0.  1.
          1   -1    0    0  501    0  0.00000000000E+00 -0.00000000000E+00 -0.18495287190E+04  0.18495287190E+04  0.00000000000E+00 0. -1.
         23    2    1    2    0    0  0.14756132990E+03 -0.97773717918E+02 -0.75910436140E+03  0.78482911125E+03  0.91560124337E+02 0.  0.
        254    2    1    2    0    0 -0.14756132990E+03  0.97773717918E+02 -0.88198805977E+03  0.12731359056E+04  0.90090956851E+03 0.  0.
         23    2    4    4    0    0  0.19204053513E+03 -0.19796855751E+03 -0.73526671920E+03  0.79030021469E+03  0.88804076892E+02 0.  0.
         23    2    4    4    0    0 -0.33960186503E+03  0.29574227543E+03 -0.14672134057E+03  0.48283569094E+03  0.93862838546E+02 0.  0.
          1    1    3    3  502    0  0.15796862090E+03 -0.10052840005E+03 -0.69283610116E+03  0.71769207009E+03  0.00000000000E+00 0. -1.
         -1    1    3    3    0  502 -0.10407290999E+02  0.27546821352E+01 -0.66268260243E+02  0.67137041157E+02  0.00000000000E+00 0.  1.
         11    1    5    5    0    0  0.22615681791E+02 -0.78316707474E+02 -0.18157154624E+03  0.19903065628E+03  0.00000000000E+00 0. -1.
        -11    1    5    5    0    0  0.16942485334E+03 -0.11965185004E+03 -0.55369517296E+03  0.59126955841E+03  0.00000000000E+00 0.  1.
          2    1    6    6  503    0  0.55534056393E+01  0.96782424299E+01 -0.74201419878E+01  0.13400268574E+02  0.00000000000E+00 0. -1.
         -2    1    6    6    0  503 -0.34515527067E+03  0.28606403300E+03 -0.13930119858E+03  0.46943542237E+03  0.00000000000E+00 0.  1.
<mgrwt>
<rscale>  0 0.12417873E+04</rscale>
<asrwt>0</asrwt>
<pdfrwt beam="1">  1        1 0.28454290E+00 0.12417873E+04</pdfrwt>
<pdfrwt beam="2">  1       -1 0.32067121E-01 0.12417873E+04</pdfrwt>
<totfact> 0.33775100E+01</totfact>
</mgrwt>
</event>
<event>
12    2  0.3555611E-008  0.1812286E+04  0.7818608E-02  0.8699793E-01
         -2   -1    0    0    0  501 -0.00000000000E+00  0.00000000000E+00  0.33840129072E+03  0.33840129072E+03  0.00000000000E+00 0.  1.
          2   -1    0    0  501    0  0.00000000000E+00 -0.00000000000E+00 -0.24263935033E+04  0.24263935033E+04  0.00000000000E+00 0. -1.
         23    2    1    2    0    0 -0.20721476170E+03  0.61713340296E+03 -0.10707588023E+04  0.12562370272E+04  0.88405096788E+02 0.  0.
        254    2    1    2    0    0  0.20721476170E+03 -0.61713340296E+03 -0.10172334102E+04  0.15085577668E+04  0.90398624463E+03 0.  0.
         23    2    4    4    0    0 -0.33273896285E+03 -0.19809401564E+03 -0.21955126124E+03  0.45408490459E+03  0.89631957664E+02 0.  0.
         23    2    4    4    0    0  0.53995372455E+03 -0.41903938732E+03 -0.79768214900E+03  0.10544728623E+04  0.92044411068E+02 0.  0.
          1    1    3    3  502    0 -0.16516941300E+03  0.43823207936E+03 -0.69675937165E+03  0.83952481342E+03  0.00000000000E+00 0. -1.
         -1    1    3    3    0  502 -0.42045348701E+02  0.17890132360E+03 -0.37399943068E+03  0.41671221374E+03  0.00000000000E+00 0.  1.
         11    1    5    5    0    0 -0.21634175231E+03 -0.16874507071E+03 -0.17802390302E+03  0.32706446265E+03  0.00000000000E+00 0.  1.
        -11    1    5    5    0    0 -0.11639721054E+03 -0.29348944930E+02 -0.41527358213E+02  0.12702044194E+03  0.00000000000E+00 0. -1.
          4    1    6    6  503    0  0.78071780380E+02 -0.84089804029E+02 -0.92503379372E+02  0.14738783270E+03  0.00000000000E+00 0. -1.
         -4    1    6    6    0  503  0.46188194417E+03 -0.33494958329E+03 -0.70517876963E+03  0.90708502955E+03  0.00000000000E+00 0.  1.
<mgrwt>
<rscale>  0 0.18122855E+04</rscale>
<asrwt>0</asrwt>
<pdfrwt beam="1">  1        2 0.37329131E+00 0.18122855E+04</pdfrwt>
<pdfrwt beam="2">  1       -2 0.52061736E-01 0.18122855E+04</pdfrwt>
<totfact> 0.12623298E+01</totfact>
</mgrwt>
</event>
<event>
12    2  0.3555611E-008  0.1400297E+04  0.7818608E-02  0.8953604E-01
          1   -1    0    0  501    0  0.00000000000E+00  0.00000000000E+00  0.19694459540E+04  0.19694459540E+04  0.00000000000E+00 0. -1.
         -1   -1    0    0    0  501 -0.00000000000E+00 -0.00000000000E+00 -0.24890643055E+03  0.24890643055E+03  0.00000000000E+00 0.  1.
         23    2    1    2    0    0  0.29987397843E+03  0.24948218716E+03  0.56846886688E+03  0.69572381534E+03  0.93322076543E+02 0.  0.
        254    2    1    2    0    0 -0.29987397843E+03 -0.24948218716E+03  0.11520706566E+04  0.15226285692E+04  0.91595043393E+03 0.  0.
         23    2    4    4    0    0 -0.34395320441E+03  0.36431489353E+01  0.17788102336E+02  0.35599088241E+03  0.89977844057E+02 0.  0.
         23    2    4    4    0    0  0.44079225976E+02 -0.25312533610E+03  0.11342825543E+04  0.11666376868E+04  0.91821378094E+02 0.  0.
          2    1    3    3  502    0  0.89252129401E+02  0.27123318320E+02  0.15962356439E+03  0.18488185229E+03  0.00000000000E+00 0. -1.
         -2    1    3    3    0  502  0.21062184903E+03  0.22235886884E+03  0.40884530249E+03  0.51084196305E+03  0.00000000000E+00 0.  1.
         11    1    5    5    0    0 -0.16773561217E+03  0.17121489605E+02 -0.33635082669E+02  0.17192934532E+03  0.00000000000E+00 0.  1.
        -11    1    5    5    0    0 -0.17621759224E+03 -0.13478340670E+02  0.51423185005E+02  0.18406153709E+03  0.00000000000E+00 0. -1.
          4    1    6    6  503    0  0.72189191736E+02 -0.15977714465E+03  0.73747504136E+03  0.75802998093E+03  0.00000000000E+00 0. -1.
         -4    1    6    6    0  503 -0.28109965760E+02 -0.93348191452E+02  0.39680751290E+03  0.40860770590E+03  0.00000000000E+00 0.  1.
<mgrwt>
<rscale>  0 0.14002968E+04</rscale>
<asrwt>0</asrwt>
<pdfrwt beam="1">  1        1 0.30299168E+00 0.14002968E+04</pdfrwt>
<pdfrwt beam="2">  1       -1 0.38293298E-01 0.14002968E+04</pdfrwt>
<totfact> 0.20118628E+01</totfact>
</mgrwt>
</event>
<event>
12    2  0.3555611E-008  0.1554963E+04  0.7818608E-02  0.8848704E-01
          2   -1    0    0  501    0  0.00000000000E+00  0.00000000000E+00  0.19171917771E+04  0.19171917771E+04  0.00000000000E+00 0. -1.
         -2   -1    0    0    0  501 -0.00000000000E+00 -0.00000000000E+00 -0.31529326889E+03  0.31529326889E+03  0.00000000000E+00 0.  1.
         23    2    1    2    0    0 -0.67825425717E+02  0.30967017538E+03  0.11050255078E+04  0.11530338271E+04  0.88936649688E+02 0.  0.
        254    2    1    2    0    0  0.67825425717E+02 -0.30967017538E+03  0.49687300044E+03  0.10794512189E+04  0.90434299331E+03 0.  0.
         23    2    4    4    0    0  0.38839522770E+03 -0.43068584104E+03  0.40454993709E+03  0.71320679326E+03  0.93070574215E+02 0.  0.
         23    2    4    4    0    0 -0.32056980198E+03  0.12101566567E+03  0.92323063350E+02  0.36624442565E+03  0.90562917434E+02 0.  0.
          1    1    3    3  502    0 -0.19671474564E+02  0.13418591493E+03  0.62802963769E+03  0.64250607195E+03  0.00000000000E+00 0. -1.
         -1    1    3    3    0  502 -0.48153951153E+02  0.17548426045E+03  0.47699587013E+03  0.51052775517E+03  0.00000000000E+00 0.  1.
         11    1    5    5    0    0  0.28057822216E+03 -0.33241610682E+03  0.25472780554E+03  0.50409410008E+03  0.00000000000E+00 0.  1.
        -11    1    5    5    0    0  0.10781700554E+03 -0.98269734226E+02  0.14982213155E+03  0.20911269318E+03  0.00000000000E+00 0. -1.
          1    1    6    6  503    0 -0.96907606078E+02  0.11263099691E+02 -0.75070686759E+01  0.97848339846E+02  0.00000000000E+00 0. -1.
         -1    1    6    6    0  503 -0.22366219590E+03  0.10975256598E+03  0.99830132026E+02  0.26839608580E+03  0.00000000000E+00 0.  1.
<mgrwt>
<rscale>  0 0.15549632E+04</rscale>
<asrwt>0</asrwt>
<pdfrwt beam="1">  1        2 0.29495257E+00 0.15549632E+04</pdfrwt>
<pdfrwt beam="2">  1       -2 0.48506658E-01 0.15549632E+04</pdfrwt>
<totfact> 0.28775440E+01</totfact>
</mgrwt>
</event>
<event>
12    2  0.3555611E-008  0.2051246E+04  0.7818608E-02  0.8583029E-01
          1   -1    0    0  501    0  0.00000000000E+00  0.00000000000E+00  0.10361346893E+04  0.10361346893E+04  0.00000000000E+00 0. -1.
         -1   -1    0    0    0  501 -0.00000000000E+00 -0.00000000000E+00 -0.10152179858E+04  0.10152179858E+04  0.00000000000E+00 0.  1.
         23    2    1    2    0    0 -0.59563350976E+03  0.53900405458E+03 -0.19041221869E+03  0.83060424724E+03  0.91334296446E+02 0.  0.
        254    2    1    2    0    0  0.59563350976E+03 -0.53900405458E+03  0.21132892220E+03  0.12207484279E+04  0.89457373206E+03 0.  0.
         23    2    4    4    0    0  0.25417289852E+02 -0.60818880155E+03  0.45898050453E+02  0.61613242772E+03  0.83503775340E+02 0.  0.
         23    2    4    4    0    0  0.57021621991E+03  0.69184746972E+02  0.16543087174E+03  0.60461600020E+03  0.90884914635E+02 0.  0.
          3    1    3    3  502    0 -0.18276497430E+03  0.15507880726E+03 -0.99533414466E+02  0.25953684302E+03  0.00000000000E+00 0. -1.
         -3    1    3    3    0  502 -0.41286853546E+03  0.38392524732E+03 -0.90878804229E+02  0.57106740422E+03  0.00000000000E+00 0.  1.
         11    1    5    5    0    0  0.12761426490E+02 -0.57018260729E+03  0.24814904262E+02  0.57086499204E+03  0.00000000000E+00 0. -1.
        -11    1    5    5    0    0  0.12655863362E+02 -0.38006194254E+02  0.21083146191E+02  0.45267435673E+02  0.00000000000E+00 0.  1.
          1    1    6    6  503    0  0.42844788264E+03  0.62575875430E+02  0.16304469496E+03  0.46267364403E+03  0.00000000000E+00 0. -1.
         -1    1    6    6    0  503  0.14176833727E+03  0.66088715423E+01  0.23861767834E+01  0.14194235617E+03  0.00000000000E+00 0.  1.
<mgrwt>
<rscale>  0 0.20512460E+04</rscale>
<asrwt>0</asrwt>
<pdfrwt beam="1">  1        1 0.15940534E+00 0.20512460E+04</pdfrwt>
<pdfrwt beam="2">  1       -1 0.15618738E+00 0.20512460E+04</pdfrwt>
<totfact> 0.40936520E+00</totfact>
</mgrwt>
</event>
<event>
12    2  0.3555611E-008  0.2426804E+04  0.7818608E-02  0.8429536E-01
          1   -1    0    0  501    0  0.00000000000E+00  0.00000000000E+00  0.93240420924E+03  0.93240420924E+03  0.00000000000E+00 0. -1.
         -1   -1    0    0    0  501 -0.00000000000E+00 -0.00000000000E+00 -0.15790837462E+04  0.15790837462E+04  0.00000000000E+00 0.  1.
         23    2    1    2    0    0  0.97925412010E+03  0.30614957508E+03 -0.51965844681E+03  0.11537358955E+04  0.91626530586E+02 0.  0.
        254    2    1    2    0    0 -0.97925412010E+03 -0.30614957508E+03 -0.12702109013E+03  0.13577520600E+04  0.88016481690E+03 0.  0.
         23    2    4    4    0    0 -0.10789292546E+04 -0.34818082904E+03 -0.25651712476E+03  0.11657631545E+04  0.88794544229E+02 0.  0.
         23    2    4    4    0    0  0.99675134477E+02  0.42031253961E+02  0.12949603463E+03  0.19198890542E+03  0.91590163641E+02 0.  0.
          1    1    3    3  502    0  0.88715444990E+03  0.30426775463E+03 -0.47720147553E+03  0.10523037265E+04  0.00000000000E+00 0. -1.
         -1    1    3    3    0  502  0.92099670201E+02  0.18818204470E+01 -0.42456971286E+02  0.10143216901E+03  0.00000000000E+00 0.  1.
         11    1    5    5    0    0 -0.24381339706E+03 -0.79665279999E+02 -0.20341001779E+02  0.25730387828E+03  0.00000000000E+00 0.  1.
        -11    1    5    5    0    0 -0.83511585751E+03 -0.26851554904E+03 -0.23617612298E+03  0.90845927625E+03  0.00000000000E+00 0. -1.
          4    1    6    6  503    0  0.35052299190E+02  0.31708387337E+02  0.41666969466E+00  0.47267950237E+02  0.00000000000E+00 0.  1.
         -4    1    6    6    0  503  0.64622835286E+02  0.10322866624E+02  0.12907936494E+03  0.14472095518E+03  0.00000000000E+00 0. -1.
<mgrwt>
<rscale>  0 0.24268039E+04</rscale>
<asrwt>0</asrwt>
<pdfrwt beam="1">  1        1 0.14344680E+00 0.24268039E+04</pdfrwt>
<pdfrwt beam="2">  1       -1 0.24293596E+00 0.24268039E+04</pdfrwt>
<totfact> 0.11872284E+00</totfact>
</mgrwt>
</event>
<event>
12    2  0.3555611E-008  0.2488351E+04  0.7818608E-02  0.8407147E-01
          2   -1    0    0  501    0  0.00000000000E+00  0.00000000000E+00  0.10946364817E+04  0.10946364817E+04  0.00000000000E+00 0. -1.
         -2   -1    0    0    0  501 -0.00000000000E+00 -0.00000000000E+00 -0.14141430098E+04  0.14141430098E+04  0.00000000000E+00 0.  1.
         23    2    1    2    0    0 -0.70720332708E+02 -0.72182943148E+03  0.66647831590E+03  0.98942633229E+03  0.93445320189E+02 0.  0.
        254    2    1    2    0    0  0.70720332708E+02  0.72182943148E+03 -0.98598484401E+03  0.15193531592E+04  0.90012711115E+03 0.  0.
         23    2    4    4    0    0 -0.24370559929E+03  0.24720827129E+03  0.20243744542E+02  0.35965986274E+03  0.91875236913E+02 0.  0.
         23    2    4    4    0    0  0.31442593199E+03  0.47462116019E+03 -0.10062285885E+04  0.11596932965E+04  0.90904659312E+02 0.  0.
          3    1    3    3  502    0 -0.28325013978E+02 -0.62396345015E+03  0.57185907809E+03  0.84685034022E+03  0.00000000000E+00 0. -1.
         -3    1    3    3    0  502 -0.42395318730E+02 -0.97865981324E+02  0.94619237812E+02  0.14257599207E+03  0.00000000000E+00 0.  1.
         11    1    5    5    0    0 -0.14597332571E+02  0.37060654306E+02 -0.22655341883E+02  0.45823997334E+02  0.00000000000E+00 0.  1.
        -11    1    5    5    0    0 -0.22910826671E+03  0.21014761698E+03  0.42899086425E+02  0.31383586541E+03  0.00000000000E+00 0. -1.
          2    1    6    6  503    0  0.23287987081E+03  0.35769775529E+03 -0.66886591537E+03  0.79344963994E+03  0.00000000000E+00 0. -1.
         -2    1    6    6    0  503  0.81546061183E+02  0.11692340490E+03 -0.33736267317E+03  0.36624365654E+03  0.00000000000E+00 0.  1.
<mgrwt>
<rscale>  0 0.24883509E+04</rscale>
<asrwt>0</asrwt>
<pdfrwt beam="1">  1        2 0.16840561E+00 0.24883509E+04</pdfrwt>
<pdfrwt beam="2">  1       -2 0.21756046E+00 0.24883509E+04</pdfrwt>
<totfact> 0.20071429E+00</totfact>
</mgrwt>
</event>
<event>
12    2  0.3555611E-008  0.1610233E+04  0.7818608E-02  0.8814286E-01
          2   -1    0    0  501    0  0.00000000000E+00  0.00000000000E+00  0.14042995587E+04  0.14042995587E+04  0.00000000000E+00 0.  1.
         -2   -1    0    0    0  501 -0.00000000000E+00 -0.00000000000E+00 -0.46159156431E+03  0.46159156431E+03  0.00000000000E+00 0. -1.
         23    2    1    2    0    0  0.21538297390E+03  0.15027410616E+03 -0.22550086314E+03  0.36090962701E+03  0.10214199510E+03 0.  0.
        254    2    1    2    0    0 -0.21538297390E+03 -0.15027410616E+03  0.11682088576E+04  0.15049814960E+04  0.91174845001E+03 0.  0.
         23    2    4    4    0    0  0.25767020415E+03  0.21000025796E+03  0.48175352388E+03  0.59201785733E+03  0.88908060309E+02 0.  0.
         23    2    4    4    0    0 -0.47305317805E+03 -0.36027436412E+03  0.68645533370E+03  0.91296363871E+03  0.93299269776E+02 0.  0.
          3    1    3    3  502    0  0.19385887383E+03  0.11885484510E+03 -0.22892941078E+03  0.32267074904E+03  0.00000000000E+00 0. -1.
         -3    1    3    3    0  502  0.21524100072E+02  0.31419261061E+02  0.34285476403E+01  0.38238877970E+02  0.00000000000E+00 0.  1.
         11    1    5    5    0    0  0.64725904248E+02  0.26618696865E+02  0.54824581098E+02  0.88902938063E+02  0.00000000000E+00 0. -1.
        -11    1    5    5    0    0  0.19294429990E+03  0.18338156109E+03  0.42692894278E+03  0.50311491927E+03  0.00000000000E+00 0.  1.
          4    1    6    6  503    0 -0.24528015247E+02 -0.20411039416E+02  0.10884268751E+02  0.33715002124E+02  0.00000000000E+00 0. -1.
         -4    1    6    6    0  503 -0.44852516280E+03 -0.33986332470E+03  0.67557106495E+03  0.87924863658E+03  0.00000000000E+00 0.  1.
<mgrwt>
<rscale>  0 0.16102333E+04</rscale>
<asrwt>0</asrwt>
<pdfrwt beam="1">  1        2 0.21604608E+00 0.16102333E+04</pdfrwt>
<pdfrwt beam="2">  1       -2 0.71014087E-01 0.16102333E+04</pdfrwt>
<totfact> 0.24833804E+01</totfact>
</mgrwt>
</event>
<event>
12    2  0.3555611E-008  0.1914375E+04  0.7818608E-02  0.8647734E-01
         -2   -1    0    0    0  501 -0.00000000000E+00  0.00000000000E+00  0.80450386141E+03  0.80450386141E+03  0.00000000000E+00 0. -1.
          2   -1    0    0  501    0  0.00000000000E+00 -0.00000000000E+00 -0.11388484200E+04  0.11388484200E+04  0.00000000000E+00 0.  1.
         23    2    1    2    0    0  0.61914550340E+03  0.41633643527E+03 -0.11650172842E+03  0.76062902029E+03  0.91140946162E+02 0.  0.
        254    2    1    2    0    0 -0.61914550340E+03 -0.41633643527E+03 -0.21784283021E+03  0.11827232612E+04  0.89146039290E+03 0.  0.
         23    2    4    4    0    0 -0.14710454140E+03 -0.11960294385E+03 -0.50644951895E+03  0.54838683611E+03  0.91062596590E+02 0.  0.
         23    2    4    4    0    0 -0.47204096201E+03 -0.29673349142E+03  0.28860668875E+03  0.63433642505E+03  0.90639089866E+02 0.  0.
          1    1    3    3  502    0  0.24911158913E+03  0.21052721935E+03 -0.78767065572E+02  0.33553322421E+03  0.00000000000E+00 0. -1.
         -1    1    3    3    0  502  0.37003391427E+03  0.20580921591E+03 -0.37734662845E+02  0.42509579608E+03  0.00000000000E+00 0.  1.
         11    1    5    5    0    0 -0.22519730289E+02 -0.63428497593E+02 -0.10909579925E+03  0.12818816627E+03  0.00000000000E+00 0. -1.
        -11    1    5    5    0    0 -0.12458481111E+03 -0.56174446253E+02 -0.39735371971E+03  0.42019866984E+03  0.00000000000E+00 0.  1.
          1    1    6    6  503    0 -0.10784122124E+03 -0.35917496582E+02  0.86809379043E+02  0.14302329827E+03  0.00000000000E+00 0. -1.
         -1    1    6    6    0  503 -0.36419974077E+03 -0.26081599484E+03  0.20179730970E+03  0.49131312678E+03  0.00000000000E+00 0.  1.
<mgrwt>
<rscale>  0 0.19143750E+04</rscale>
<asrwt>0</asrwt>
<pdfrwt beam="1">  1        2 0.17520745E+00 0.19143750E+04</pdfrwt>
<pdfrwt beam="2">  1       -2 0.12376983E+00 0.19143750E+04</pdfrwt>
<totfact> 0.94836919E+00</totfact>
</mgrwt>
</event>
<event>
12    2  0.3555611E-008  0.1411213E+04  0.7818608E-02  0.8945742E-01
          1   -1    0    0  501    0  0.00000000000E+00  0.00000000000E+00  0.10893933674E+04  0.10893933674E+04  0.00000000000E+00 0. -1.
         -1   -1    0    0    0  501 -0.00000000000E+00 -0.00000000000E+00 -0.45702552787E+03  0.45702552787E+03  0.00000000000E+00 0.  1.
         23    2    1    2    0    0  0.85413307972E+02 -0.71459817243E+01  0.62900770834E+03  0.64105850388E+03  0.89212162848E+02 0.  0.
        254    2    1    2    0    0 -0.85413307972E+02  0.71459817243E+01  0.33601311550E+01  0.90536039137E+03  0.90128777288E+03 0.  0.
         23    2    4    4    0    0  0.53864725931E+02  0.40789990107E+03 -0.14698059289E+03  0.44636596726E+03  0.91408665089E+02 0.  0.
         23    2    4    4    0    0 -0.13927803390E+03 -0.40075391934E+03  0.15034072404E+03  0.45899442411E+03  0.89841379432E+02 0.  0.
          4    1    3    3  502    0  0.95292256256E+02  0.13257217647E+02  0.56550831271E+03  0.57363404681E+03  0.00000000000E+00 0. -1.
         -4    1    3    3    0  502 -0.98789482841E+01 -0.20403199371E+02  0.63499395636E+02  0.67424457061E+02  0.00000000000E+00 0.  1.
         11    1    5    5    0    0  0.76944810225E+02  0.34467987885E+03 -0.13454925054E+03  0.37792621440E+03  0.00000000000E+00 0. -1.
        -11    1    5    5    0    0 -0.23080084293E+02  0.63220022215E+02 -0.12431342347E+02  0.68439752866E+02  0.00000000000E+00 0.  1.
          3    1    6    6  503    0 -0.92367929651E+02 -0.34693186155E+03  0.10362557479E+03  0.37367340116E+03  0.00000000000E+00 0. -1.
         -3    1    6    6    0  503 -0.46910104252E+02 -0.53822057791E+02  0.46715149257E+02  0.85321022942E+02  0.00000000000E+00 0.  1.
<mgrwt>
<rscale>  0 0.14112131E+04</rscale>
<asrwt>0</asrwt>
<pdfrwt beam="1">  1        1 0.16759898E+00 0.14112131E+04</pdfrwt>
<pdfrwt beam="2">  1       -1 0.70311620E-01 0.14112131E+04</pdfrwt>
<totfact> 0.25725683E+01</totfact>
</mgrwt>
</event>
<event>
12    2  0.3555611E-008  0.1316282E+04  0.7818608E-02  0.9016752E-01
         -2   -1    0    0    0  501 -0.00000000000E+00  0.00000000000E+00  0.72804191569E+03  0.72804191569E+03  0.00000000000E+00 0.  1.
          2   -1    0    0  501    0  0.00000000000E+00 -0.00000000000E+00 -0.59495178827E+03  0.59495178827E+03  0.00000000000E+00 0. -1.
         23    2    1    2    0    0 -0.23506985048E+03  0.23072855184E+02 -0.21110414715E+03  0.32990338685E+03  0.92092846985E+02 0.  0.
        254    2    1    2    0    0  0.23506985048E+03 -0.23072855184E+02  0.34419427457E+03  0.99309031711E+03  0.90109294084E+03 0.  0.
         23    2    4    4    0    0 -0.27850784748E+03  0.19876741861E+03  0.58864850152E+02  0.35876616588E+03  0.90404554049E+02 0.  0.
         23    2    4    4    0    0  0.51357769795E+03 -0.22184027380E+03  0.28532942442E+03  0.63432415122E+03  0.89325749207E+02 0.  0.
          4    1    3    3  502    0 -0.34763184692E+02 -0.27787906221E+02 -0.55889007689E+02  0.71443879532E+02  0.00000000000E+00 0. -1.
         -4    1    3    3    0  502 -0.20030666578E+03  0.50860761405E+02 -0.15521513946E+03  0.25845950732E+03  0.00000000000E+00 0.  1.
         11    1    5    5    0    0 -0.16715953166E+03  0.11959813707E+03 -0.99719406866E+01  0.20578013270E+03  0.00000000000E+00 0.  1.
        -11    1    5    5    0    0 -0.11134831581E+03  0.79169281545E+02  0.68836790838E+02  0.15298603318E+03  0.00000000000E+00 0. -1.
          3    1    6    6  503    0  0.13685014717E+02 -0.14591097538E+02 -0.44157758900E+01  0.20486064333E+02  0.00000000000E+00 0. -1.
         -3    1    6    6    0  503  0.49989268323E+03 -0.20724917626E+03  0.28974520031E+03  0.61383808689E+03  0.00000000000E+00 0.  1.
<mgrwt>
<rscale>  0 0.13162824E+04</rscale>
<asrwt>0</asrwt>
<pdfrwt beam="1">  1        2 0.91531045E-01 0.13162824E+04</pdfrwt>
<pdfrwt beam="2">  1       -2 0.11200645E+00 0.13162824E+04</pdfrwt>
<totfact> 0.30847375E+01</totfact>
</mgrwt>
</event>
<event>
12    2  0.3555611E-008  0.1757386E+04  0.7818608E-02  0.8729295E-01
         -1   -1    0    0    0  501 -0.00000000000E+00  0.00000000000E+00  0.74800516001E+03  0.74800516001E+03  0.00000000000E+00 0.  1.
          1   -1    0    0  501    0  0.00000000000E+00 -0.00000000000E+00 -0.10322138438E+04  0.10322138438E+04  0.00000000000E+00 0. -1.
         23    2    1    2    0    0 -0.46720973936E+03  0.16718434727E+03 -0.51126909013E+03  0.71824769936E+03  0.90819208266E+02 0.  0.
        254    2    1    2    0    0  0.46720973936E+03 -0.16718434727E+03  0.22706040637E+03  0.10619713044E+04  0.91103846063E+03 0.  0.
         23    2    4    4    0    0  0.62585662551E+03  0.14182747922E+03  0.26758331463E+03  0.70020398187E+03  0.82904984238E+02 0.  0.
         23    2    4    4    0    0 -0.15864688615E+03 -0.30901182648E+03 -0.40522908257E+02  0.36176732254E+03  0.92608564269E+02 0.  0.
          3    1    3    3  502    0 -0.32167319947E+03  0.14971779587E+03 -0.39656745543E+03  0.53212292975E+03  0.00000000000E+00 0. -1.
         -3    1    3    3    0  502 -0.14553653988E+03  0.17466551398E+02 -0.11470163470E+03  0.18612476961E+03  0.00000000000E+00 0.  1.
         11    1    5    5    0    0  0.27944544343E+03  0.35366909015E+02  0.83861271416E+02  0.29389332580E+03  0.00000000000E+00 0. -1.
        -11    1    5    5    0    0  0.34641118208E+03  0.10646057020E+03  0.18372204321E+03  0.40631065607E+03  0.00000000000E+00 0.  1.
          1    1    6    6  503    0 -0.90413145856E+02 -0.95509473682E+02 -0.40551977028E+02  0.13762652124E+03  0.00000000000E+00 0. -1.
         -1    1    6    6    0  503 -0.68233740292E+02 -0.21350235280E+03  0.29068771853E-01  0.22414080131E+03  0.00000000000E+00 0.  1.
<mgrwt>
<rscale>  0 0.17573859E+04</rscale>
<asrwt>0</asrwt>
<pdfrwt beam="1">  1        1 0.15880213E+00 0.17573859E+04</pdfrwt>
<pdfrwt beam="2">  1       -1 0.11507772E+00 0.17573859E+04</pdfrwt>
<totfact> 0.92709754E+00</totfact>
</mgrwt>
</event>
<event>
12    2  0.3555611E-008  0.1308414E+04  0.7818608E-02  0.9022919E-01
          2   -1    0    0  501    0  0.00000000000E+00  0.00000000000E+00  0.22644762205E+04  0.22644762205E+04  0.00000000000E+00 0. -1.
         -2   -1    0    0    0  501 -0.00000000000E+00 -0.00000000000E+00 -0.18900040393E+03  0.18900040393E+03  0.00000000000E+00 0.  1.
         23    2    1    2    0    0  0.62472138553E+02 -0.29182176192E+03  0.27055523762E+03  0.41372351866E+03  0.94362622205E+02 0.  0.
        254    2    1    2    0    0 -0.62472138553E+02  0.29182176192E+03  0.18049205789E+04  0.20397531057E+04  0.90210405569E+03 0.  0.
         23    2    4    4    0    0  0.39689328608E+03  0.18571550839E+03  0.10941105184E+04  0.11820218183E+04  0.89906741036E+02 0.  0.
         23    2    4    4    0    0 -0.45936542463E+03  0.10610625353E+03  0.71081006055E+03  0.85773128737E+03  0.90426150864E+02 0.  0.
          4    1    3    3  502    0  0.21975522620E+02 -0.83760393148E+02  0.26692239336E+02  0.90615686807E+02  0.00000000000E+00 0. -1.
         -4    1    3    3    0  502  0.40496615933E+02 -0.20806136877E+03  0.24386299828E+03  0.32310783186E+03  0.00000000000E+00 0.  1.
         11    1    5    5    0    0  0.53594388873E+02  0.41380909393E+02  0.10307613476E+03  0.12332650866E+03  0.00000000000E+00 0. -1.
        -11    1    5    5    0    0  0.34329889721E+03  0.14433459899E+03  0.99103438359E+03  0.10586953097E+04  0.00000000000E+00 0.  1.
          3    1    6    6  503    0 -0.13169784146E+03  0.71072355594E+02  0.19857779107E+03  0.24865385635E+03  0.00000000000E+00 0. -1.
         -3    1    6    6    0  503 -0.32766758317E+03  0.35033897935E+02  0.51223226949E+03  0.60907743101E+03  0.00000000000E+00 0.  1.
<mgrwt>
<rscale>  0 0.13084142E+04</rscale>
<asrwt>0</asrwt>
<pdfrwt beam="1">  1        2 0.34838094E+00 0.13084142E+04</pdfrwt>
<pdfrwt beam="2">  1       -2 0.29076987E-01 0.13084142E+04</pdfrwt>
<totfact> 0.50692110E+01</totfact>
</mgrwt>
</event>
<event>
12    2  0.3555611E-008  0.1467156E+04  0.7818608E-02  0.8906592E-01
          3   -1    0    0  501    0  0.00000000000E+00  0.00000000000E+00  0.29994288115E+03  0.29994288115E+03  0.00000000000E+00 0. -1.
         -3   -1    0    0    0  501 -0.00000000000E+00 -0.00000000000E+00 -0.17941316332E+04  0.17941316332E+04  0.00000000000E+00 0.  1.
         23    2    1    2    0    0  0.43798838938E+03 -0.10846904103E+02 -0.47732787210E+03  0.65414953937E+03  0.90101264274E+02 0.  0.
        254    2    1    2    0    0 -0.43798838938E+03  0.10846904103E+02 -0.10168608800E+04  0.14399249750E+04  0.92055765697E+03 0.  0.
         23    2    4    4    0    0 -0.55880325268E+03 -0.20923722935E+03 -0.29755908779E+03  0.67264063573E+03  0.88671984068E+02 0.  0.
         23    2    4    4    0    0  0.12081486329E+03  0.22008413345E+03 -0.71930179217E+03  0.76728433925E+03  0.91087496635E+02 0.  0.
          3    1    3    3  502    0  0.33883157639E+03 -0.72300193562E+01 -0.41953633832E+03  0.53932351099E+03  0.00000000000E+00 0. -1.
         -3    1    3    3    0  502  0.99156812995E+02 -0.36168847464E+01 -0.57791533779E+02  0.11482602839E+03  0.00000000000E+00 0.  1.
         11    1    5    5    0    0 -0.51768618019E+03 -0.19785882857E+03 -0.29945364706E+03  0.62993617449E+03  0.00000000000E+00 0.  1.
        -11    1    5    5    0    0 -0.41117072490E+02 -0.11378400783E+02  0.18945592699E+01  0.42704461235E+02  0.00000000000E+00 0. -1.
          4    1    6    6  503    0  0.19420033554E+02  0.98838054841E+02 -0.19219674147E+03  0.21699236443E+03  0.00000000000E+00 0. -1.
         -4    1    6    6    0  503  0.10139482974E+03  0.12124607861E+03 -0.52710505070E+03  0.55029197482E+03  0.00000000000E+00 0.  1.
<mgrwt>
<rscale>  0 0.14671564E+04</rscale>
<asrwt>0</asrwt>
<pdfrwt beam="1">  1        3 0.46145059E-01 0.14671564E+04</pdfrwt>
<pdfrwt beam="2">  1       -3 0.27602025E+00 0.14671564E+04</pdfrwt>
<totfact> 0.61685220E-01</totfact>
</mgrwt>
</event>
<event>
12    2  0.3555611E-008  0.1219527E+04  0.7818608E-02  0.9095934E-01
         -2   -1    0    0    0  501 -0.00000000000E+00  0.00000000000E+00  0.33047348329E+03  0.33047348329E+03  0.00000000000E+00 0.  1.
          2   -1    0    0  501    0  0.00000000000E+00 -0.00000000000E+00 -0.11250881926E+04  0.11250881926E+04  0.00000000000E+00 0. -1.
         23    2    1    2    0    0 -0.67931810588E+01  0.21034421776E+03 -0.22873859543E+01  0.23023662984E+03  0.93342575128E+02 0.  0.
        254    2    1    2    0    0  0.67931810588E+01 -0.21034421776E+03 -0.79232732332E+03  0.12253250460E+04  0.91068548020E+03 0.  0.
         23    2    4    4    0    0 -0.68958373390E+02 -0.47295018782E+03 -0.13161138825E+03  0.50431223916E+03  0.92585850023E+02 0.  0.
         23    2    4    4    0    0  0.75751554449E+02  0.26260597007E+03 -0.66071593507E+03  0.72101280685E+03  0.92810167916E+02 0.  0.
          4    1    3    3  502    0 -0.30933049260E+02  0.20004265557E+03  0.65970683361E+01  0.20252762501E+03  0.00000000000E+00 0. -1.
         -4    1    3    3    0  502  0.24139868201E+02  0.10301562191E+02 -0.88844542903E+01  0.27709004825E+02  0.00000000000E+00 0.  1.
         11    1    5    5    0    0 -0.22618573345E+02 -0.35358989372E+03 -0.12633969148E+03  0.37616370166E+03  0.00000000000E+00 0.  1.
        -11    1    5    5    0    0 -0.46339800046E+02 -0.11936029410E+03 -0.52716967698E+01  0.12814853750E+03  0.00000000000E+00 0. -1.
          1    1    6    6  503    0 -0.16834215250E+02  0.11164227089E+02 -0.58129256289E+02  0.61538940569E+02  0.00000000000E+00 0. -1.
         -1    1    6    6    0  503  0.92585769699E+02  0.25144174298E+03 -0.60258667878E+03  0.65947386628E+03  0.00000000000E+00 0.  1.
<mgrwt>
<rscale>  0 0.12195275E+04</rscale>
<asrwt>0</asrwt>
<pdfrwt beam="1">  1        2 0.17309049E+00 0.12195275E+04</pdfrwt>
<pdfrwt beam="2">  1       -2 0.50842075E-01 0.12195275E+04</pdfrwt>
<totfact> 0.75760037E+01</totfact>
</mgrwt>
</event>
<event>
12    2  0.3555611E-008  0.1814403E+04  0.7818608E-02  0.8698677E-01
         -1   -1    0    0    0  501 -0.00000000000E+00  0.00000000000E+00  0.70400534824E+03  0.70400534824E+03  0.00000000000E+00 0.  1.
          1   -1    0    0  501    0  0.00000000000E+00 -0.00000000000E+00 -0.11690460685E+04  0.11690460685E+04  0.00000000000E+00 0. -1.
         23    2    1    2    0    0  0.38522371215E+03  0.41382786924E+03  0.16898568639E+03  0.59567619093E+03  0.81382728381E+02 0.  0.
        254    2    1    2    0    0 -0.38522371215E+03 -0.41382786924E+03 -0.63402640665E+03  0.12773752258E+04  0.95396392458E+03 0.  0.
         23    2    4    4    0    0 -0.44855821397E+03 -0.35411765153E+03 -0.84920963548E+03  0.10275527916E+04  0.90021953653E+02 0.  0.
         23    2    4    4    0    0  0.63334501816E+02 -0.59710217703E+02  0.21518322884E+03  0.24982243417E+03  0.92362640845E+02 0.  0.
          3    1    3    3  502    0  0.10672362365E+02  0.32884632365E+02  0.24099041320E+02  0.42143352462E+02  0.00000000000E+00 0. -1.
         -3    1    3    3    0  502  0.37455134979E+03  0.38094323687E+03  0.14488664507E+03  0.55353283847E+03  0.00000000000E+00 0.  1.
         11    1    5    5    0    0 -0.29978912245E+03 -0.18565703662E+03 -0.55012443452E+03  0.65343626058E+03  0.00000000000E+00 0. -1.
        -11    1    5    5    0    0 -0.14876909152E+03 -0.16846061491E+03 -0.29908520096E+03  0.37411653105E+03  0.00000000000E+00 0.  1.
          3    1    6    6  503    0  0.71479510062E+02 -0.53340805604E+02  0.22074499795E+03  0.23808174230E+03  0.00000000000E+00 0. -1.
         -3    1    6    6    0  503 -0.81450082461E+01 -0.63694120993E+01 -0.55617691100E+01  0.11740691864E+02  0.00000000000E+00 0.  1.
<mgrwt>
<rscale>  0 0.18144031E+04</rscale>
<asrwt>0</asrwt>
<pdfrwt beam="1">  1        1 0.17985324E+00 0.18144031E+04</pdfrwt>
<pdfrwt beam="2">  1       -1 0.10830852E+00 0.18144031E+04</pdfrwt>
<totfact> 0.84023261E+00</totfact>
</mgrwt>
</event>
<event>
12    2  0.3555611E-008  0.4318263E+04  0.7818608E-02  0.7943250E-01
          2   -1    0    0  501    0  0.00000000000E+00  0.00000000000E+00  0.22059521390E+04  0.22059521390E+04  0.00000000000E+00 0. -1.
         -2   -1    0    0    0  501 -0.00000000000E+00 -0.00000000000E+00 -0.21133046529E+04  0.21133046529E+04  0.00000000000E+00 0.  1.
         23    2    1    2    0    0 -0.18880099880E+04 -0.74910924636E+03 -0.32535779779E+03  0.20591412524E+04  0.91970772189E+02 0.  0.
        254    2    1    2    0    0  0.18880099880E+04  0.74910924636E+03  0.41800528382E+03  0.22601155395E+04  0.89869208121E+03 0.  0.
         23    2    4    4    0    0  0.64723023993E+03  0.26095022101E+03 -0.27300711272E+03  0.75508654043E+03  0.92848255914E+02 0.  0.
         23    2    4    4    0    0  0.12407797481E+04  0.48815902534E+03  0.69101239654E+03  0.15050289991E+04  0.98896605645E+02 0.  0.
          3    1    3    3  502    0 -0.87108570202E+03 -0.32571734096E+03 -0.19141828068E+03  0.94948567374E+03  0.00000000000E+00 0. -1.
         -3    1    3    3    0  502 -0.10169242860E+04 -0.42339190540E+03 -0.13393951711E+03  0.11096555786E+04  0.00000000000E+00 0.  1.
         11    1    5    5    0    0  0.41720456800E+03  0.12065915120E+03 -0.15827275392E+03  0.46224295231E+03  0.00000000000E+00 0. -1.
        -11    1    5    5    0    0  0.23002567192E+03  0.14029106981E+03 -0.11473435880E+03  0.29284358812E+03  0.00000000000E+00 0.  1.
          3    1    6    6  503    0  0.61208924195E+03  0.29349766692E+03  0.35805745666E+03  0.76746287393E+03  0.00000000000E+00 0. -1.
         -3    1    6    6    0  503  0.62869050612E+03  0.19466135842E+03  0.33295493989E+03  0.73756612513E+03  0.00000000000E+00 0.  1.
<mgrwt>
<rscale>  0 0.43182630E+04</rscale>
<asrwt>0</asrwt>
<pdfrwt beam="1">  1        2 0.33937725E+00 0.43182630E+04</pdfrwt>
<pdfrwt beam="2">  1       -2 0.32512379E+00 0.43182630E+04</pdfrwt>
<totfact> 0.87691885E-02</totfact>
</mgrwt>
</event>
<event>
12    2  0.3555611E-008  0.2038270E+04  0.7818608E-02  0.8588934E-01
          2   -1    0    0  501    0  0.00000000000E+00  0.00000000000E+00  0.13918099505E+04  0.13918099505E+04  0.00000000000E+00 0. -1.
         -2   -1    0    0    0  501 -0.00000000000E+00 -0.00000000000E+00 -0.74624862703E+03  0.74624862703E+03  0.00000000000E+00 0.  1.
         23    2    1    2    0    0  0.66574839574E+03 -0.27072017573E+03  0.67971145514E+03  0.99271689245E+03  0.83479496518E+02 0.  0.
        254    2    1    2    0    0 -0.66574839574E+03  0.27072017573E+03 -0.34150131663E+02  0.11453416851E+04  0.89114028308E+03 0.  0.
         23    2    4    4    0    0 -0.66996569839E+03 -0.44399517296E+02  0.23488333045E+03  0.71850434675E+03  0.10125691687E+03 0.  0.
         23    2    4    4    0    0  0.42173026524E+01  0.31511969303E+03 -0.26903346211E+03  0.42683733834E+03  0.10243487240E+03 0.  0.
          2    1    3    3  502    0  0.65613034956E+03 -0.26710542430E+03  0.68063146361E+03  0.98240090215E+03  0.00000000000E+00 0. -1.
         -2    1    3    3    0  502  0.96180461820E+01 -0.36147514318E+01 -0.92000846951E+00  0.10315990299E+02  0.00000000000E+00 0.  1.
         11    1    5    5    0    0 -0.29644972649E+03 -0.69875035561E+02  0.11051199980E+03  0.32400287503E+03  0.00000000000E+00 0.  1.
        -11    1    5    5    0    0 -0.37351597190E+03  0.25475518265E+02  0.12437133065E+03  0.39450147172E+03  0.00000000000E+00 0. -1.
          4    1    6    6  503    0  0.28676523969E+02  0.40608469400E+02 -0.74241520600E+02  0.89348722402E+02  0.00000000000E+00 0. -1.
         -4    1    6    6    0  503 -0.24459221317E+02  0.27451122363E+03 -0.19479194151E+03  0.33748861593E+03  0.00000000000E+00 0.  1.
<mgrwt>
<rscale>  0 0.20382701E+04</rscale>
<asrwt>0</asrwt>
<pdfrwt beam="1">  1        2 0.21412461E+00 0.20382701E+04</pdfrwt>
<pdfrwt beam="2">  1       -2 0.11480748E+00 0.20382701E+04</pdfrwt>
<totfact> 0.80228657E+00</totfact>
</mgrwt>
</event>
<event>
12    2  0.3555611E-008  0.2192285E+04  0.7818608E-02  0.8521646E-01
          1   -1    0    0  501    0  0.00000000000E+00  0.00000000000E+00  0.30261566031E+04  0.30261566031E+04  0.00000000000E+00 0. -1.
         -1   -1    0    0    0  501 -0.00000000000E+00 -0.00000000000E+00 -0.39704760720E+03  0.39704760720E+03  0.00000000000E+00 0.  1.
         23    2    1    2    0    0 -0.84327553132E+03  0.21507480262E+03  0.69711195664E+03  0.11186485726E+04  0.89659112225E+02 0.  0.
        254    2    1    2    0    0  0.84327553132E+03 -0.21507480262E+03  0.19319970393E+04  0.23045556377E+04  0.90608682542E+03 0.  0.
         23    2    4    4    0    0  0.48001313159E+03 -0.37865309154E+03  0.17491443207E+04  0.18551538907E+04  0.91100677177E+02 0.  0.
         23    2    4    4    0    0  0.36326239973E+03  0.16357828892E+03  0.18285271860E+03  0.44940174704E+03  0.99042343874E+02 0.  0.
          1    1    3    3  502    0 -0.75406973863E+03  0.21220996326E+03  0.64885711872E+03  0.10171871999E+04  0.00000000000E+00 0. -1.
         -1    1    3    3    0  502 -0.89205792689E+02  0.28648393581E+01  0.48254837916E+02  0.10146137263E+03  0.00000000000E+00 0.  1.
         11    1    5    5    0    0  0.47686734899E+03 -0.38377353769E+03  0.17331442474E+04  0.18380624524E+04  0.00000000000E+00 0.  1.
        -11    1    5    5    0    0  0.31457825961E+01  0.51204461494E+01  0.16000073293E+02  0.17091438274E+02  0.00000000000E+00 0. -1.
          2    1    6    6  503    0  0.10082722610E+03  0.86892535725E+02  0.31050565930E+02  0.13667691807E+03  0.00000000000E+00 0. -1.
         -2    1    6    6    0  503  0.26243517362E+03  0.76685753196E+02  0.15180215267E+03  0.31272482897E+03  0.00000000000E+00 0.  1.
<mgrwt>
<rscale>  0 0.21922849E+04</rscale>
<asrwt>0</asrwt>
<pdfrwt beam="1">  1        1 0.46556254E+00 0.21922849E+04</pdfrwt>
<pdfrwt beam="2">  1       -1 0.61084249E-01 0.21922849E+04</pdfrwt>
<totfact> 0.14198397E+00</totfact>
</mgrwt>
</event>
<event>
12    2  0.3555611E-008  0.1563483E+04  0.7818608E-02  0.8843301E-01
          1   -1    0    0  501    0  0.00000000000E+00  0.00000000000E+00  0.23121172151E+04  0.23121172151E+04  0.00000000000E+00 0. -1.
         -1   -1    0    0    0  501 -0.00000000000E+00 -0.00000000000E+00 -0.26431183590E+03  0.26431183590E+03  0.00000000000E+00 0.  1.
         23    2    1    2    0    0  0.45695258910E+03 -0.17275693315E+03  0.40584513500E+03  0.64149755893E+03  0.90322853619E+02 0.  0.
        254    2    1    2    0    0 -0.45695258910E+03  0.17275693315E+03  0.16419602442E+04  0.19349314920E+04  0.89959758159E+03 0.  0.
         23    2    4    4    0    0  0.16340866612E+03 -0.16685869084E+02  0.23516462037E+02  0.18903469707E+03  0.90555410216E+02 0.  0.
         23    2    4    4    0    0 -0.62036125522E+03  0.18944280224E+03  0.16184437821E+04  0.17458967950E+04  0.89770153448E+02 0.  0.
          3    1    3    3  502    0  0.10509497106E+01 -0.11537292511E+02  0.26338788551E+01  0.11880695754E+02  0.00000000000E+00 0. -1.
         -3    1    3    3    0  502  0.45590163939E+03 -0.16121964064E+03  0.40321125614E+03  0.62961686318E+03  0.00000000000E+00 0.  1.
         11    1    5    5    0    0  0.15397347727E+03  0.14519714954E+02  0.23514136303E+02  0.15643391074E+03  0.00000000000E+00 0.  1.
        -11    1    5    5    0    0  0.94351888538E+01 -0.31205584038E+02  0.23257349004E-02  0.32600786329E+02  0.00000000000E+00 0. -1.
          4    1    6    6  503    0 -0.40334605982E+03  0.16588055329E+03  0.11073687769E+04  0.11901554562E+04  0.00000000000E+00 0. -1.
         -4    1    6    6    0  503 -0.21701519540E+03  0.23562248944E+02  0.51107500523E+03  0.55574133874E+03  0.00000000000E+00 0.  1.
<mgrwt>
<rscale>  0 0.15634832E+04</rscale>
<asrwt>0</asrwt>
<pdfrwt beam="1">  1        1 0.35571033E+00 0.15634832E+04</pdfrwt>
<pdfrwt beam="2">  1       -1 0.40663361E-01 0.15634832E+04</pdfrwt>
<totfact> 0.10399512E+01</totfact>
</mgrwt>
</event>
<event>
12    2  0.3555611E-008  0.2393227E+04  0.7818608E-02  0.8442043E-01
          1   -1    0    0  501    0  0.00000000000E+00  0.00000000000E+00  0.13361454597E+04  0.13361454597E+04  0.00000000000E+00 0. -1.
         -1   -1    0    0    0  501 -0.00000000000E+00 -0.00000000000E+00 -0.10716531151E+04  0.10716531151E+04  0.00000000000E+00 0.  1.
         23    2    1    2    0    0 -0.51241249132E+03 -0.13988689969E+03  0.99707410795E+03  0.11333962076E+04  0.91078431527E+02 0.  0.
        254    2    1    2    0    0  0.51241249132E+03  0.13988689969E+03 -0.73258176336E+03  0.12744023672E+04  0.89737976776E+03 0.  0.
         23    2    4    4    0    0  0.36578282334E+03  0.20744104388E+03  0.82694361078E+02  0.43834424232E+03  0.92078536499E+02 0.  0.
         23    2    4    4    0    0  0.14662966798E+03 -0.67554144192E+02 -0.81527612444E+03  0.83605812490E+03  0.90852667516E+02 0.  0.
          4    1    3    3  502    0 -0.48888445578E+03 -0.13622087758E+03  0.98149147181E+03  0.11049387530E+04  0.00000000000E+00 0. -1.
         -4    1    3    3    0  502 -0.23528035542E+02 -0.36660221071E+01  0.15582636139E+02  0.28457454623E+02  0.00000000000E+00 0.  1.
         11    1    5    5    0    0  0.35116111303E+03  0.20995670769E+03  0.63428918088E+02  0.41402798704E+03  0.00000000000E+00 0. -1.
        -11    1    5    5    0    0  0.14621710310E+02 -0.25156638119E+01  0.19265442990E+02  0.24316255271E+02  0.00000000000E+00 0.  1.
          3    1    6    6  503    0  0.99960191671E+02 -0.94165177880E+01 -0.59743916546E+03  0.60581702448E+03  0.00000000000E+00 0. -1.
         -3    1    6    6    0  503  0.46669476312E+02 -0.58137626404E+02 -0.21783695898E+03  0.23024110042E+03  0.00000000000E+00 0.  1.
<mgrwt>
<rscale>  0 0.23932275E+04</rscale>
<asrwt>0</asrwt>
<pdfrwt beam="1">  1        1 0.20556084E+00 0.23932275E+04</pdfrwt>
<pdfrwt beam="2">  1       -1 0.16486971E+00 0.23932275E+04</pdfrwt>
<totfact> 0.20530274E+00</totfact>
</mgrwt>
</event>
<event>
12    2  0.3555611E-008  0.1443685E+04  0.7818608E-02  0.8922790E-01
         -2   -1    0    0    0  501 -0.00000000000E+00  0.00000000000E+00  0.50491380275E+03  0.50491380275E+03  0.00000000000E+00 0.  1.
          2   -1    0    0  501    0  0.00000000000E+00 -0.00000000000E+00 -0.10319719701E+04  0.10319719701E+04  0.00000000000E+00 0. -1.
         23    2    1    2    0    0  0.18474947567E+03  0.26351468072E+03 -0.47615549617E+03  0.58167722183E+03  0.89732815312E+02 0.  0.
        254    2    1    2    0    0 -0.18474947567E+03 -0.26351468072E+03 -0.50902671220E+02  0.95520855107E+03  0.89791978393E+03 0.  0.
         23    2    4    4    0    0 -0.81366200665E+02 -0.52214848511E+03  0.19750540907E+03  0.57128855408E+03  0.90015144800E+02 0.  0.
         23    2    4    4    0    0 -0.10338327501E+03  0.25863380439E+03 -0.24840808029E+03  0.38391999699E+03  0.90046895628E+02 0.  0.
          3    1    3    3  502    0  0.12637652680E+03  0.23860591172E+03 -0.37094856290E+03  0.45881003035E+03  0.00000000000E+00 0. -1.
         -3    1    3    3    0  502  0.58372948870E+02  0.24908768999E+02 -0.10520693327E+03  0.12286719147E+03  0.00000000000E+00 0.  1.
         11    1    5    5    0    0 -0.71503281424E+02 -0.40400070936E+03  0.19097756037E+03  0.45255024139E+03  0.00000000000E+00 0. -1.
        -11    1    5    5    0    0 -0.98629192410E+01 -0.11814777575E+03  0.65278486984E+01  0.11873831268E+03  0.00000000000E+00 0.  1.
          4    1    6    6  503    0 -0.82541794964E+02  0.25241521794E+03 -0.24606933728E+03  0.36204517524E+03  0.00000000000E+00 0. -1.
         -4    1    6    6    0  503 -0.20841480045E+02  0.62185864455E+01 -0.23387430123E+01  0.21874821753E+02  0.00000000000E+00 0.  1.
<mgrwt>
<rscale>  0 0.14436854E+04</rscale>
<asrwt>0</asrwt>
<pdfrwt beam="1">  1        2 0.15876492E+00 0.14436854E+04</pdfrwt>
<pdfrwt beam="2">  1       -2 0.77679048E-01 0.14436854E+04</pdfrwt>
<totfact> 0.34437811E+01</totfact>
</mgrwt>
</event>
<event>
12    2  0.3555611E-008  0.1291205E+04  0.7818608E-02  0.9036569E-01
          2   -1    0    0  501    0  0.00000000000E+00  0.00000000000E+00  0.29167462219E+04  0.29167462219E+04  0.00000000000E+00 0. -1.
         -2   -1    0    0    0  501 -0.00000000000E+00 -0.00000000000E+00 -0.14289983396E+03  0.14289983396E+03  0.00000000000E+00 0.  1.
         23    2    1    2    0    0 -0.19081907890E+03  0.17570801228E+03  0.11138363617E+04  0.11470851427E+04  0.88812485167E+02 0.  0.
        254    2    1    2    0    0  0.19081907890E+03 -0.17570801228E+03  0.16600100262E+04  0.19125609131E+04  0.91376732972E+03 0.  0.
         23    2    4    4    0    0 -0.57895002693E+02 -0.93009888571E+02  0.16269560104E+04  0.16331042141E+04  0.89670750004E+02 0.  0.
         23    2    4    4    0    0  0.24871408160E+03 -0.82698123714E+02  0.33054015783E+02  0.27945669907E+03  0.91136187353E+02 0.  0.
          3    1    3    3  502    0 -0.18040731388E+03  0.12032194241E+03  0.92084723125E+03  0.94603583020E+03  0.00000000000E+00 0. -1.
         -3    1    3    3    0  502 -0.10411765020E+02  0.55386069872E+02  0.19298913049E+03  0.20104931254E+03  0.00000000000E+00 0.  1.
         11    1    5    5    0    0 -0.56909706230E+02 -0.98564690636E+02  0.10551852507E+04  0.10613056234E+04  0.00000000000E+00 0. -1.
        -11    1    5    5    0    0 -0.98529646285E+00  0.55548020644E+01  0.57177075975E+03  0.57179859072E+03  0.00000000000E+00 0.  1.
          1    1    6    6  503    0  0.25229659977E+02  0.15033751723E+02  0.19313042051E+02  0.35150291986E+02  0.00000000000E+00 0. -1.
         -1    1    6    6    0  503  0.22348442162E+03 -0.97731875437E+02  0.13740973733E+02  0.24430640708E+03  0.00000000000E+00 0.  1.
<mgrwt>
<rscale>  0 0.12912049E+04</rscale>
<asrwt>0</asrwt>
<pdfrwt beam="1">  1        2 0.44873015E+00 0.12912049E+04</pdfrwt>
<pdfrwt beam="2">  1       -2 0.21984592E-01 0.12912049E+04</pdfrwt>
<totfact> 0.35145327E+01</totfact>
</mgrwt>
</event>
<event>
12    2  0.3555611E-008  0.1980258E+04  0.7818608E-02  0.8615907E-01
         -1   -1    0    0    0  501 -0.00000000000E+00  0.00000000000E+00  0.69578645307E+03  0.69578645307E+03  0.00000000000E+00 0.  1.
          1   -1    0    0  501    0  0.00000000000E+00 -0.00000000000E+00 -0.14089890261E+04  0.14089890261E+04  0.00000000000E+00 0. -1.
         23    2    1    2    0    0 -0.17493583397E+03 -0.57131464968E+03 -0.81981003831E+03  0.10185319085E+04  0.91190869944E+02 0.  0.
        254    2    1    2    0    0  0.17493583397E+03  0.57131464968E+03  0.10660746530E+03  0.10862435707E+04  0.90086456707E+03 0.  0.
         23    2    4    4    0    0 -0.28898981539E+03  0.21138796681E+03 -0.19726303389E+03  0.41895347880E+03  0.91702382477E+02 0.  0.
         23    2    4    4    0    0  0.46392564936E+03  0.35992668288E+03  0.30387049918E+03  0.66729009186E+03  0.90357961662E+02 0.  0.
          1    1    3    3  502    0 -0.14783095663E+03 -0.50484197435E+03 -0.66514800341E+03  0.84802197922E+03  0.00000000000E+00 0. -1.
         -1    1    3    3    0  502 -0.27104877341E+02 -0.66472675336E+02 -0.15466203490E+03  0.17050992928E+03  0.00000000000E+00 0.  1.
         11    1    5    5    0    0 -0.43685012472E+02  0.78458754452E+02 -0.60082213325E+02  0.10804641976E+03  0.00000000000E+00 0.  1.
        -11    1    5    5    0    0 -0.24530480292E+03  0.13292921236E+03 -0.13718082056E+03  0.31090705904E+03  0.00000000000E+00 0. -1.
          2    1    6    6  503    0  0.32671402133E+02  0.11418259494E+02 -0.81713042201E+00  0.34618851358E+02  0.00000000000E+00 0. -1.
         -2    1    6    6    0  503  0.43125424723E+03  0.34850842338E+03  0.30468762961E+03  0.63267124050E+03  0.00000000000E+00 0.  1.
<mgrwt>
<rscale>  0 0.19802580E+04</rscale>
<asrwt>0</asrwt>
<pdfrwt beam="1">  1        1 0.21676754E+00 0.19802580E+04</pdfrwt>
<pdfrwt beam="2">  1       -1 0.10704407E+00 0.19802580E+04</pdfrwt>
<totfact> 0.57259520E+00</totfact>
</mgrwt>
</event>
<event>
12    2  0.3555611E-008  0.1243752E+04  0.7818608E-02  0.9075400E-01
         -2   -1    0    0    0  501 -0.00000000000E+00  0.00000000000E+00  0.44625359871E+03  0.44625359871E+03  0.00000000000E+00 0.  1.
          2   -1    0    0  501    0  0.00000000000E+00 -0.00000000000E+00 -0.86661406558E+03  0.86661406558E+03  0.00000000000E+00 0. -1.
         23    2    1    2    0    0  0.23961830714E+03 -0.14845230085E+03 -0.81105357727E+02  0.30749738230E+03  0.92312200310E+02 0.  0.
        254    2    1    2    0    0 -0.23961830714E+03  0.14845230085E+03 -0.33925510914E+03  0.10053702820E+04  0.90344914417E+03 0.  0.
         23    2    4    4    0    0 -0.15063433474E+03  0.32986778084E+03 -0.57126153640E+03  0.68275656215E+03  0.91177434411E+02 0.  0.
         23    2    4    4    0    0 -0.88983972402E+02 -0.18141547999E+03  0.23200642726E+03  0.32261371984E+03  0.97071655063E+02 0.  0.
          2    1    3    3  502    0  0.10313401085E+03 -0.73114509470E+02 -0.83631574490E+02  0.15158032834E+03  0.00000000000E+00 0. -1.
         -2    1    3    3    0  502  0.13648429629E+03 -0.75337791378E+02  0.25262167633E+01  0.15591705396E+03  0.00000000000E+00 0.  1.
         11    1    5    5    0    0 -0.45364807468E+02  0.10036696812E+03 -0.10320475010E+03  0.15093943981E+03  0.00000000000E+00 0.  1.
        -11    1    5    5    0    0 -0.10526952727E+03  0.22950081272E+03 -0.46805678631E+03  0.53181712235E+03  0.00000000000E+00 0. -1.
          3    1    6    6  503    0 -0.29560076203E+02 -0.13334780217E+03  0.97174614817E+02  0.16762559534E+03  0.00000000000E+00 0. -1.
         -3    1    6    6    0  503 -0.59423896199E+02 -0.48067677825E+02  0.13483181244E+03  0.15498812450E+03  0.00000000000E+00 0.  1.
<mgrwt>
<rscale>  0 0.12437518E+04</rscale>
<asrwt>0</asrwt>
<pdfrwt beam="1">  1        2 0.13332524E+00 0.12437518E+04</pdfrwt>
<pdfrwt beam="2">  1       -2 0.68654400E-01 0.12437518E+04</pdfrwt>
<totfact> 0.58993967E+01</totfact>
</mgrwt>
</event>
<event>
12    2  0.3555611E-008  0.1339656E+04  0.7818608E-02  0.8998696E-01
          2   -1    0    0  501    0  0.00000000000E+00  0.00000000000E+00  0.14531569531E+04  0.14531569531E+04  0.00000000000E+00 0. -1.
         -2   -1    0    0    0  501 -0.00000000000E+00 -0.00000000000E+00 -0.30875499750E+03  0.30875499750E+03  0.00000000000E+00 0.  1.
         23    2    1    2    0    0  0.15334456505E+03 -0.12689876667E+03  0.74383113804E+03  0.77557530941E+03  0.92814040132E+02 0.  0.
        254    2    1    2    0    0 -0.15334456505E+03  0.12689876667E+03  0.40057081759E+03  0.98633664120E+03  0.87908198552E+03 0.  0.
         23    2    4    4    0    0 -0.42128411329E+03  0.16448073233E+03  0.50356162316E+03  0.68269877650E+03  0.89269791638E+02 0.  0.
         23    2    4    4    0    0  0.26793954824E+03 -0.37581965658E+02 -0.10299080557E+03  0.30363786470E+03  0.91568778498E+02 0.  0.
          1    1    3    3  502    0  0.14444732569E+03 -0.86144455206E+02  0.48333328202E+03  0.51175869174E+03  0.00000000000E+00 0. -1.
         -1    1    3    3    0  502  0.88972393522E+01 -0.40754311462E+02  0.26049785602E+03  0.26381661767E+03  0.00000000000E+00 0.  1.
         11    1    5    5    0    0 -0.40932830417E+03  0.15771195586E+03  0.50496437703E+03  0.66888843889E+03  0.00000000000E+00 0. -1.
        -11    1    5    5    0    0 -0.11955809114E+02  0.67687764681E+01 -0.14027538649E+01  0.13810337608E+02  0.00000000000E+00 0.  1.
          3    1    6    6  503    0  0.18045292912E+03  0.18994765128E+02 -0.65846501047E+02  0.19302803534E+03  0.00000000000E+00 0. -1.
         -3    1    6    6    0  503  0.87486619123E+02 -0.56576730786E+02 -0.37144304527E+02  0.11060982936E+03  0.00000000000E+00 0.  1.
<mgrwt>
<rscale>  0 0.13396559E+04</rscale>
<asrwt>0</asrwt>
<pdfrwt beam="1">  1        2 0.22356260E+00 0.13396559E+04</pdfrwt>
<pdfrwt beam="2">  1       -2 0.47500770E-01 0.13396559E+04</pdfrwt>
<totfact> 0.55384121E+01</totfact>
</mgrwt>
</event>
<event>
12    2  0.3555611E-008  0.2797634E+04  0.7818608E-02  0.8304003E-01
          2   -1    0    0  501    0  0.00000000000E+00  0.00000000000E+00  0.41673630191E+04  0.41673630191E+04  0.00000000000E+00 0. -1.
         -2   -1    0    0    0  501 -0.00000000000E+00 -0.00000000000E+00 -0.46952695882E+03  0.46952695882E+03  0.00000000000E+00 0.  1.
         23    2    1    2    0    0  0.80947317218E+02 -0.78164187881E+02 -0.40997765088E+03  0.44243343698E+03  0.12248903421E+03 0.  0.
        254    2    1    2    0    0 -0.80947317218E+02  0.78164187881E+02  0.41078137112E+04  0.41944565409E+04  0.84063671098E+03 0.  0.
         23    2    4    4    0    0  0.25993510716E+03 -0.22971294217E+03  0.13401251663E+04  0.13874179997E+04  0.93053473402E+02 0.  0.
         23    2    4    4    0    0 -0.34088242438E+03  0.30787713005E+03  0.27676885449E+04  0.28070385412E+04  0.91522325147E+02 0.  0.
          3    1    3    3  502    0  0.59188071346E+02 -0.44559033883E+02 -0.76255693147E+02  0.10631870027E+03  0.00000000000E+00 0. -1.
         -3    1    3    3    0  502  0.21759245871E+02 -0.33605153998E+02 -0.33372195773E+03  0.33611473670E+03  0.00000000000E+00 0.  1.
         11    1    5    5    0    0  0.51178093370E+02 -0.36731614387E+02  0.41015537588E+03  0.41496486730E+03  0.00000000000E+00 0.  1.
        -11    1    5    5    0    0  0.20875701379E+03 -0.19298132779E+03  0.92996979039E+03  0.97245313241E+03  0.00000000000E+00 0. -1.
          3    1    6    6  503    0 -0.46107471648E+02  0.80366772803E+02  0.69770883309E+03  0.70383402367E+03  0.00000000000E+00 0. -1.
         -3    1    6    6    0  503 -0.29477495273E+03  0.22751035725E+03  0.20699797118E+04  0.21032045176E+04  0.00000000000E+00 0.  1.
<mgrwt>
<rscale>  0 0.27976342E+04</rscale>
<asrwt>0</asrwt>
<pdfrwt beam="1">  1        2 0.64113275E+00 0.27976342E+04</pdfrwt>
<pdfrwt beam="2">  1       -2 0.72234920E-01 0.27976342E+04</pdfrwt>
<totfact> 0.37505806E-01</totfact>
</mgrwt>
</event>
<event>
12    2  0.3555611E-008  0.2552265E+04  0.7818608E-02  0.8384599E-01
         -2   -1    0    0    0  501 -0.00000000000E+00  0.00000000000E+00  0.54061008510E+03  0.54061008510E+03  0.00000000000E+00 0.  1.
          2   -1    0    0  501    0  0.00000000000E+00 -0.00000000000E+00 -0.30123646230E+04  0.30123646230E+04  0.00000000000E+00 0. -1.
         23    2    1    2    0    0 -0.27717572849E+03 -0.21318980721E+03 -0.25567353498E+04  0.25821576194E+04  0.91466082414E+02 0.  0.
        254    2    1    2    0    0  0.27717572849E+03  0.21318980721E+03  0.84980811897E+02  0.97081708868E+03  0.90165836264E+03 0.  0.
         23    2    4    4    0    0 -0.68374599404E+02  0.42663901353E+02  0.42916430537E+03  0.44591975729E+03  0.90372200443E+02 0.  0.
         23    2    4    4    0    0  0.34555032790E+03  0.17052590585E+03 -0.34418349348E+03  0.52489733139E+03  0.92578710537E+02 0.  0.
          3    1    3    3  502    0 -0.18525600762E+03 -0.18771714701E+03 -0.19993059697E+04  0.20166263600E+04  0.00000000000E+00 0. -1.
         -3    1    3    3    0  502 -0.91919720868E+02 -0.25472660198E+02 -0.55742938009E+03  0.56553125934E+03  0.00000000000E+00 0.  1.
         11    1    5    5    0    0 -0.19789848333E+00  0.52234587909E+02  0.18774436315E+03  0.19487544030E+03  0.00000000000E+00 0. -1.
        -11    1    5    5    0    0 -0.68176700921E+02 -0.95706865558E+01  0.24141994223E+03  0.25104431699E+03  0.00000000000E+00 0.  1.
          1    1    6    6  503    0  0.16363560853E+03  0.57118712293E+02 -0.20878328466E+03  0.27134778353E+03  0.00000000000E+00 0. -1.
         -1    1    6    6    0  503  0.18191471937E+03  0.11340719356E+03 -0.13540020881E+03  0.25354954786E+03  0.00000000000E+00 0.  1.
<mgrwt>
<rscale>  0 0.25522654E+04</rscale>
<asrwt>0</asrwt>
<pdfrwt beam="1">  1        2 0.46344071E+00 0.25522654E+04</pdfrwt>
<pdfrwt beam="2">  1       -2 0.83170782E-01 0.25522654E+04</pdfrwt>
<totfact> 0.19229463E+00</totfact>
</mgrwt>
</event>
<event>
12    2  0.3555611E-008  0.2051307E+04  0.7818608E-02  0.8583002E-01
          1   -1    0    0  501    0  0.00000000000E+00  0.00000000000E+00  0.21756082981E+04  0.21756082981E+04  0.00000000000E+00 0.  1.
         -1   -1    0    0    0  501 -0.00000000000E+00 -0.00000000000E+00 -0.48352673648E+03  0.48352673648E+03  0.00000000000E+00 0. -1.
         23    2    1    2    0    0  0.72954835659E+02 -0.64836085920E+03  0.12846422298E+04  0.14437929575E+04  0.92402563063E+02 0.  0.
        254    2    1    2    0    0 -0.72954835659E+02  0.64836085920E+03  0.40743933175E+03  0.12153420770E+04  0.94093323004E+03 0.  0.
         23    2    4    4    0    0  0.28769024859E+03 -0.47752929663E+02 -0.39450725333E+02  0.30815314199E+03  0.91411037427E+02 0.  0.
         23    2    4    4    0    0 -0.36064508425E+03  0.69611378886E+03  0.44689005708E+03  0.90718893505E+03  0.92961050565E+02 0.  0.
          4    1    3    3  502    0 -0.95604146420E+01 -0.13386163011E+03  0.20560143920E+03  0.24552451883E+03  0.00000000000E+00 0. -1.
         -4    1    3    3    0  502  0.82515250301E+02 -0.51449922909E+03  0.10790407906E+04  0.11982684387E+04  0.00000000000E+00 0.  1.
         11    1    5    5    0    0  0.23196232525E+03 -0.74030803147E+02 -0.38631756670E+02  0.24653497272E+03  0.00000000000E+00 0. -1.
        -11    1    5    5    0    0  0.55727923343E+02  0.26277873484E+02 -0.81896866326E+00  0.61618169274E+02  0.00000000000E+00 0.  1.
          3    1    6    6  503    0 -0.34957343057E+03  0.64329992427E+03  0.43601635185E+03  0.85214237954E+03  0.00000000000E+00 0. -1.
         -3    1    6    6    0  503 -0.11071653682E+02  0.52813864592E+02  0.10873705235E+02  0.55046555514E+02  0.00000000000E+00 0.  1.
<mgrwt>
<rscale>  0 0.20513067E+04</rscale>
<asrwt>0</asrwt>
<pdfrwt beam="1">  1        1 0.33470896E+00 0.20513067E+04</pdfrwt>
<pdfrwt beam="2">  1       -1 0.74388730E-01 0.20513067E+04</pdfrwt>
<totfact> 0.38022398E+00</totfact>
</mgrwt>
</event>
<event>
12    2  0.3555611E-008  0.5063303E+04  0.7818608E-02  0.7818816E-01
          2   -1    0    0  501    0  0.00000000000E+00  0.00000000000E+00  0.23793068906E+04  0.23793068906E+04  0.00000000000E+00 0.  1.
         -2   -1    0    0    0  501 -0.00000000000E+00 -0.00000000000E+00 -0.26937507442E+04  0.26937507442E+04  0.00000000000E+00 0. -1.
         23    2    1    2    0    0  0.13002243177E+04 -0.15179041054E+04  0.12661065847E+04  0.23675783882E+04  0.88234862398E+02 0.  0.
        254    2    1    2    0    0 -0.13002243177E+04  0.15179041054E+04 -0.15805504383E+04  0.27054792466E+04  0.90931958987E+03 0.  0.
         23    2    4    4    0    0 -0.33714301694E+03  0.62385418302E+03 -0.10824850464E+04  0.12972762519E+04  0.91062299198E+02 0.  0.
         23    2    4    4    0    0 -0.96308130073E+03  0.89404992234E+03 -0.49806539183E+03  0.14082029947E+04  0.90087093340E+02 0.  0.
          3    1    3    3  502    0  0.36133519570E+02 -0.68150211793E+02  0.48808633431E+02  0.91281790634E+02  0.00000000000E+00 0. -1.
         -3    1    3    3    0  502  0.12640907981E+04 -0.14497538936E+04  0.12172979513E+04  0.22762965975E+04  0.00000000000E+00 0.  1.
         11    1    5    5    0    0 -0.65115975067E+02  0.15632164313E+03 -0.32520591792E+03  0.36665438136E+03  0.00000000000E+00 0. -1.
        -11    1    5    5    0    0 -0.27202704187E+03  0.46753253988E+03 -0.75727912852E+03  0.93062187050E+03  0.00000000000E+00 0.  1.
          1    1    6    6  503    0 -0.16072710307E+03  0.10662360989E+03 -0.66548602121E+02  0.20403556624E+03  0.00000000000E+00 0. -1.
         -1    1    6    6    0  503 -0.80235419766E+03  0.78742631245E+03 -0.43151678971E+03  0.12041674285E+04  0.00000000000E+00 0.  1.
<mgrwt>
<rscale>  0 0.50633032E+04</rscale>
<asrwt>0</asrwt>
<pdfrwt beam="1">  1        2 0.36604721E+00 0.50633032E+04</pdfrwt>
<pdfrwt beam="2">  1       -2 0.41442319E+00 0.50633032E+04</pdfrwt>
<totfact> 0.17682792E-02</totfact>
</mgrwt>
</event>
<event>
12    2  0.3555611E-008  0.1406193E+04  0.7818608E-02  0.8949348E-01
          1   -1    0    0  501    0  0.00000000000E+00  0.00000000000E+00  0.18720693271E+04  0.18720693271E+04  0.00000000000E+00 0. -1.
         -1   -1    0    0    0  501 -0.00000000000E+00 -0.00000000000E+00 -0.26406338092E+03  0.26406338092E+03  0.00000000000E+00 0.  1.
         23    2    1    2    0    0  0.10819579443E+03  0.20907691453E+03 -0.24825450641E+02  0.25467234281E+03  0.93926636649E+02 0.  0.
        254    2    1    2    0    0 -0.10819579443E+03 -0.20907691453E+03  0.16328313968E+04  0.18814603652E+04  0.90461884199E+03 0.  0.
         23    2    4    4    0    0 -0.17212146190E+03 -0.22047777624E+03  0.17168394869E+04  0.17418381840E+04  0.90698334722E+02 0.  0.
         23    2    4    4    0    0  0.63925667468E+02  0.11400861708E+02 -0.84008090096E+02  0.13962218122E+03  0.90667103610E+02 0.  0.
          1    1    3    3  502    0 -0.16819171158E+02  0.16456206795E+02  0.12466082043E+01  0.23563643447E+02  0.00000000000E+00 0. -1.
         -1    1    3    3    0  502  0.12501496559E+03  0.19262070774E+03 -0.26072058845E+02  0.23110869937E+03  0.00000000000E+00 0.  1.
         11    1    5    5    0    0 -0.51409417917E+02 -0.10963284730E+03  0.94972787405E+03  0.95741596195E+03  0.00000000000E+00 0. -1.
        -11    1    5    5    0    0 -0.12071204399E+03 -0.11084492894E+03  0.76711161285E+03  0.78442222202E+03  0.00000000000E+00 0.  1.
          2    1    6    6  503    0  0.32769530115E+02  0.78196911858E+01 -0.99207514924E+02  0.10477175522E+03  0.00000000000E+00 0. -1.
         -2    1    6    6    0  503  0.31156137353E+02  0.35811705222E+01  0.15199424828E+02  0.34850425997E+02  0.00000000000E+00 0.  1.
<mgrwt>
<rscale>  0 0.14061934E+04</rscale>
<asrwt>0</asrwt>
<pdfrwt beam="1">  1        1 0.28801066E+00 0.14061934E+04</pdfrwt>
<pdfrwt beam="2">  1       -1 0.40625137E-01 0.14061934E+04</pdfrwt>
<totfact> 0.21009384E+01</totfact>
</mgrwt>
</event>
<event>
12    2  0.3555611E-008  0.2157705E+04  0.7818608E-02  0.8536241E-01
          1   -1    0    0  501    0  0.00000000000E+00  0.00000000000E+00  0.23908608149E+04  0.23908608149E+04  0.00000000000E+00 0. -1.
         -1   -1    0    0    0  501 -0.00000000000E+00 -0.00000000000E+00 -0.48682160434E+03  0.48682160434E+03  0.00000000000E+00 0.  1.
         23    2    1    2    0    0 -0.16177420071E+03 -0.49578576594E+03  0.17456420985E+04  0.18245600890E+04  0.98887635995E+02 0.  0.
        254    2    1    2    0    0  0.16177420071E+03  0.49578576594E+03  0.15839711202E+03  0.10531223302E+04  0.90111185741E+03 0.  0.
         23    2    4    4    0    0 -0.20506293057E+03  0.66419386297E+02  0.37558250154E+03  0.44202206379E+03  0.88650713738E+02 0.  0.
         23    2    4    4    0    0  0.36683713128E+03  0.42936637965E+03 -0.21718538952E+03  0.61110026642E+03  0.85726736411E+02 0.  0.
          3    1    3    3  502    0 -0.97947973337E+02 -0.32547762299E+03  0.96825536819E+03  0.10261812445E+04  0.00000000000E+00 0. -1.
         -3    1    3    3    0  502 -0.63826227374E+02 -0.17030814295E+03  0.77738673033E+03  0.79837884450E+03  0.00000000000E+00 0.  1.
         11    1    5    5    0    0 -0.10116889788E+03 -0.10712050756E+02  0.19393895136E+03  0.21900276433E+03  0.00000000000E+00 0. -1.
        -11    1    5    5    0    0 -0.10389403270E+03  0.77131437053E+02  0.18164355018E+03  0.22301929946E+03  0.00000000000E+00 0.  1.
          3    1    6    6  503    0  0.96488933637E+01  0.30572237911E+02  0.30457008371E+01  0.32203092516E+02  0.00000000000E+00 0. -1.
         -3    1    6    6    0  503  0.35718823792E+03  0.39879414173E+03 -0.22023109036E+03  0.57889717390E+03  0.00000000000E+00 0.  1.
<mgrwt>
<rscale>  0 0.21577050E+04</rscale>
<asrwt>0</asrwt>
<pdfrwt beam="1">  1        1 0.36782473E+00 0.21577050E+04</pdfrwt>
<pdfrwt beam="2">  1       -1 0.74895633E-01 0.21577050E+04</pdfrwt>
<totfact> 0.26449375E+00</totfact>
</mgrwt>
</event>
<event>
12    2  0.3555611E-008  0.1886808E+04  0.7818608E-02  0.8661451E-01
          1   -1    0    0  501    0  0.00000000000E+00  0.00000000000E+00  0.23029654505E+04  0.23029654505E+04  0.00000000000E+00 0. -1.
         -1   -1    0    0    0  501 -0.00000000000E+00 -0.00000000000E+00 -0.38646294430E+03  0.38646294430E+03  0.00000000000E+00 0.  1.
         23    2    1    2    0    0  0.61244897374E+02 -0.10737798778E+03  0.17654104135E+04  0.17721380927E+04  0.92295838634E+02 0.  0.
        254    2    1    2    0    0 -0.61244897374E+02  0.10737798778E+03  0.15109209275E+03  0.91729030214E+03  0.89627658019E+03 0.  0.
         23    2    4    4    0    0 -0.12060734075E+03  0.27723446976E+03 -0.29192206581E+03  0.42991875341E+03  0.90590066569E+02 0.  0.
         23    2    4    4    0    0  0.59362443376E+02 -0.16985648197E+03  0.44301415856E+03  0.48737154873E+03  0.94309902311E+02 0.  0.
          4    1    3    3  502    0 -0.10610871170E+01 -0.44149616263E+02  0.23234030341E+03  0.23650017149E+03  0.00000000000E+00 0.  1.
         -4    1    3    3    0  502  0.62305984491E+02 -0.63228371521E+02  0.15330701100E+04  0.15356379212E+04  0.00000000000E+00 0. -1.
         11    1    5    5    0    0 -0.82075638851E+02  0.12516145558E+03 -0.91596171516E+02  0.17547552277E+03  0.00000000000E+00 0. -1.
        -11    1    5    5    0    0 -0.38531701899E+02  0.15207301418E+03 -0.20032589429E+03  0.25444323064E+03  0.00000000000E+00 0.  1.
          4    1    6    6  503    0  0.15313290613E+02  0.42087080719E+01  0.10418726551E+02  0.18993682002E+02  0.00000000000E+00 0. -1.
         -4    1    6    6    0  503  0.44049152762E+02 -0.17406519005E+03  0.43259543201E+03  0.46837786673E+03  0.00000000000E+00 0.  1.
<mgrwt>
<rscale>  0 0.18868077E+04</rscale>
<asrwt>0</asrwt>
<pdfrwt beam="1">  1        1 0.35430237E+00 0.18868077E+04</pdfrwt>
<pdfrwt beam="2">  1       -1 0.59455839E-01 0.18868077E+04</pdfrwt>
<totfact> 0.49779823E+00</totfact>
</mgrwt>
</event>
<event>
12    2  0.3621020E-008  0.1937400E+04  0.7818608E-02  0.8636461E-01
          2   -1    0    0  501    0  0.00000000000E+00  0.00000000000E+00  0.11697886488E+04  0.11697886488E+04  0.00000000000E+00 0. -1.
         -2   -1    0    0    0  501 -0.00000000000E+00 -0.00000000000E+00 -0.80217905881E+03  0.80217905881E+03  0.00000000000E+00 0.  1.
         23    2    1    2    0    0  0.59694202310E+03 -0.35921008838E+02  0.61417851868E+03  0.86197712295E+03  0.90328344675E+02 0.  0.
        254    2    1    2    0    0 -0.59694202310E+03  0.35921008838E+02 -0.24656892871E+03  0.11099905846E+04  0.90202703040E+03 0.  0.
         23    2    4    4    0    0 -0.40402359229E+03  0.39302883673E+03 -0.36409098773E+03  0.67739837873E+03  0.92733955671E+02 0.  0.
         23    2    4    4    0    0 -0.19291843081E+03 -0.35710782789E+03  0.11752205902E+03  0.43259220591E+03  0.92634014113E+02 0.  0.
          2    1    3    3  502    0  0.47002002115E+03 -0.45228603183E+02  0.43368652262E+03  0.64113060037E+03  0.00000000000E+00 0. -1.
         -2    1    3    3    0  502  0.12692200195E+03  0.93075943448E+01  0.18049199606E+03  0.22084652258E+03  0.00000000000E+00 0.  1.
         11    1    5    5    0    0 -0.22939085731E+02  0.31335173231E+02 -0.56565357094E+02  0.68612931425E+02  0.00000000000E+00 0. -1.
        -11    1    5    5    0    0 -0.38108450655E+03  0.36169366350E+03 -0.30752563064E+03  0.60878544731E+03  0.00000000000E+00 0.  1.
          3    1    6    6  503    0  0.74134658126E+01 -0.29802563228E+02 -0.16836731590E+01  0.30756901756E+02  0.00000000000E+00 0. -1.
         -3    1    6    6    0  503 -0.20033189663E+03 -0.32730526467E+03  0.11920573218E+03  0.40183530416E+03  0.00000000000E+00 0.  1.
<mgrwt>
<rscale>  0 0.19374003E+04</rscale>
<asrwt>0</asrwt>
<pdfrwt beam="1">  1        2 0.17996749E+00 0.19374003E+04</pdfrwt>
<pdfrwt beam="2">  1       -2 0.12341216E+00 0.19374003E+04</pdfrwt>
<totfact> 0.91318065E+00</totfact>
</mgrwt>
</event>
<event>
12    2  0.3555611E-008  0.1569763E+04  0.7818608E-02  0.8839342E-01
         -2   -1    0    0    0  501 -0.00000000000E+00  0.00000000000E+00  0.41432336616E+03  0.41432336616E+03  0.00000000000E+00 0.  1.
          2   -1    0    0  501    0  0.00000000000E+00 -0.00000000000E+00 -0.14868552734E+04  0.14868552734E+04  0.00000000000E+00 0. -1.
         23    2    1    2    0    0 -0.13144202335E+03  0.45626486543E+03 -0.62757182141E+03  0.79240868053E+03  0.92792742243E+02 0.  0.
        254    2    1    2    0    0  0.13144202335E+03 -0.45626486543E+03 -0.44496008579E+03  0.11087699590E+04  0.89773420960E+03 0.  0.
         23    2    4    4    0    0 -0.97790018981E+02 -0.65188167392E+03 -0.43283260129E+03  0.79366502498E+03  0.89707895567E+02 0.  0.
         23    2    4    4    0    0  0.22923204234E+03  0.19561680848E+03 -0.12127484502E+02  0.31510493402E+03  0.91273098826E+02 0.  0.
          3    1    3    3  502    0 -0.99837378510E+02  0.42591409376E+03 -0.54425529870E+03  0.69827225891E+03  0.00000000000E+00 0. -1.
         -3    1    3    3    0  502 -0.31604644844E+02  0.30350771679E+02 -0.83316522718E+02  0.94136421619E+02  0.00000000000E+00 0.  1.
         11    1    5    5    0    0 -0.86977331259E+02 -0.43759933704E+03 -0.33462183880E+03  0.55770064634E+03  0.00000000000E+00 0.  1.
        -11    1    5    5    0    0 -0.10812687722E+02 -0.21428233688E+03 -0.98210762489E+02  0.23596437863E+03  0.00000000000E+00 0. -1.
          2    1    6    6  503    0  0.19129677501E+03  0.11917424054E+03  0.14114703753E+02  0.22582333936E+03  0.00000000000E+00 0.  1.
         -2    1    6    6    0  503  0.37935267323E+02  0.76442567939E+02 -0.26242188255E+02  0.89281594657E+02  0.00000000000E+00 0. -1.
<mgrwt>
<rscale>  0 0.15697629E+04</rscale>
<asrwt>0</asrwt>
<pdfrwt beam="1">  1        2 0.22874697E+00 0.15697629E+04</pdfrwt>
<pdfrwt beam="2">  1       -2 0.63742056E-01 0.15697629E+04</pdfrwt>
<totfact> 0.28254337E+01</totfact>
</mgrwt>
</event>
<event>
12    2  0.3555611E-008  0.1689254E+04  0.7818608E-02  0.8767517E-01
         -1   -1    0    0    0  501 -0.00000000000E+00  0.00000000000E+00  0.12014924191E+04  0.12014924191E+04  0.00000000000E+00 0.  1.
          1   -1    0    0  501    0  0.00000000000E+00 -0.00000000000E+00 -0.59375741145E+03  0.59375741145E+03  0.00000000000E+00 0. -1.
         23    2    1    2    0    0  0.10579871746E+03  0.42316150432E+03  0.65818019849E+03  0.79494831339E+03  0.92101139635E+02 0.  0.
        254    2    1    2    0    0 -0.10579871746E+03 -0.42316150432E+03 -0.50445190887E+02  0.10003015171E+04  0.89877660211E+03 0.  0.
         23    2    4    4    0    0 -0.39720165896E+03 -0.38076980307E+03 -0.27020637058E+03  0.62030954875E+03  0.94961322426E+02 0.  0.
         23    2    4    4    0    0  0.29140294151E+03 -0.42391701245E+02  0.21976117969E+03  0.37999196836E+03  0.96882347553E+02 0.  0.
          4    1    3    3  502    0 -0.13039307168E+02  0.11692478670E+02  0.26531686415E+02  0.31791004591E+02  0.00000000000E+00 0. -1.
         -4    1    3    3    0  502  0.11883802463E+03  0.41146902565E+03  0.63164851208E+03  0.76315730880E+03  0.00000000000E+00 0.  1.
         11    1    5    5    0    0 -0.39469291661E+03 -0.36146344708E+03 -0.24540616894E+03  0.58878052766E+03  0.00000000000E+00 0. -1.
        -11    1    5    5    0    0 -0.25087423561E+01 -0.19306355997E+02 -0.24800201637E+02  0.31529021096E+02  0.00000000000E+00 0.  1.
          2    1    6    6  503    0  0.29329527569E+03 -0.34850731401E+02  0.22440397720E+03  0.37093643284E+03  0.00000000000E+00 0. -1.
         -2    1    6    6    0  503 -0.18923341861E+01 -0.75409698439E+01 -0.46427975126E+01  0.90555355227E+01  0.00000000000E+00 0.  1.
<mgrwt>
<rscale>  0 0.16892543E+04</rscale>
<asrwt>0</asrwt>
<pdfrwt beam="1">  1        1 0.91347295E-01 0.16892543E+04</pdfrwt>
<pdfrwt beam="2">  1       -1 0.18484499E+00 0.16892543E+04</pdfrwt>
<totfact> 0.63629156E+00</totfact>
</mgrwt>
</event>
<event>
12    2  0.3555611E-008  0.1410546E+04  0.7818608E-02  0.8946220E-01
         -1   -1    0    0    0  501 -0.00000000000E+00  0.00000000000E+00  0.52187875719E+03  0.52187875719E+03  0.00000000000E+00 0.  1.
          1   -1    0    0  501    0  0.00000000000E+00 -0.00000000000E+00 -0.95311377709E+03  0.95311377709E+03  0.00000000000E+00 0. -1.
         23    2    1    2    0    0 -0.13103285783E+03  0.38715153717E+03 -0.82832449231E+02  0.42926567622E+03  0.10174420658E+03 0.  0.
        254    2    1    2    0    0  0.13103285783E+03 -0.38715153717E+03 -0.34840257067E+03  0.10457268581E+04  0.89727609343E+03 0.  0.
         23    2    4    4    0    0  0.43277925079E+03 -0.47266940785E+03 -0.30782664170E+03  0.71660412158E+03  0.89721662360E+02 0.  0.
         23    2    4    4    0    0 -0.30174639296E+03  0.85517870683E+02 -0.40575928973E+02  0.32912273648E+03  0.91165661213E+02 0.  0.
          2    1    3    3  502    0  0.70302565258E+01  0.63472742727E+02 -0.38555155540E+02  0.74597007948E+02  0.00000000000E+00 0. -1.
         -2    1    3    3    0  502 -0.13806311436E+03  0.32367879444E+03 -0.44277293690E+02  0.35466866827E+03  0.00000000000E+00 0.  1.
         11    1    5    5    0    0  0.19518932524E+03 -0.25747586040E+03 -0.19153601593E+03  0.37560449514E+03  0.00000000000E+00 0.  1.
        -11    1    5    5    0    0  0.23758992555E+03 -0.21519354745E+03 -0.11629062577E+03  0.34099962644E+03  0.00000000000E+00 0. -1.
          3    1    6    6  503    0 -0.13614246739E+03 -0.34498174851E+01 -0.36903989078E+02  0.14109775717E+03  0.00000000000E+00 0. -1.
         -3    1    6    6    0  503 -0.16560392556E+03  0.88967688168E+02 -0.36719398946E+01  0.18802497930E+03  0.00000000000E+00 0.  1.
<mgrwt>
<rscale>  0 0.14105458E+04</rscale>
<asrwt>0</asrwt>
<pdfrwt beam="1">  1        1 0.14663289E+00 0.14105458E+04</pdfrwt>
<pdfrwt beam="2">  1       -1 0.80289040E-01 0.14105458E+04</pdfrwt>
<totfact> 0.24860043E+01</totfact>
</mgrwt>
</event>
<event>
12    2  0.3555611E-008  0.1827885E+04  0.7818608E-02  0.8691610E-01
         -1   -1    0    0    0  501 -0.00000000000E+00  0.00000000000E+00  0.35401899066E+03  0.35401899066E+03  0.00000000000E+00 0.  1.
          1   -1    0    0  501    0  0.00000000000E+00 -0.00000000000E+00 -0.23594520961E+04  0.23594520961E+04  0.00000000000E+00 0. -1.
         23    2    1    2    0    0 -0.61046515670E+03 -0.18670731957E+03 -0.37711635874E+03  0.74725112585E+03  0.92952495038E+02 0.  0.
        254    2    1    2    0    0  0.61046515670E+03  0.18670731957E+03 -0.16283167467E+04  0.19662199609E+04  0.89837529817E+03 0.  0.
         23    2    4    4    0    0  0.53407254997E+03  0.26433522548E+03 -0.17031968767E+04  0.18068087330E+04  0.92582918153E+02 0.  0.
         23    2    4    4    0    0  0.76392606730E+02 -0.77627905906E+02  0.74880129981E+02  0.15941122794E+03  0.89123417735E+02 0.  0.
          3    1    3    3  502    0 -0.56114167690E+02 -0.21348843025E+02 -0.68826341580E+01  0.60431312802E+02  0.00000000000E+00 0. -1.
         -3    1    3    3    0  502 -0.55435098901E+03 -0.16535847655E+03 -0.37023372458E+03  0.68681981305E+03  0.00000000000E+00 0.  1.
         11    1    5    5    0    0  0.47923714884E+03  0.26059142717E+03 -0.14926973989E+04  0.15892519188E+04  0.00000000000E+00 0.  1.
        -11    1    5    5    0    0  0.54835401134E+02  0.37437983079E+01 -0.21049947777E+03  0.21755681416E+03  0.00000000000E+00 0. -1.
          1    1    6    6  503    0  0.46391318033E+02  0.70903953731E+01  0.85297050429E+01  0.47698888493E+02  0.00000000000E+00 0. -1.
         -1    1    6    6    0  503  0.30001288697E+02 -0.84718301279E+02  0.66350424938E+02  0.11171233945E+03  0.00000000000E+00 0.  1.
<mgrwt>
<rscale>  0 0.18278850E+04</rscale>
<asrwt>0</asrwt>
<pdfrwt beam="1">  1        1 0.36299264E+00 0.18278850E+04</pdfrwt>
<pdfrwt beam="2">  1       -1 0.54464458E-01 0.18278850E+04</pdfrwt>
<totfact> 0.54341997E+00</totfact>
</mgrwt>
</event>
<event>
12    2  0.3555611E-008  0.2465148E+04  0.7818608E-02  0.8415508E-01
         -1   -1    0    0    0  501 -0.00000000000E+00  0.00000000000E+00  0.65522727600E+03  0.65522727600E+03  0.00000000000E+00 0.  1.
          1   -1    0    0  501    0  0.00000000000E+00 -0.00000000000E+00 -0.23186439202E+04  0.23186439202E+04  0.00000000000E+00 0. -1.
         23    2    1    2    0    0  0.82768321533E+03  0.66229176290E+03 -0.83212970834E+03  0.13506026036E+04  0.89429621182E+02 0.  0.
        254    2    1    2    0    0 -0.82768321533E+03 -0.66229176290E+03 -0.83128693586E+03  0.16232685926E+04  0.90568927891E+03 0.  0.
         23    2    4    4    0    0 -0.57521651908E+03  0.87348033881E+01 -0.66022399183E+03  0.88049792194E+03  0.91817920583E+02 0.  0.
         23    2    4    4    0    0 -0.25246669625E+03 -0.67102656628E+03 -0.17106294404E+03  0.74277067069E+03  0.91813141956E+02 0.  0.
          3    1    3    3  502    0  0.79528187006E+03  0.65503458085E+03 -0.80042607050E+03  0.13046936228E+04  0.00000000000E+00 0. -1.
         -3    1    3    3    0  502  0.32401345275E+02  0.72571820495E+01 -0.31703637844E+02  0.45908980815E+02  0.00000000000E+00 0.  1.
         11    1    5    5    0    0 -0.45832411825E+03  0.39271099531E+02 -0.49405201752E+03  0.67504860021E+03  0.00000000000E+00 0.  1.
        -11    1    5    5    0    0 -0.11689240083E+03 -0.30536296143E+02 -0.16617197430E+03  0.20544932173E+03  0.00000000000E+00 0. -1.
          3    1    6    6  503    0 -0.43942028586E+02 -0.14120726622E+03  0.12449398429E+01  0.14789166232E+03  0.00000000000E+00 0. -1.
         -3    1    6    6    0  503 -0.20852466766E+03 -0.52981930007E+03 -0.17230788388E+03  0.59487900837E+03  0.00000000000E+00 0.  1.
<mgrwt>
<rscale>  0 0.24651481E+04</rscale>
<asrwt>0</asrwt>
<pdfrwt beam="1">  1        1 0.35671444E+00 0.24651481E+04</pdfrwt>
<pdfrwt beam="2">  1       -1 0.10080420E+00 0.24651481E+04</pdfrwt>
<totfact> 0.15064272E+00</totfact>
</mgrwt>
</event>
<event>
12    2  0.3555611E-008  0.1386361E+04  0.7818608E-02  0.8963751E-01
          2   -1    0    0  501    0  0.00000000000E+00  0.00000000000E+00  0.17900166034E+04  0.17900166034E+04  0.00000000000E+00 0.  1.
         -2   -1    0    0    0  501 -0.00000000000E+00 -0.00000000000E+00 -0.26843264818E+03  0.26843264818E+03  0.00000000000E+00 0. -1.
         23    2    1    2    0    0 -0.18206024483E+03  0.24734692078E+03  0.80090940932E+03  0.86268702657E+03  0.91905342153E+02 0.  0.
        254    2    1    2    0    0  0.18206024483E+03 -0.24734692078E+03  0.72067454594E+03  0.11957622251E+04  0.90340968875E+03 0.  0.
         23    2    4    4    0    0  0.32491551739E+03 -0.23647406317E+03  0.87453656010E+03  0.96661587073E+03  0.89677034966E+02 0.  0.
         23    2    4    4    0    0 -0.14285527256E+03 -0.10872857607E+02 -0.15386201416E+03  0.22914635432E+03  0.91151984987E+02 0.  0.
          3    1    3    3  502    0 -0.45904129748E+02  0.11483739623E+03  0.23220465390E+03  0.26308519151E+03  0.00000000000E+00 0. -1.
         -3    1    3    3    0  502 -0.13615611508E+03  0.13250952454E+03  0.56870475542E+03  0.59960183506E+03  0.00000000000E+00 0.  1.
         11    1    5    5    0    0  0.28974965658E+03 -0.17293169750E+03  0.75080507598E+03  0.82314548994E+03  0.00000000000E+00 0. -1.
        -11    1    5    5    0    0  0.35165860811E+02 -0.63542365673E+02  0.12373148412E+03  0.14347038079E+03  0.00000000000E+00 0.  1.
          2    1    6    6  503    0 -0.95733971345E+02 -0.37534771676E+02 -0.13918675694E+03  0.17305145380E+03  0.00000000000E+00 0. -1.
         -2    1    6    6    0  503 -0.47121301219E+02  0.26661914069E+02 -0.14675257216E+02  0.56094900523E+02  0.00000000000E+00 0.  1.
<mgrwt>
<rscale>  0 0.13863606E+04</rscale>
<asrwt>0</asrwt>
<pdfrwt beam="1">  1        2 0.27538716E+00 0.13863606E+04</pdfrwt>
<pdfrwt beam="2">  1       -2 0.41297332E-01 0.13863606E+04</pdfrwt>
<totfact> 0.47295912E+01</totfact>
</mgrwt>
</event>
<event>
12    2  0.3555611E-008  0.1730534E+04  0.7818608E-02  0.8744139E-01
          1   -1    0    0  501    0  0.00000000000E+00  0.00000000000E+00  0.83340889537E+03  0.83340889537E+03  0.00000000000E+00 0. -1.
         -1   -1    0    0    0  501 -0.00000000000E+00 -0.00000000000E+00 -0.89834332786E+03  0.89834332786E+03  0.00000000000E+00 0.  1.
         23    2    1    2    0    0  0.27928176521E+03 -0.11553621218E+02 -0.58728439848E+03  0.65689359010E+03  0.92056686250E+02 0.  0.
        254    2    1    2    0    0 -0.27928176521E+03  0.11553621218E+02  0.52234996599E+03  0.10748586331E+04  0.89684993378E+03 0.  0.
         23    2    4    4    0    0 -0.47946138203E+03  0.90227181667E+02 -0.66187664958E+01  0.49664485630E+03  0.92672239909E+02 0.  0.
         23    2    4    4    0    0  0.20017961683E+03 -0.78673560449E+02  0.52896873248E+03  0.57821377683E+03  0.90894684483E+02 0.  0.
          4    1    3    3  502    0  0.12144533397E+02  0.64415789266E+01 -0.99618931918E+02  0.10056299134E+03  0.00000000000E+00 0. -1.
         -4    1    3    3    0  502  0.26713723181E+03 -0.17995200144E+02 -0.48766546656E+03  0.55633059876E+03  0.00000000000E+00 0.  1.
         11    1    5    5    0    0 -0.17738968609E+02  0.19461980988E+02 -0.13261098172E+02  0.29483833469E+02  0.00000000000E+00 0. -1.
        -11    1    5    5    0    0 -0.46172241342E+03  0.70765200679E+02  0.66423316762E+01  0.46716102283E+03  0.00000000000E+00 0.  1.
          1    1    6    6  503    0  0.33300373924E+02 -0.69263794851E+01  0.24167978633E+02  0.41725062342E+02  0.00000000000E+00 0. -1.
         -1    1    6    6    0  503  0.16687924290E+03 -0.71747180964E+02  0.50480075385E+03  0.53648871449E+03  0.00000000000E+00 0.  1.
<mgrwt>
<rscale>  0 0.17305344E+04</rscale>
<asrwt>0</asrwt>
<pdfrwt beam="1">  1        1 0.12821675E+00 0.17305344E+04</pdfrwt>
<pdfrwt beam="2">  1       -1 0.13820667E+00 0.17305344E+04</pdfrwt>
<totfact> 0.85141729E+00</totfact>
</mgrwt>
</event>
<event>
12    2  0.3555611E-008  0.1426139E+04  0.7818608E-02  0.8935112E-01
          2   -1    0    0  501    0  0.00000000000E+00  0.00000000000E+00  0.10735619325E+04  0.10735619325E+04  0.00000000000E+00 0. -1.
         -2   -1    0    0    0  501 -0.00000000000E+00 -0.00000000000E+00 -0.47362700597E+03  0.47362700597E+03  0.00000000000E+00 0.  1.
         23    2    1    2    0    0 -0.22862998389E+03  0.35382024727E+03  0.27746234539E+03  0.51255473491E+03  0.90920659128E+02 0.  0.
        254    2    1    2    0    0  0.22862998389E+03 -0.35382024727E+03  0.32247258119E+03  0.10346342036E+04  0.88826737684E+03 0.  0.
         23    2    4    4    0    0  0.40976014599E+03 -0.93481813530E+02  0.49967519520E+03  0.65974657447E+03  0.94593948670E+02 0.  0.
         23    2    4    4    0    0 -0.18113016210E+03 -0.26033843374E+03 -0.17720261402E+03  0.37488762914E+03  0.92497201929E+02 0.  0.
          4    1    3    3  502    0 -0.12862454962E+03  0.19768329280E+03  0.10091033660E+03  0.25652651920E+03  0.00000000000E+00 0. -1.
         -4    1    3    3    0  502 -0.10000543427E+03  0.15613695446E+03  0.17655200878E+03  0.25602821571E+03  0.00000000000E+00 0.  1.
         11    1    5    5    0    0  0.15412449263E+03 -0.13268756963E+01  0.13452833549E+03  0.20458248429E+03  0.00000000000E+00 0. -1.
        -11    1    5    5    0    0  0.25563565336E+03 -0.92154937833E+02  0.36514685972E+03  0.45516409019E+03  0.00000000000E+00 0.  1.
          3    1    6    6  503    0 -0.92013714441E+02 -0.13302138656E+03 -0.37763265004E+02  0.16609418145E+03  0.00000000000E+00 0. -1.
         -3    1    6    6    0  503 -0.89116447658E+02 -0.12731704718E+03 -0.13943934901E+03  0.20879344769E+03  0.00000000000E+00 0.  1.
<mgrwt>
<rscale>  0 0.14261387E+04</rscale>
<asrwt>0</asrwt>
<pdfrwt beam="1">  1        2 0.16516337E+00 0.14261387E+04</pdfrwt>
<pdfrwt beam="2">  1       -2 0.72865693E-01 0.14261387E+04</pdfrwt>
<totfact> 0.37420092E+01</totfact>
</mgrwt>
</event>
<event>
12    2  0.3555611E-008  0.2252159E+04  0.7818608E-02  0.8497026E-01
          1   -1    0    0  501    0  0.00000000000E+00  0.00000000000E+00  0.79810597753E+03  0.79810597753E+03  0.00000000000E+00 0. -1.
         -1   -1    0    0    0  501 -0.00000000000E+00 -0.00000000000E+00 -0.15888309726E+04  0.15888309726E+04  0.00000000000E+00 0.  1.
         23    2    1    2    0    0  0.39357118605E+03  0.41088107535E+03 -0.11238152530E+04  0.12629245668E+04  0.91083489262E+02 0.  0.
        254    2    1    2    0    0 -0.39357118605E+03 -0.41088107535E+03  0.33309025791E+03  0.11240123833E+04  0.91034783538E+03 0.  0.
         23    2    4    4    0    0  0.48259216696E+02  0.12265369247E+03 -0.19201764182E+03  0.24998895673E+03  0.90834043408E+02 0.  0.
         23    2    4    4    0    0 -0.44183040274E+03 -0.53353476783E+03  0.52510789973E+03  0.87402342660E+03  0.91132818514E+02 0.  0.
          3    1    3    3  502    0  0.10407776564E+03  0.55936055601E+02 -0.22602452123E+03  0.25504530541E+03  0.00000000000E+00 0. -1.
         -3    1    3    3    0  502  0.28949342041E+03  0.35494501975E+03 -0.89779073179E+03  0.10078792614E+04  0.00000000000E+00 0.  1.
         11    1    5    5    0    0  0.50372790884E+02  0.11119771798E+03 -0.20107643854E+03  0.23523198057E+03  0.00000000000E+00 0.  1.
        -11    1    5    5    0    0 -0.21135741874E+01  0.11455974490E+02  0.90587967195E+01  0.14756976160E+02  0.00000000000E+00 0. -1.
          2    1    6    6  503    0 -0.64401406817E+02 -0.13555852018E+03  0.11985402445E+03  0.19206415796E+03  0.00000000000E+00 0. -1.
         -2    1    6    6    0  503 -0.37742899593E+03 -0.39797624764E+03  0.40525387528E+03  0.68195926864E+03  0.00000000000E+00 0.  1.
<mgrwt>
<rscale>  0 0.22521594E+04</rscale>
<asrwt>0</asrwt>
<pdfrwt beam="1">  1        1 0.12278554E+00 0.22521594E+04</pdfrwt>
<pdfrwt beam="2">  1       -1 0.24443553E+00 0.22521594E+04</pdfrwt>
<totfact> 0.15271368E+00</totfact>
</mgrwt>
</event>
<event>
12    2  0.3555611E-008  0.1449567E+04  0.7818608E-02  0.8918701E-01
         -1   -1    0    0    0  501 -0.00000000000E+00  0.00000000000E+00  0.29838737372E+03  0.29838737372E+03  0.00000000000E+00 0.  1.
          1   -1    0    0  501    0  0.00000000000E+00 -0.00000000000E+00 -0.17604996212E+04  0.17604996212E+04  0.00000000000E+00 0. -1.
         23    2    1    2    0    0 -0.29021867062E+03  0.28370859507E+03 -0.20799597393E+03  0.46433859820E+03  0.87353104780E+02 0.  0.
        254    2    1    2    0    0  0.29021867062E+03 -0.28370859507E+03 -0.12541162736E+04  0.15945483968E+04  0.89725108985E+03 0.  0.
         23    2    4    4    0    0  0.23014512983E+03 -0.48893430625E+03 -0.32634613477E+03  0.63792713981E+03  0.91791608624E+02 0.  0.
         23    2    4    4    0    0  0.60073540789E+02  0.20522571118E+03 -0.92777013881E+03  0.95662125695E+03  0.92953622499E+02 0.  0.
          3    1    3    3  502    0 -0.55843817759E+02  0.92614931832E+02 -0.86319405829E+02  0.13837303712E+03  0.00000000000E+00 0. -1.
         -3    1    3    3    0  502 -0.23437485286E+03  0.19109366324E+03 -0.12167656810E+03  0.32596556107E+03  0.00000000000E+00 0.  1.
         11    1    5    5    0    0  0.18473700408E+03 -0.39246079501E+03 -0.21632593221E+03  0.48471656176E+03  0.00000000000E+00 0. -1.
        -11    1    5    5    0    0  0.45408125747E+02 -0.96473511240E+02 -0.11002020256E+03  0.15321057805E+03  0.00000000000E+00 0.  1.
          1    1    6    6  503    0  0.29850261518E+02  0.65184382876E+02 -0.50896319115E+03  0.51398791020E+03  0.00000000000E+00 0. -1.
         -1    1    6    6    0  503  0.30223279270E+02  0.14004132830E+03 -0.41880694766E+03  0.44263334675E+03  0.00000000000E+00 0.  1.
<mgrwt>
<rscale>  0 0.14495666E+04</rscale>
<asrwt>0</asrwt>
<pdfrwt beam="1">  1        1 0.27084608E+00 0.14495666E+04</pdfrwt>
<pdfrwt beam="2">  1       -1 0.45905752E-01 0.14495666E+04</pdfrwt>
<totfact> 0.19864564E+01</totfact>
</mgrwt>
</event>
<event>
12    2  0.3555611E-008  0.2569047E+04  0.7818608E-02  0.8378792E-01
         -2   -1    0    0    0  501 -0.00000000000E+00  0.00000000000E+00  0.16049788814E+04  0.16049788814E+04  0.00000000000E+00 0.  1.
          2   -1    0    0  501    0  0.00000000000E+00 -0.00000000000E+00 -0.10280516972E+04  0.10280516972E+04  0.00000000000E+00 0. -1.
         23    2    1    2    0    0 -0.35513424466E+03 -0.27727179500E+03 -0.80820101335E+03  0.92944980456E+03  0.87681703900E+02 0.  0.
        254    2    1    2    0    0  0.35513424466E+03  0.27727179500E+03  0.13851281976E+04  0.17035807741E+04  0.88351986396E+03 0.  0.
         23    2    4    4    0    0  0.58507087643E+03  0.43312466146E+02  0.58378278058E+03  0.83269658506E+03  0.91637152387E+02 0.  0.
         23    2    4    4    0    0 -0.22993663177E+03  0.23395932885E+03  0.80134541699E+03  0.87088418900E+03  0.93150261053E+02 0.  0.
          1    1    3    3  502    0 -0.27030911543E+03 -0.22515587257E+03 -0.69307218152E+03  0.77724592867E+03  0.00000000000E+00 0. -1.
         -1    1    3    3    0  502 -0.84825129230E+02 -0.52115922425E+02 -0.11512883182E+03  0.15220387589E+03  0.00000000000E+00 0.  1.
         11    1    5    5    0    0  0.47247058446E+03  0.20863222617E+01  0.44180164379E+03  0.64685508297E+03  0.00000000000E+00 0. -1.
        -11    1    5    5    0    0  0.11260029197E+03  0.41226143884E+02  0.14198113679E+03  0.18584150209E+03  0.00000000000E+00 0.  1.
          3    1    6    6  503    0 -0.16875618586E+03  0.11945604190E+03  0.55801730272E+03  0.59508966244E+03  0.00000000000E+00 0. -1.
         -3    1    6    6    0  503 -0.61180445913E+02  0.11450328695E+03  0.24332811427E+03  0.27579452656E+03  0.00000000000E+00 0.  1.
<mgrwt>
<rscale>  0 0.25690475E+04</rscale>
<asrwt>0</asrwt>
<pdfrwt beam="1">  1        2 0.15816180E+00 0.25690475E+04</pdfrwt>
<pdfrwt beam="2">  1       -2 0.24691983E+00 0.25690475E+04</pdfrwt>
<totfact> 0.14387487E+00</totfact>
</mgrwt>
</event>
<event>
12    2  0.3555611E-008  0.1463163E+04  0.7818608E-02  0.8909326E-01
          1   -1    0    0  501    0  0.00000000000E+00  0.00000000000E+00  0.54359340709E+03  0.54359340709E+03  0.00000000000E+00 0. -1.
         -1   -1    0    0    0  501 -0.00000000000E+00 -0.00000000000E+00 -0.98458001200E+03  0.98458001200E+03  0.00000000000E+00 0.  1.
         23    2    1    2    0    0 -0.67632861153E+02 -0.27757557472E+03 -0.49658766171E+03  0.57999982708E+03  0.90432793062E+02 0.  0.
        254    2    1    2    0    0  0.67632861153E+02  0.27757557472E+03  0.55601056797E+02  0.94817359201E+03  0.90239640927E+03 0.  0.
         23    2    4    4    0    0  0.41941664731E+03  0.19108055377E+03 -0.18343740393E+03  0.50455318568E+03  0.92209185802E+02 0.  0.
         23    2    4    4    0    0 -0.35178378616E+03  0.86495020953E+02  0.23903846073E+03  0.44362040633E+03  0.91795742535E+02 0.  0.
          1    1    3    3  502    0  0.16143128463E+02 -0.10937561192E+02 -0.23664186519E+02  0.30663081466E+02  0.00000000000E+00 0. -1.
         -1    1    3    3    0  502 -0.83775989616E+02 -0.26663801353E+03 -0.47292347519E+03  0.54933674562E+03  0.00000000000E+00 0.  1.
         11    1    5    5    0    0  0.38955586567E+03  0.19747546211E+03 -0.15684235901E+03  0.46405803106E+03  0.00000000000E+00 0. -1.
        -11    1    5    5    0    0  0.29860781647E+02 -0.63949083422E+01 -0.26595044923E+02  0.40495154620E+02  0.00000000000E+00 0.  1.
          4    1    6    6  503    0 -0.23961607065E+03  0.99980879962E+02  0.18190664705E+03  0.31702060803E+03  0.00000000000E+00 0. -1.
         -4    1    6    6    0  503 -0.11216771551E+03 -0.13485859009E+02  0.57131813679E+02  0.12659979830E+03  0.00000000000E+00 0.  1.
<mgrwt>
<rscale>  0 0.14631626E+04</rscale>
<asrwt>0</asrwt>
<pdfrwt beam="1">  1        1 0.83629756E-01 0.14631626E+04</pdfrwt>
<pdfrwt beam="2">  1       -1 0.15147385E+00 0.14631626E+04</pdfrwt>
<totfact> 0.13002463E+01</totfact>
</mgrwt>
</event>
<event>
12    2  0.3555611E-008  0.1073073E+04  0.7818608E-02  0.9231841E-01
         -2   -1    0    0    0  501 -0.00000000000E+00  0.00000000000E+00  0.18000284342E+03  0.18000284342E+03  0.00000000000E+00 0. -1.
          2   -1    0    0  501    0  0.00000000000E+00 -0.00000000000E+00 -0.15992605571E+04  0.15992605571E+04  0.00000000000E+00 0.  1.
         23    2    1    2    0    0 -0.10674560054E+03 -0.37654843659E+02 -0.87106634712E+02  0.16908766987E+03  0.90501733718E+02 0.  0.
        254    2    1    2    0    0  0.10674560054E+03  0.37654843659E+02 -0.13321510790E+04  0.16101757307E+04  0.89734434633E+03 0.  0.
         23    2    4    4    0    0  0.44704606365E+03  0.14021993046E+03 -0.10296992481E+04  0.11347523086E+04  0.88715547887E+02 0.  0.
         23    2    4    4    0    0 -0.34030046311E+03 -0.10256508680E+03 -0.30245183092E+03  0.47542342208E+03  0.90699051885E+02 0.  0.
          2    1    3    3  502    0 -0.92521815645E+01 -0.45212687432E+02 -0.37353317778E+02  0.59372218398E+02  0.00000000000E+00 0.  1.
         -2    1    3    3    0  502 -0.97493418975E+02  0.75578437725E+01 -0.49753316934E+02  0.10971545147E+03  0.00000000000E+00 0. -1.
         11    1    5    5    0    0  0.21167630848E+03  0.47180814024E+02 -0.38052266819E+03  0.43798446295E+03  0.00000000000E+00 0.  1.
        -11    1    5    5    0    0  0.23536975517E+03  0.93039116436E+02 -0.64917657991E+03  0.69676784566E+03  0.00000000000E+00 0. -1.
          3    1    6    6  503    0 -0.26515950840E+03 -0.38252635952E+02 -0.22144338034E+03  0.34757732916E+03  0.00000000000E+00 0. -1.
         -3    1    6    6    0  503 -0.75140954714E+02 -0.64312450849E+02 -0.81008450584E+02  0.12784609292E+03  0.00000000000E+00 0.  1.
<mgrwt>
<rscale>  0 0.10730731E+04</rscale>
<asrwt>0</asrwt>
<pdfrwt beam="1">  1        2 0.24604008E+00 0.10730731E+04</pdfrwt>
<pdfrwt beam="2">  1       -2 0.27692746E-01 0.10730731E+04</pdfrwt>
<totfact> 0.13199789E+02</totfact>
</mgrwt>
</event>
<event>
12    2  0.3555611E-008  0.1340385E+04  0.7818608E-02  0.8998138E-01
         -2   -1    0    0    0  501 -0.00000000000E+00  0.00000000000E+00  0.16714185258E+04  0.16714185258E+04  0.00000000000E+00 0.  1.
          2   -1    0    0  501    0  0.00000000000E+00 -0.00000000000E+00 -0.26872869468E+03  0.26872869468E+03  0.00000000000E+00 0. -1.
         23    2    1    2    0    0 -0.67246368958E+02 -0.32884739514E+03  0.16534393319E+03  0.38504335294E+03  0.90868498225E+02 0.  0.
        254    2    1    2    0    0  0.67246368958E+02  0.32884739514E+03  0.12373458979E+04  0.15551038675E+04  0.88014798996E+03 0.  0.
         23    2    4    4    0    0  0.42406693835E+03  0.62577486777E+02  0.85657376930E+03  0.96234124828E+03  0.92915799738E+02 0.  0.
         23    2    4    4    0    0 -0.35682056939E+03  0.26626990837E+03  0.38077212862E+03  0.59276261923E+03  0.90330094554E+02 0.  0.
          2    1    3    3  502    0 -0.45634580222E+02 -0.14901381750E+03  0.29445452493E+02  0.15860223010E+03  0.00000000000E+00 0. -1.
         -2    1    3    3    0  502 -0.21611788736E+02 -0.17983357764E+03  0.13589848069E+03  0.22644112284E+03  0.00000000000E+00 0.  1.
         11    1    5    5    0    0  0.38196358322E+03  0.26393516216E+02  0.73754414974E+03  0.83100190700E+03  0.00000000000E+00 0.  1.
        -11    1    5    5    0    0  0.42103355129E+02  0.36183970561E+02  0.11902961955E+03  0.13133934129E+03  0.00000000000E+00 0. -1.
          2    1    6    6  503    0 -0.44118454406E+02  0.56382299444E+02  0.28431753766E+02  0.77030943990E+02  0.00000000000E+00 0. -1.
         -2    1    6    6    0  503 -0.31270211499E+03  0.20988760892E+03  0.35234037485E+03  0.51573167524E+03  0.00000000000E+00 0.  1.
<mgrwt>
<rscale>  0 0.13403852E+04</rscale>
<asrwt>0</asrwt>
<pdfrwt beam="1">  1        2 0.41342877E-01 0.13403852E+04</pdfrwt>
<pdfrwt beam="2">  1       -2 0.25714131E+00 0.13403852E+04</pdfrwt>
<totfact> 0.70629115E+00</totfact>
</mgrwt>
</event>
<event>
12    2  0.3555611E-008  0.3328835E+04  0.7818608E-02  0.8155597E-01
          1   -1    0    0  501    0  0.00000000000E+00  0.00000000000E+00  0.26036245414E+04  0.26036245414E+04  0.00000000000E+00 0. -1.
         -1   -1    0    0    0  501 -0.00000000000E+00 -0.00000000000E+00 -0.10640111144E+04  0.10640111144E+04  0.00000000000E+00 0.  1.
         23    2    1    2    0    0 -0.59846364897E+03  0.13989103466E+04  0.98629196391E+03  0.18157899573E+04  0.95981423848E+02 0.  0.
        254    2    1    2    0    0  0.59846364897E+03 -0.13989103466E+04  0.55332146308E+03  0.18518456986E+04  0.89892099356E+03 0.  0.
         23    2    4    4    0    0  0.24024939650E+03 -0.12648257362E+04  0.16944791068E+03  0.13017663587E+04  0.91537657569E+02 0.  0.
         23    2    4    4    0    0  0.35821425248E+03 -0.13408461046E+03  0.38387355239E+03  0.55007933987E+03  0.94510541630E+02 0.  0.
          1    1    3    3  502    0 -0.48640054199E+03  0.10966875513E+04  0.81923628644E+03  0.14527412590E+04  0.00000000000E+00 0. -1.
         -1    1    3    3    0  502 -0.11206310698E+03  0.30222279534E+03  0.16705567746E+03  0.36304869831E+03  0.00000000000E+00 0.  1.
         11    1    5    5    0    0  0.14622847854E+03 -0.57849938504E+03  0.49752360163E+02  0.59876506559E+03  0.00000000000E+00 0. -1.
        -11    1    5    5    0    0  0.94020917954E+02 -0.68632635114E+03  0.11969555052E+03  0.70300129310E+03  0.00000000000E+00 0.  1.
          1    1    6    6  503    0  0.72111065036E+01  0.90898634847E+01  0.27242526359E+02  0.29610486615E+02  0.00000000000E+00 0. -1.
         -1    1    6    6    0  503  0.35100314597E+03 -0.14317447395E+03  0.35663102603E+03  0.52046885325E+03  0.00000000000E+00 0.  1.
<mgrwt>
<rscale>  0 0.33288349E+04</rscale>
<asrwt>0</asrwt>
<pdfrwt beam="1">  1        1 0.40055762E+00 0.33288349E+04</pdfrwt>
<pdfrwt beam="2">  1       -1 0.16369402E+00 0.33288349E+04</pdfrwt>
<totfact> 0.26011535E-01</totfact>
</mgrwt>
</event>
<event>
12    2  0.3555611E-008  0.1621737E+04  0.7818608E-02  0.8807304E-01
          1   -1    0    0  501    0  0.00000000000E+00  0.00000000000E+00  0.44044242928E+03  0.44044242928E+03  0.00000000000E+00 0. -1.
         -1   -1    0    0    0  501 -0.00000000000E+00 -0.00000000000E+00 -0.14928351272E+04  0.14928351272E+04  0.00000000000E+00 0.  1.
         23    2    1    2    0    0  0.87950714703E+02 -0.27982710963E+03  0.20084921449E+03  0.36760932667E+03  0.93582426715E+02 0.  0.
        254    2    1    2    0    0 -0.87950714703E+02  0.27982710963E+03 -0.12532419124E+04  0.15656682298E+04  0.89143882310E+03 0.  0.
         23    2    4    4    0    0  0.26839909488E+03 -0.76588693688E+02 -0.89131945527E+03  0.93856611382E+03  0.92477437934E+02 0.  0.
         23    2    4    4    0    0 -0.35634980959E+03  0.35641580332E+03 -0.36192245712E+03  0.62710211599E+03  0.90839348608E+02 0.  0.
          2    1    3    3  502    0  0.97859387695E+02 -0.24545520208E+03  0.20072717766E+03  0.33183748408E+03  0.00000000000E+00 0. -1.
         -2    1    3    3    0  502 -0.99086729916E+01 -0.34371907548E+02  0.12203682866E+00  0.35771842585E+02  0.00000000000E+00 0.  1.
         11    1    5    5    0    0 -0.25961393903E+01 -0.56443613704E+01 -0.25852390065E+01  0.67292061741E+01  0.00000000000E+00 0. -1.
        -11    1    5    5    0    0  0.27099523427E+03 -0.70944332318E+02 -0.88873421627E+03  0.93183690765E+03  0.00000000000E+00 0.  1.
          3    1    6    6  503    0 -0.99867941435E+02  0.16112323287E+03 -0.12581930849E+03  0.22751879106E+03  0.00000000000E+00 0. -1.
         -3    1    6    6    0  503 -0.25648186815E+03  0.19529257045E+03 -0.23610314863E+03  0.39958332492E+03  0.00000000000E+00 0.  1.
<mgrwt>
<rscale>  0 0.16217373E+04</rscale>
<asrwt>0</asrwt>
<pdfrwt beam="1">  1        1 0.67760374E-01 0.16217373E+04</pdfrwt>
<pdfrwt beam="2">  1       -1 0.22966694E+00 0.16217373E+04</pdfrwt>
<totfact> 0.47903782E+00</totfact>
</mgrwt>
</event>
<event>
12    2  0.3555611E-008  0.1699550E+04  0.7818608E-02  0.8761621E-01
         -1   -1    0    0    0  501 -0.00000000000E+00  0.00000000000E+00  0.41411591794E+03  0.41411591794E+03  0.00000000000E+00 0.  1.
          1   -1    0    0  501    0  0.00000000000E+00 -0.00000000000E+00 -0.17437561577E+04  0.17437561577E+04  0.00000000000E+00 0. -1.
         23    2    1    2    0    0 -0.44522458572E+03  0.20786138288E+03 -0.39681943570E+02  0.50095441452E+03  0.89159309986E+02 0.  0.
        254    2    1    2    0    0  0.44522458572E+03 -0.20786138288E+03 -0.12899582962E+04  0.16569176612E+04  0.91648919451E+03 0.  0.
         23    2    4    4    0    0  0.70313988879E+03 -0.20277722077E+03 -0.75295187854E+03  0.10537646640E+04  0.89213963590E+02 0.  0.
         23    2    4    4    0    0 -0.25791530306E+03 -0.50841621171E+01 -0.53700641769E+03  0.60315299714E+03  0.94188603641E+02 0.  0.
          1    1    3    3  502    0 -0.21485768026E+03  0.56328397710E+02  0.17242638627E+01  0.22212537955E+03  0.00000000000E+00 0. -1.
         -1    1    3    3    0  502 -0.23036690546E+03  0.15153298517E+03 -0.41406207433E+02  0.27882903496E+03  0.00000000000E+00 0.  1.
         11    1    5    5    0    0  0.56042647507E+03 -0.16500085795E+03 -0.54663712929E+03  0.80007203939E+03  0.00000000000E+00 0.  1.
        -11    1    5    5    0    0  0.14271341371E+03 -0.37776362810E+02 -0.20631474925E+03  0.25369262464E+03  0.00000000000E+00 0. -1.
          4    1    6    6  503    0 -0.39891388642E+02  0.53251305449E+01 -0.27171128717E+02  0.48558728761E+02  0.00000000000E+00 0. -1.
         -4    1    6    6    0  503 -0.21802391442E+03 -0.10409292662E+02 -0.50983528897E+03  0.55459426837E+03  0.00000000000E+00 0.  1.
<mgrwt>
<rscale>  0 0.16995496E+04</rscale>
<asrwt>0</asrwt>
<pdfrwt beam="1">  1        1 0.26827018E+00 0.16995496E+04</pdfrwt>
<pdfrwt beam="2">  1       -1 0.63710142E-01 0.16995496E+04</pdfrwt>
<totfact> 0.10579850E+01</totfact>
</mgrwt>
</event>
<event>
12    2  0.3555611E-008  0.2111928E+04  0.7818608E-02  0.8556007E-01
          2   -1    0    0  501    0  0.00000000000E+00  0.00000000000E+00  0.33569289055E+04  0.33569289055E+04  0.00000000000E+00 0. -1.
         -2   -1    0    0    0  501 -0.00000000000E+00 -0.00000000000E+00 -0.33216665317E+03  0.33216665317E+03  0.00000000000E+00 0.  1.
         23    2    1    2    0    0  0.25433687038E+03 -0.11444011658E+03  0.26380450367E+04  0.26555324087E+04  0.12160170180E+03 0.  0.
        254    2    1    2    0    0 -0.25433687038E+03  0.11444011658E+03  0.38671721560E+03  0.10335631500E+04  0.91701624643E+03 0.  0.
         23    2    4    4    0    0 -0.28269867679E+03 -0.22479431665E+03 -0.14153339926E+03  0.39872769851E+03  0.92201126848E+02 0.  0.
         23    2    4    4    0    0  0.28361806409E+02  0.33923443324E+03  0.52825061486E+03  0.63483545146E+03  0.89905203282E+02 0.  0.
          1    1    3    3  502    0  0.11453082456E+03 -0.10393127148E+03  0.17068211899E+04  0.17138137569E+04  0.00000000000E+00 0. -1.
         -1    1    3    3    0  502  0.13980604582E+03 -0.10508845100E+02  0.93122384684E+03  0.94171865182E+03  0.00000000000E+00 0.  1.
         11    1    5    5    0    0 -0.28159020351E+03 -0.20372202820E+03 -0.11781753304E+03  0.36698321294E+03  0.00000000000E+00 0. -1.
        -11    1    5    5    0    0 -0.11084732824E+01 -0.21072288452E+02 -0.23715866217E+02  0.31744485569E+02  0.00000000000E+00 0.  1.
          3    1    6    6  503    0  0.38745386360E+02  0.21064388335E+03  0.25757645390E+03  0.33498907469E+03  0.00000000000E+00 0. -1.
         -3    1    6    6    0  503 -0.10383579951E+02  0.12859054989E+03  0.27067416096E+03  0.29984637677E+03  0.00000000000E+00 0.  1.
<mgrwt>
<rscale>  0 0.21119279E+04</rscale>
<asrwt>0</asrwt>
<pdfrwt beam="1">  1        2 0.51645058E+00 0.21119279E+04</pdfrwt>
<pdfrwt beam="2">  1       -2 0.51102564E-01 0.21119279E+04</pdfrwt>
<totfact> 0.34100987E+00</totfact>
</mgrwt>
</event>
<event>
12    2  0.3555611E-008  0.1948706E+04  0.7818608E-02  0.8630985E-01
         -2   -1    0    0    0  501 -0.00000000000E+00  0.00000000000E+00  0.10414649501E+04  0.10414649501E+04  0.00000000000E+00 0.  1.
          2   -1    0    0  501    0  0.00000000000E+00 -0.00000000000E+00 -0.91156576713E+03  0.91156576713E+03  0.00000000000E+00 0. -1.
         23    2    1    2    0    0  0.19303856080E+03 -0.23571928439E+03 -0.64577163672E+03  0.71996240673E+03  0.92181306749E+02 0.  0.
        254    2    1    2    0    0 -0.19303856080E+03  0.23571928439E+03  0.77567081969E+03  0.12330683105E+04  0.90882603994E+03 0.  0.
         23    2    4    4    0    0  0.15770956164E+03  0.42689997743E+03  0.65966341628E+03  0.80661104356E+03  0.91376453471E+02 0.  0.
         23    2    4    4    0    0 -0.35074812245E+03 -0.19118069304E+03  0.11600740341E+03  0.42645726695E+03  0.93988191264E+02 0.  0.
          1    1    3    3  502    0  0.19143982907E+03 -0.19398233274E+03 -0.51480503164E+03  0.58249684477E+03  0.00000000000E+00 0. -1.
         -1    1    3    3    0  502  0.15987317318E+01 -0.41736951659E+02 -0.13096660508E+03  0.13746556195E+03  0.00000000000E+00 0.  1.
         11    1    5    5    0    0  0.13528387447E+03  0.24607355129E+03  0.37185337381E+03  0.46597086921E+03  0.00000000000E+00 0.  1.
        -11    1    5    5    0    0  0.22425687175E+02  0.18082642614E+03  0.28781004246E+03  0.34064017435E+03  0.00000000000E+00 0. -1.
          1    1    6    6  503    0 -0.11707102485E+03 -0.61155603144E+02 -0.66573788409E+01  0.13224958733E+03  0.00000000000E+00 0. -1.
         -1    1    6    6    0  503 -0.23367709759E+03 -0.13002508989E+03  0.12266478225E+03  0.29420767962E+03  0.00000000000E+00 0.  1.
<mgrwt>
<rscale>  0 0.19487060E+04</rscale>
<asrwt>0</asrwt>
<pdfrwt beam="1">  1        2 0.14024089E+00 0.19487060E+04</pdfrwt>
<pdfrwt beam="2">  1       -2 0.16022538E+00 0.19487060E+04</pdfrwt>
<totfact> 0.67397418E+00</totfact>
</mgrwt>
</event>
<event>
12    2  0.3555611E-008  0.1362863E+04  0.7818608E-02  0.8981148E-01
         -2   -1    0    0    0  501 -0.00000000000E+00  0.00000000000E+00  0.19730623815E+03  0.19730623815E+03  0.00000000000E+00 0.  1.
          2   -1    0    0  501    0  0.00000000000E+00 -0.00000000000E+00 -0.23534424421E+04  0.23534424421E+04  0.00000000000E+00 0. -1.
         23    2    1    2    0    0 -0.16001309328E+03 -0.26166336526E+03 -0.11767070787E+04  0.12194537075E+04  0.91410552216E+02 0.  0.
        254    2    1    2    0    0  0.16001309328E+03  0.26166336526E+03 -0.97942912523E+03  0.13312949727E+04  0.84793454123E+03 0.  0.
         23    2    4    4    0    0  0.11782570790E+03  0.52390146025E+03 -0.87795907432E+03  0.10331853394E+04  0.91127229369E+02 0.  0.
         23    2    4    4    0    0  0.42187385377E+02 -0.26223809499E+03 -0.10147005090E+03  0.29810963325E+03  0.89580066204E+02 0.  0.
          1    1    3    3  502    0 -0.15551925743E+03 -0.20360719829E+03 -0.10352077056E+04  0.10664413365E+04  0.00000000000E+00 0. -1.
         -1    1    3    3    0  502 -0.44938358505E+01 -0.58056166970E+02 -0.14149937314E+03  0.15301237102E+03  0.00000000000E+00 0.  1.
         11    1    5    5    0    0  0.54760440176E+02  0.25113183703E+03 -0.33446191732E+03  0.42181830154E+03  0.00000000000E+00 0. -1.
        -11    1    5    5    0    0  0.63065267727E+02  0.27276962321E+03 -0.54349715700E+03  0.61136703789E+03  0.00000000000E+00 0.  1.
          4    1    6    6  503    0  0.11663268476E+02 -0.19521673677E+01  0.78064218673E+01  0.14169792213E+02  0.00000000000E+00 0. -1.
         -4    1    6    6    0  503  0.30524116901E+02 -0.26028592762E+03 -0.10927647277E+03  0.28393984104E+03  0.00000000000E+00 0.  1.
<mgrwt>
<rscale>  0 0.13628630E+04</rscale>
<asrwt>0</asrwt>
<pdfrwt beam="1">  1        2 0.36206804E+00 0.13628630E+04</pdfrwt>
<pdfrwt beam="2">  1       -2 0.30354808E-01 0.13628630E+04</pdfrwt>
<totfact> 0.41496376E+01</totfact>
</mgrwt>
</event>
<event>
12    2  0.3555611E-008  0.1379633E+04  0.7818608E-02  0.8968695E-01
         -1   -1    0    0    0  501 -0.00000000000E+00  0.00000000000E+00  0.53426053558E+03  0.53426053558E+03  0.00000000000E+00 0.  1.
          1   -1    0    0  501    0  0.00000000000E+00 -0.00000000000E+00 -0.89066443222E+03  0.89066443222E+03  0.00000000000E+00 0. -1.
         23    2    1    2    0    0  0.33033147992E+03 -0.29590914382E+02  0.10790013354E+03  0.36043198961E+03  0.90963022585E+02 0.  0.
        254    2    1    2    0    0 -0.33033147992E+03  0.29590914382E+02 -0.46430403018E+03  0.10644929782E+04  0.89865040997E+03 0.  0.
         23    2    4    4    0    0  0.16116947047E+03  0.17448264576E+03  0.12044341244E+03  0.28168087054E+03  0.91748053610E+02 0.  0.
         23    2    4    4    0    0 -0.49150095039E+03 -0.14489173138E+03 -0.58474744263E+03  0.78281210766E+03  0.91095697921E+02 0.  0.
          1    1    3    3  502    0  0.16090266863E+03  0.23122980540E+02  0.24579635111E+02  0.16440346549E+03  0.00000000000E+00 0. -1.
         -1    1    3    3    0  502  0.16942881128E+03 -0.52713894921E+02  0.83320498426E+02  0.19602852412E+03  0.00000000000E+00 0.  1.
         11    1    5    5    0    0  0.88720266218E+02  0.11140809181E+03  0.11903221884E+03  0.18561173907E+03  0.00000000000E+00 0. -1.
        -11    1    5    5    0    0  0.72449204252E+02  0.63074553953E+02  0.14111936016E+01  0.96069131465E+02  0.00000000000E+00 0.  1.
          3    1    6    6  503    0 -0.46750871084E+03 -0.12547147943E+03 -0.57223156484E+03  0.74950413652E+03  0.00000000000E+00 0. -1.
         -3    1    6    6    0  503 -0.23992239552E+02 -0.19420251951E+02 -0.12515877786E+02  0.33307971138E+02  0.00000000000E+00 0.  1.
<mgrwt>
<rscale>  0 0.13796331E+04</rscale>
<asrwt>0</asrwt>
<pdfrwt beam="1">  1        1 0.13702530E+00 0.13796331E+04</pdfrwt>
<pdfrwt beam="2">  1       -1 0.82193929E-01 0.13796331E+04</pdfrwt>
<totfact> 0.26636494E+01</totfact>
</mgrwt>
</event>
<event>
12    2  0.3555611E-008  0.1100563E+04  0.7818608E-02  0.9204643E-01
         -2   -1    0    0    0  501 -0.00000000000E+00  0.00000000000E+00  0.29182562430E+03  0.29182562430E+03  0.00000000000E+00 0. -1.
          2   -1    0    0  501    0  0.00000000000E+00 -0.00000000000E+00 -0.10376392208E+04  0.10376392208E+04  0.00000000000E+00 0.  1.
         23    2    1    2    0    0  0.32169049686E+02 -0.12258642503E+03 -0.20404658679E+01  0.15704989346E+03  0.92726620636E+02 0.  0.
        254    2    1    2    0    0 -0.32169049686E+02  0.12258642503E+03 -0.74377313063E+03  0.11724149516E+04  0.89738290024E+03 0.  0.
         23    2    4    4    0    0  0.29667948938E+03 -0.10199704935E+03 -0.24798783524E+01  0.32587610962E+03  0.88130423402E+02 0.  0.
         23    2    4    4    0    0 -0.32884853907E+03  0.22458347438E+03 -0.74129325228E+03  0.84653884203E+03  0.92375465231E+02 0.  0.
          3    1    3    3  502    0  0.23712130573E+02 -0.13562959739E+03  0.90041221215E+01  0.13798089375E+03  0.00000000000E+00 0. -1.
         -3    1    3    3    0  502  0.84569191135E+01  0.13043172359E+02 -0.11044587989E+02  0.19068999710E+02  0.00000000000E+00 0.  1.
         11    1    5    5    0    0  0.28783167247E+03 -0.10566731301E+03  0.13868351889E+02  0.30692830417E+03  0.00000000000E+00 0.  1.
        -11    1    5    5    0    0  0.88478169137E+01  0.36702636608E+01 -0.16348230242E+02  0.18947805454E+02  0.00000000000E+00 0. -1.
          1    1    6    6  503    0 -0.13797621291E+03  0.88035324806E+02 -0.40149460368E+03  0.43357302791E+03  0.00000000000E+00 0. -1.
         -1    1    6    6    0  503 -0.19087232615E+03  0.13654814958E+03 -0.33979864860E+03  0.41296581412E+03  0.00000000000E+00 0.  1.
<mgrwt>
<rscale>  0 0.11005630E+04</rscale>
<asrwt>0</asrwt>
<pdfrwt beam="1">  1        2 0.15963680E+00 0.11005630E+04</pdfrwt>
<pdfrwt beam="2">  1       -2 0.44896250E-01 0.11005630E+04</pdfrwt>
<totfact> 0.11127329E+02</totfact>
</mgrwt>
</event>
<event>
12    2  0.3555611E-008  0.1260079E+04  0.7818608E-02  0.9061836E-01
          2   -1    0    0  501    0  0.00000000000E+00  0.00000000000E+00  0.32972115906E+04  0.32972115906E+04  0.00000000000E+00 0. -1.
         -2   -1    0    0    0  501 -0.00000000000E+00 -0.00000000000E+00 -0.12038959844E+03  0.12038959844E+03  0.00000000000E+00 0.  1.
         23    2    1    2    0    0  0.18800187129E+03  0.21149056780E+03  0.10115142533E+04  0.10542821800E+04  0.90977286077E+02 0.  0.
        254    2    1    2    0    0 -0.18800187129E+03 -0.21149056780E+03  0.21653077389E+04  0.23633190090E+04  0.90368477388E+03 0.  0.
         23    2    4    4    0    0  0.32486196538E+03 -0.17595814382E+03  0.12691111390E+04  0.13249716052E+04  0.91706632950E+02 0.  0.
         23    2    4    4    0    0 -0.51286383667E+03 -0.35532423982E+02  0.89619659989E+03  0.10383474038E+04  0.10346553682E+03 0.  0.
          2    1    3    3  502    0  0.10611360580E+03  0.16581619975E+03  0.78096179476E+03  0.80539209973E+03  0.00000000000E+00 0. -1.
         -2    1    3    3    0  502  0.81888265493E+02  0.45674368053E+02  0.23055245851E+03  0.24889008025E+03  0.00000000000E+00 0.  1.
         11    1    5    5    0    0  0.27074504568E+03 -0.18197210155E+03  0.10870285605E+04  0.11349219430E+04  0.00000000000E+00 0.  1.
        -11    1    5    5    0    0  0.54116919694E+02  0.60139577328E+01  0.18208257850E+03  0.19004966214E+03  0.00000000000E+00 0. -1.
          1    1    6    6  503    0 -0.13039710092E+03 -0.53730369183E+02  0.26108682847E+03  0.29674347255E+03  0.00000000000E+00 0. -1.
         -1    1    6    6    0  503 -0.38246673575E+03  0.18197945201E+02  0.63510977142E+03  0.74160393129E+03  0.00000000000E+00 0.  1.
<mgrwt>
<rscale>  0 0.12600793E+04</rscale>
<asrwt>0</asrwt>
<pdfrwt beam="1">  1        2 0.50726325E+00 0.12600793E+04</pdfrwt>
<pdfrwt beam="2">  1       -2 0.18521479E-01 0.12600793E+04</pdfrwt>
<totfact> 0.27373512E+01</totfact>
</mgrwt>
</event>
<event>
12    2  0.3555611E-008  0.1206996E+04  0.7818608E-02  0.9106755E-01
         -2   -1    0    0    0  501 -0.00000000000E+00  0.00000000000E+00  0.12679698137E+03  0.12679698137E+03  0.00000000000E+00 0.  1.
          2   -1    0    0  501    0  0.00000000000E+00 -0.00000000000E+00 -0.28723848021E+04  0.28723848021E+04  0.00000000000E+00 0. -1.
         23    2    1    2    0    0  0.11728034501E+03  0.55474312189E+02 -0.73444285331E+02  0.17453070521E+03  0.90745938619E+02 0.  0.
        254    2    1    2    0    0 -0.11728034501E+03 -0.55474312189E+02 -0.26721435354E+04  0.28246510782E+04  0.90635013184E+03 0.  0.
         23    2    4    4    0    0  0.84248551182E+01 -0.46540551727E+03 -0.13022959886E+04  0.13860713257E+04  0.92442437369E+02 0.  0.
         23    2    4    4    0    0 -0.12570520013E+03  0.40993120508E+03 -0.13698475468E+04  0.14385797526E+04  0.95833255488E+02 0.  0.
          1    1    3    3  502    0 -0.55802030867E+01 -0.53303416666E+01  0.11065705323E+02  0.13490776222E+02  0.00000000000E+00 0. -1.
         -1    1    3    3    0  502  0.12286054809E+03  0.60804653856E+02 -0.84509990654E+02  0.16103992899E+03  0.00000000000E+00 0.  1.
         11    1    5    5    0    0  0.26989588357E+02 -0.19885765718E+03 -0.44629625515E+03  0.48933950694E+03  0.00000000000E+00 0. -1.
        -11    1    5    5    0    0 -0.18564733238E+02 -0.26654786009E+03 -0.85599973346E+03  0.89673181873E+03  0.00000000000E+00 0.  1.
          4    1    6    6  503    0  0.10804812732E+02  0.65942070778E+02 -0.26959993487E+03  0.27775749416E+03  0.00000000000E+00 0.  1.
         -4    1    6    6    0  503 -0.13651001286E+03  0.34398913430E+03 -0.11002476119E+04  0.11608222584E+04  0.00000000000E+00 0. -1.
<mgrwt>
<rscale>  0 0.12069958E+04</rscale>
<asrwt>0</asrwt>
<pdfrwt beam="1">  1        2 0.44190532E+00 0.12069958E+04</pdfrwt>
<pdfrwt beam="2">  1       -2 0.19507229E-01 0.12069958E+04</pdfrwt>
<totfact> 0.46569068E+01</totfact>
</mgrwt>
</event>
<event>
12    2  0.3555611E-008  0.1295306E+04  0.7818608E-02  0.9033296E-01
          1   -1    0    0  501    0  0.00000000000E+00  0.00000000000E+00  0.97679235783E+03  0.97679235783E+03  0.00000000000E+00 0. -1.
         -1   -1    0    0    0  501 -0.00000000000E+00 -0.00000000000E+00 -0.42942034544E+03  0.42942034544E+03  0.00000000000E+00 0.  1.
         23    2    1    2    0    0 -0.11222620324E+03 -0.18541829954E+03  0.41954526202E+03  0.48064695451E+03  0.89602463677E+02 0.  0.
        254    2    1    2    0    0  0.11222620324E+03  0.18541829954E+03  0.12782675037E+03  0.92556574875E+03  0.89070624263E+03 0.  0.
         23    2    4    4    0    0  0.40746302911E+03  0.60383611162E+02 -0.19004299294E+03  0.46495679314E+03  0.10196165814E+03 0.  0.
         23    2    4    4    0    0 -0.29523682587E+03  0.12503468838E+03  0.31786974331E+03  0.46060895561E+03  0.91219403824E+02 0.  0.
          1    1    3    3  502    0 -0.77136620019E+02 -0.11299173220E+03  0.16866967294E+03  0.21717883935E+03  0.00000000000E+00 0. -1.
         -1    1    3    3    0  502 -0.35089583222E+02 -0.72426567345E+02  0.25087558908E+03  0.26346811516E+03  0.00000000000E+00 0.  1.
         11    1    5    5    0    0  0.30082371730E+03  0.29697190370E+01 -0.15737657121E+03  0.33951599857E+03  0.00000000000E+00 0. -1.
        -11    1    5    5    0    0  0.10663931181E+03  0.57413892125E+02 -0.32666421732E+02  0.12544079457E+03  0.00000000000E+00 0.  1.
          3    1    6    6  503    0 -0.13957935694E+03  0.16699446753E+02  0.16687388556E+03  0.21819294693E+03  0.00000000000E+00 0. -1.
         -3    1    6    6    0  503 -0.15565746893E+03  0.10833524163E+03  0.15099585774E+03  0.24241600869E+03  0.00000000000E+00 0.  1.
<mgrwt>
<rscale>  0 0.12953062E+04</rscale>
<asrwt>0</asrwt>
<pdfrwt beam="1">  1        1 0.15027575E+00 0.12953062E+04</pdfrwt>
<pdfrwt beam="2">  1       -1 0.66064669E-01 0.12953062E+04</pdfrwt>
<totfact> 0.36020937E+01</totfact>
</mgrwt>
</event>
<event>
12    2  0.3555611E-008  0.1267708E+04  0.7818608E-02  0.9055572E-01
         -1   -1    0    0    0  501 -0.00000000000E+00  0.00000000000E+00  0.40495855131E+03  0.40495855131E+03  0.00000000000E+00 0.  1.
          1   -1    0    0  501    0  0.00000000000E+00 -0.00000000000E+00 -0.99212891831E+03  0.99212891831E+03  0.00000000000E+00 0. -1.
         23    2    1    2    0    0  0.30925227410E+03  0.40865041566E+02 -0.68353854294E+02  0.33175577593E+03  0.89903975490E+02 0.  0.
        254    2    1    2    0    0 -0.30925227410E+03 -0.40865041566E+02 -0.51881651270E+03  0.10653316937E+04  0.87661515106E+03 0.  0.
         23    2    4    4    0    0 -0.22042442839E+03  0.40095232307E+03 -0.31329994372E+03  0.56157104584E+03  0.88631206643E+02 0.  0.
         23    2    4    4    0    0 -0.88827845715E+02 -0.44181736463E+03 -0.20551656898E+03  0.50376064785E+03  0.91895377065E+02 0.  0.
          1    1    3    3  502    0  0.10977673624E+02  0.17529349980E+02 -0.19843035167E+02  0.28662405230E+02  0.00000000000E+00 0. -1.
         -1    1    3    3    0  502  0.29827460048E+03  0.23335691586E+02 -0.48510819128E+02  0.30309337070E+03  0.00000000000E+00 0.  1.
         11    1    5    5    0    0  0.35923203717E+01  0.43151558426E+02 -0.21123634291E+02  0.48178518926E+02  0.00000000000E+00 0. -1.
        -11    1    5    5    0    0 -0.22401674876E+03  0.35780076464E+03 -0.29217630942E+03  0.51339252691E+03  0.00000000000E+00 0.  1.
          3    1    6    6  503    0 -0.42984337208E+02 -0.53664236663E+02 -0.37599612253E+02  0.78366028248E+02  0.00000000000E+00 0. -1.
         -3    1    6    6    0  503 -0.45843508507E+02 -0.38815312797E+03 -0.16791695673E+03  0.42539461960E+03  0.00000000000E+00 0.  1.
<mgrwt>
<rscale>  0 0.12677083E+04</rscale>
<asrwt>0</asrwt>
<pdfrwt beam="1">  1        1 0.15263522E+00 0.12677083E+04</pdfrwt>
<pdfrwt beam="2">  1       -1 0.62301316E-01 0.12677083E+04</pdfrwt>
<totfact> 0.39501434E+01</totfact>
</mgrwt>
</event>
<event>
12    2  0.3555611E-008  0.1902111E+04  0.7818608E-02  0.8653806E-01
         -1   -1    0    0    0  501 -0.00000000000E+00  0.00000000000E+00  0.41192885228E+03  0.41192885228E+03  0.00000000000E+00 0.  1.
          1   -1    0    0  501    0  0.00000000000E+00 -0.00000000000E+00 -0.21957836203E+04  0.21957836203E+04  0.00000000000E+00 0. -1.
         23    2    1    2    0    0  0.38021270834E+03 -0.57995806144E+03 -0.38883202768E+03  0.80275035377E+03  0.11092667898E+03 0.  0.
        254    2    1    2    0    0 -0.38021270834E+03  0.57995806144E+03 -0.13950227403E+04  0.18049621188E+04  0.91152989403E+03 0.  0.
         23    2    4    4    0    0 -0.13838406959E+03 -0.18441999703E+03 -0.69120976252E+03  0.73428130948E+03  0.90759129705E+02 0.  0.
         23    2    4    4    0    0 -0.24182863875E+03  0.76437805847E+03 -0.70381297779E+03  0.10706808093E+04  0.90828304750E+02 0.  0.
          1    1    3    3  502    0  0.40654696693E+02 -0.80214892406E+02 -0.12118346891E+02  0.90741873787E+02  0.00000000000E+00 0. -1.
         -1    1    3    3    0  502  0.33955801165E+03 -0.49974316903E+03 -0.37671368079E+03  0.71200847998E+03  0.00000000000E+00 0.  1.
         11    1    5    5    0    0 -0.55461195882E+02 -0.13160694252E+03 -0.48916885082E+03  0.50959051814E+03  0.00000000000E+00 0.  1.
        -11    1    5    5    0    0 -0.82922873707E+02 -0.52813054518E+02 -0.20204091171E+03  0.22469079134E+03  0.00000000000E+00 0. -1.
          3    1    6    6  503    0 -0.27675012180E+02  0.36458726264E+02 -0.60765181460E+02  0.76075963995E+02  0.00000000000E+00 0. -1.
         -3    1    6    6    0  503 -0.21415362657E+03  0.72791933221E+03 -0.64304779633E+03  0.99460484532E+03  0.00000000000E+00 0.  1.
<mgrwt>
<rscale>  0 0.19021111E+04</rscale>
<asrwt>0</asrwt>
<pdfrwt beam="1">  1        1 0.33781287E+00 0.19021111E+04</pdfrwt>
<pdfrwt beam="2">  1       -1 0.63373669E-01 0.19021111E+04</pdfrwt>
<totfact> 0.51815958E+00</totfact>
</mgrwt>
</event>
<event>
12    2  0.3555611E-008  0.1619142E+04  0.7818608E-02  0.8808874E-01
         -1   -1    0    0    0  501 -0.00000000000E+00  0.00000000000E+00  0.68201657312E+03  0.68201657312E+03  0.00000000000E+00 0.  1.
          1   -1    0    0  501    0  0.00000000000E+00 -0.00000000000E+00 -0.96098154598E+03  0.96098154598E+03  0.00000000000E+00 0. -1.
         23    2    1    2    0    0 -0.10799565142E+03 -0.42932057512E+03 -0.44272871146E+03  0.63302730806E+03  0.93464666266E+02 0.  0.
        254    2    1    2    0    0  0.10799565142E+03  0.42932057512E+03  0.16376373860E+03  0.10099708110E+04  0.89288479667E+03 0.  0.
         23    2    4    4    0    0 -0.37962254294E+03  0.19642773618E+03  0.14872352393E+03  0.46165440808E+03  0.91153580754E+02 0.  0.
         23    2    4    4    0    0  0.48761819436E+03  0.23289283895E+03  0.15040214673E+02  0.54831640296E+03  0.91728358747E+02 0.  0.
          2    1    3    3  502    0 -0.40905586845E+02 -0.26245902080E+03 -0.31707419297E+03  0.41363516350E+03  0.00000000000E+00 0. -1.
         -2    1    3    3    0  502 -0.67090064574E+02 -0.16686155432E+03 -0.12565451849E+03  0.21939214455E+03  0.00000000000E+00 0.  1.
         11    1    5    5    0    0 -0.99224779936E+02  0.15894116461E+02  0.11914364596E+02  0.10119353722E+03  0.00000000000E+00 0. -1.
        -11    1    5    5    0    0 -0.28039776300E+03  0.18053361972E+03  0.13680915933E+03  0.36046087086E+03  0.00000000000E+00 0.  1.
          1    1    6    6  503    0  0.32476719427E+03  0.19869853822E+03  0.25526340023E+02  0.38158411078E+03  0.00000000000E+00 0. -1.
         -1    1    6    6    0  503  0.16285100009E+03  0.34194300729E+02 -0.10486125351E+02  0.16673229218E+03  0.00000000000E+00 0.  1.
<mgrwt>
<rscale>  0 0.16191422E+04</rscale>
<asrwt>0</asrwt>
<pdfrwt beam="1">  1        1 0.14784332E+00 0.16191422E+04</pdfrwt>
<pdfrwt beam="2">  1       -1 0.10492563E+00 0.16191422E+04</pdfrwt>
<totfact> 0.13273721E+01</totfact>
</mgrwt>
</event>
<event>
12    2  0.3555611E-008  0.2568325E+04  0.7818608E-02  0.8379041E-01
          2   -1    0    0  501    0  0.00000000000E+00  0.00000000000E+00  0.78915305563E+03  0.78915305563E+03  0.00000000000E+00 0. -1.
         -2   -1    0    0    0  501 -0.00000000000E+00 -0.00000000000E+00 -0.20896754522E+04  0.20896754522E+04  0.00000000000E+00 0.  1.
         23    2    1    2    0    0 -0.35822703367E+03  0.37205317371E+03 -0.16886552508E+04  0.17683540475E+04  0.93644591385E+02 0.  0.
        254    2    1    2    0    0  0.35822703367E+03 -0.37205317371E+03  0.38813285419E+03  0.11104744604E+04  0.90319225138E+03 0.  0.
         23    2    4    4    0    0  0.30202911231E+03 -0.56319251200E+03 -0.20800520612E+02  0.64608187094E+03  0.92637638386E+02 0.  0.
         23    2    4    4    0    0  0.56197921358E+02  0.19113933828E+03  0.40893337480E+03  0.46439258945E+03  0.93496091388E+02 0.  0.
          4    1    3    3  502    0 -0.16177985400E+03  0.22944338441E+03 -0.96970349774E+03  0.10095255625E+04  0.00000000000E+00 0. -1.
         -4    1    3    3    0  502 -0.19644717966E+03  0.14260978930E+03 -0.71895175305E+03  0.75882848498E+03  0.00000000000E+00 0.  1.
         11    1    5    5    0    0  0.26476464885E+01 -0.47337414894E+02  0.11451042841E+02  0.48774657999E+02  0.00000000000E+00 0. -1.
        -11    1    5    5    0    0  0.29938146582E+03 -0.51585509710E+03 -0.32251563453E+02  0.59730721294E+03  0.00000000000E+00 0.  1.
          4    1    6    6  503    0 -0.16804435753E+02  0.48392696000E+02  0.16258925010E+03  0.17046849074E+03  0.00000000000E+00 0. -1.
         -4    1    6    6    0  503  0.73002357111E+02  0.14274664228E+03  0.24634412469E+03  0.29392409870E+03  0.00000000000E+00 0.  1.
<mgrwt>
<rscale>  0 0.25683253E+04</rscale>
<asrwt>0</asrwt>
<pdfrwt beam="1">  1        2 0.12140816E+00 0.25683253E+04</pdfrwt>
<pdfrwt beam="2">  1       -2 0.32148853E+00 0.25683253E+04</pdfrwt>
<totfact> 0.72943339E-01</totfact>
</mgrwt>
</event>
<event>
12    2  0.3555611E-008  0.3005447E+04  0.7818608E-02  0.8242177E-01
          1   -1    0    0  501    0  0.00000000000E+00  0.00000000000E+00  0.10078264269E+04  0.10078264269E+04  0.00000000000E+00 0. -1.
         -1   -1    0    0    0  501 -0.00000000000E+00 -0.00000000000E+00 -0.22406414051E+04  0.22406414051E+04  0.00000000000E+00 0.  1.
         23    2    1    2    0    0  0.42397013595E+03  0.90966404360E+03 -0.15802142602E+04  0.18741986108E+04  0.91126155784E+02 0.  0.
        254    2    1    2    0    0 -0.42397013595E+03 -0.90966404360E+03  0.34739928190E+03  0.13742692212E+04  0.87217560331E+03 0.  0.
         23    2    4    4    0    0 -0.67388407268E+03 -0.60022481327E+03  0.33311777635E+03  0.96618617017E+03  0.90325481632E+02 0.  0.
         23    2    4    4    0    0  0.24991393674E+03 -0.30943923033E+03  0.14281505559E+02  0.40808305107E+03  0.90101066196E+02 0.  0.
          3    1    3    3  502    0  0.27931922935E+03  0.64714223249E+03 -0.10388741111E+04  0.12554169505E+04  0.00000000000E+00 0.  1.
         -3    1    3    3    0  502  0.14465090659E+03  0.26252181111E+03 -0.54134014909E+03  0.61878166029E+03  0.00000000000E+00 0. -1.
         11    1    5    5    0    0 -0.13429055612E+03 -0.17044473291E+03  0.73082733366E+02  0.22896822128E+03  0.00000000000E+00 0.  1.
        -11    1    5    5    0    0 -0.53959351657E+03 -0.42978008036E+03  0.26003504298E+03  0.73721794890E+03  0.00000000000E+00 0. -1.
          4    1    6    6  503    0  0.18124162307E+03 -0.15486325943E+03  0.68709804655E+00  0.23839384882E+03  0.00000000000E+00 0.  1.
         -4    1    6    6    0  503  0.68672313670E+02 -0.15457597090E+03  0.13594407512E+02  0.16968920225E+03  0.00000000000E+00 0. -1.
<mgrwt>
<rscale>  0 0.30054468E+04</rscale>
<asrwt>0</asrwt>
<pdfrwt beam="1">  1        1 0.15505022E+00 0.30054468E+04</pdfrwt>
<pdfrwt beam="2">  1       -1 0.34471406E+00 0.30054468E+04</pdfrwt>
<totfact> 0.21369203E-01</totfact>
</mgrwt>
</event>
<event>
12    2  0.3555611E-008  0.2469330E+04  0.7818608E-02  0.8413994E-01
         -2   -1    0    0    0  501 -0.00000000000E+00  0.00000000000E+00  0.16902840310E+04  0.16902840310E+04  0.00000000000E+00 0.  1.
          2   -1    0    0  501    0  0.00000000000E+00 -0.00000000000E+00 -0.90185851980E+03  0.90185851980E+03  0.00000000000E+00 0. -1.
         23    2    1    2    0    0 -0.19770759996E+03  0.46540921406E+02  0.14378591811E+04  0.14550148483E+04  0.91514105701E+02 0.  0.
        254    2    1    2    0    0  0.19770759996E+03 -0.46540921406E+02 -0.64943366998E+03  0.11371277025E+04  0.91106584150E+03 0.  0.
         23    2    4    4    0    0  0.49684577103E+03 -0.11408331095E+02 -0.11319482284E+03  0.51666802230E+03  0.84539382193E+02 0.  0.
         23    2    4    4    0    0 -0.29913817107E+03 -0.35132590311E+02 -0.53623884715E+03  0.62045968016E+03  0.81854561432E+02 0.  0.
          2    1    3    3  502    0 -0.22564077552E+02 -0.13126518942E+02  0.39552800266E+03  0.39638850133E+03  0.00000000000E+00 0. -1.
         -2    1    3    3    0  502 -0.17514352241E+03  0.59667440348E+02  0.10423311785E+04  0.10586263470E+04  0.00000000000E+00 0.  1.
         11    1    5    5    0    0  0.33519751047E+03 -0.21504312484E+02 -0.37769895599E+02  0.33800350811E+03  0.00000000000E+00 0.  1.
        -11    1    5    5    0    0  0.16164826056E+03  0.10095981389E+02 -0.75424927236E+02  0.17866451419E+03  0.00000000000E+00 0. -1.
          4    1    6    6  503    0 -0.58022549962E+02  0.23041357283E+02 -0.13517192461E+03  0.14889247682E+03  0.00000000000E+00 0. -1.
         -4    1    6    6    0  503 -0.24111562110E+03 -0.58173947594E+02 -0.40106692254E+03  0.47156720335E+03  0.00000000000E+00 0.  1.
<mgrwt>
<rscale>  0 0.24693295E+04</rscale>
<asrwt>0</asrwt>
<pdfrwt beam="1">  1        2 0.13874747E+00 0.24693295E+04</pdfrwt>
<pdfrwt beam="2">  1       -2 0.26004370E+00 0.24693295E+04</pdfrwt>
<totfact> 0.14574738E+00</totfact>
</mgrwt>
</event>
<event>
12    2  0.3555611E-008  0.2020119E+04  0.7818608E-02  0.8597272E-01
         -2   -1    0    0    0  501 -0.00000000000E+00  0.00000000000E+00  0.87805357185E+03  0.87805357185E+03  0.00000000000E+00 0.  1.
          2   -1    0    0  501    0  0.00000000000E+00 -0.00000000000E+00 -0.11619112534E+04  0.11619112534E+04  0.00000000000E+00 0. -1.
         23    2    1    2    0    0  0.41471851816E+03 -0.12524723442E+03  0.55951680018E+03  0.71640245757E+03  0.11178153914E+03 0.  0.
        254    2    1    2    0    0 -0.41471851816E+03  0.12524723442E+03 -0.84337448174E+03  0.13235623677E+04  0.92350338694E+03 0.  0.
         23    2    4    4    0    0 -0.40576369181E+03 -0.28579560244E+03 -0.17496845157E+03  0.53399204202E+03  0.90610385291E+02 0.  0.
         23    2    4    4    0    0 -0.89548263433E+01  0.41104283686E+03 -0.66840603018E+03  0.78957032568E+03  0.87282732391E+02 0.  0.
          2    1    3    3  502    0  0.70153103278E+02 -0.58890555920E+02  0.16255596776E+03  0.18658509622E+03  0.00000000000E+00 0. -1.
         -2    1    3    3    0  502  0.34456541488E+03 -0.66356678495E+02  0.39696083242E+03  0.52981736135E+03  0.00000000000E+00 0.  1.
         11    1    5    5    0    0 -0.34726336413E+03 -0.27383495264E+03 -0.17099858907E+03  0.47414970507E+03  0.00000000000E+00 0.  1.
        -11    1    5    5    0    0 -0.58500327681E+02 -0.11960649800E+02 -0.39698624963E+01  0.59842336941E+02  0.00000000000E+00 0. -1.
          1    1    6    6  503    0  0.37783495858E+02  0.13123670553E+03 -0.22310201748E+03  0.26158206291E+03  0.00000000000E+00 0. -1.
         -1    1    6    6    0  503 -0.46738322201E+02  0.27980613133E+03 -0.44530401270E+03  0.52798826277E+03  0.00000000000E+00 0.  1.
<mgrwt>
<rscale>  0 0.20201191E+04</rscale>
<asrwt>0</asrwt>
<pdfrwt beam="1">  1        2 0.17875558E+00 0.20201191E+04</pdfrwt>
<pdfrwt beam="2">  1       -2 0.13508517E+00 0.20201191E+04</pdfrwt>
<totfact> 0.72957101E+00</totfact>
</mgrwt>
</event>
<event>
12    2  0.3555611E-008  0.2064022E+04  0.7818608E-02  0.8577259E-01
         -1   -1    0    0    0  501 -0.00000000000E+00  0.00000000000E+00  0.52153211182E+03  0.52153211182E+03  0.00000000000E+00 0.  1.
          1   -1    0    0  501    0  0.00000000000E+00 -0.00000000000E+00 -0.20421507711E+04  0.20421507711E+04  0.00000000000E+00 0. -1.
         23    2    1    2    0    0  0.38605430375E+03  0.65844270563E+03 -0.10301347014E+04  0.12851082962E+04  0.87983566264E+02 0.  0.
        254    2    1    2    0    0 -0.38605430375E+03 -0.65844270563E+03 -0.49048395781E+03  0.12785745866E+04  0.90088497527E+03 0.  0.
         23    2    4    4    0    0 -0.36775940604E+03 -0.42852332186E+03 -0.73488372609E+03  0.93047905693E+03  0.82812839620E+02 0.  0.
         23    2    4    4    0    0 -0.18294897702E+02 -0.22991938377E+03  0.24439976828E+03  0.34809552970E+03  0.90783394666E+02 0.  0.
          1    1    3    3  502    0  0.23371984310E+03  0.31687135705E+03 -0.50325011295E+03  0.63897816720E+03  0.00000000000E+00 0. -1.
         -1    1    3    3    0  502  0.15233446065E+03  0.34157134859E+03 -0.52688458847E+03  0.64613012903E+03  0.00000000000E+00 0.  1.
         11    1    5    5    0    0 -0.28956049188E+03 -0.35190967693E+03 -0.63957544420E+03  0.78532951555E+03  0.00000000000E+00 0. -1.
        -11    1    5    5    0    0 -0.78198914168E+02 -0.76613644927E+02 -0.95308281894E+02  0.14514954138E+03  0.00000000000E+00 0.  1.
          3    1    6    6  503    0 -0.48552362198E+02 -0.19715261457E+03  0.20595785904E+03  0.28921466942E+03  0.00000000000E+00 0. -1.
         -3    1    6    6    0  503  0.30257464496E+02 -0.32766769205E+02  0.38441909239E+02  0.58880860285E+02  0.00000000000E+00 0.  1.
<mgrwt>
<rscale>  0 0.20640225E+04</rscale>
<asrwt>0</asrwt>
<pdfrwt beam="1">  1        1 0.31417705E+00 0.20640225E+04</pdfrwt>
<pdfrwt beam="2">  1       -1 0.80235709E-01 0.20640225E+04</pdfrwt>
<totfact> 0.39894134E+00</totfact>
</mgrwt>
</event>
<event>
12    2  0.3555611E-008  0.2366574E+04  0.7818608E-02  0.8452125E-01
         -2   -1    0    0    0  501 -0.00000000000E+00  0.00000000000E+00  0.57663970126E+03  0.57663970126E+03  0.00000000000E+00 0.  1.
          2   -1    0    0  501    0  0.00000000000E+00 -0.00000000000E+00 -0.24281498635E+04  0.24281498635E+04  0.00000000000E+00 0. -1.
         23    2    1    2    0    0 -0.21691852778E+03 -0.49427436016E+02 -0.20473173233E+04  0.20613929314E+04  0.91301020750E+02 0.  0.
        254    2    1    2    0    0  0.21691852778E+03  0.49427436016E+02  0.19580716107E+03  0.94339663332E+03  0.89563387849E+03 0.  0.
         23    2    4    4    0    0 -0.31509015681E+02  0.49655046995E+02 -0.33384189609E+03  0.35130142555E+03  0.92216258016E+02 0.  0.
         23    2    4    4    0    0  0.24842754347E+03 -0.22761097838E+00  0.52964905716E+03  0.59209520777E+03  0.91281515940E+02 0.  0.
          4    1    3    3  502    0 -0.13293497728E+03 -0.41922359294E+02 -0.87354415923E+03  0.88459515628E+03  0.00000000000E+00 0. -1.
         -4    1    3    3    0  502 -0.83983550505E+02 -0.75050767225E+01 -0.11737731640E+04  0.11767977751E+04  0.00000000000E+00 0.  1.
         11    1    5    5    0    0 -0.28782122457E+02  0.70808823692E+02 -0.17407100403E+03  0.19011316243E+03  0.00000000000E+00 0. -1.
        -11    1    5    5    0    0 -0.27268932248E+01 -0.21153776697E+02 -0.15977089207E+03  0.16118826312E+03  0.00000000000E+00 0.  1.
          3    1    6    6  503    0  0.15928874248E+03 -0.44048135413E+02  0.32407265797E+03  0.36378046863E+03  0.00000000000E+00 0. -1.
         -3    1    6    6    0  503  0.89138800982E+02  0.43820524434E+02  0.20557639920E+03  0.22831473914E+03  0.00000000000E+00 0.  1.
<mgrwt>
<rscale>  0 0.23665736E+04</rscale>
<asrwt>0</asrwt>
<pdfrwt beam="1">  1        2 0.37356151E+00 0.23665736E+04</pdfrwt>
<pdfrwt beam="2">  1       -2 0.88713802E-01 0.23665736E+04</pdfrwt>
<totfact> 0.37726148E+00</totfact>
</mgrwt>
</event>
<event>
12    2  0.3555611E-008  0.1540632E+04  0.7818608E-02  0.8857874E-01
          2   -1    0    0  501    0  0.00000000000E+00  0.00000000000E+00  0.18918771821E+04  0.18918771821E+04  0.00000000000E+00 0. -1.
         -2   -1    0    0    0  501 -0.00000000000E+00 -0.00000000000E+00 -0.31364982393E+03  0.31364982393E+03  0.00000000000E+00 0.  1.
         23    2    1    2    0    0  0.30841540202E+03 -0.10819490333E+03 -0.27832779680E+02  0.34004869656E+03  0.89622849201E+02 0.  0.
        254    2    1    2    0    0 -0.30841540202E+03  0.10819490333E+03  0.16060601378E+04  0.18654783094E+04  0.89092870610E+03 0.  0.
         23    2    4    4    0    0 -0.55999065716E+02  0.36483896241E+03  0.23901466402E+03  0.44878081485E+03  0.89626147460E+02 0.  0.
         23    2    4    4    0    0 -0.25241633631E+03 -0.25664405908E+03  0.13670454738E+04  0.14166974946E+04  0.92942368309E+02 0.  0.
          4    1    3    3  502    0  0.18852223034E+02 -0.75746317389E+01  0.21473151380E+02  0.29561420627E+02  0.00000000000E+00 0. -1.
         -4    1    3    3    0  502  0.28956317899E+03 -0.10062027159E+03 -0.49305931060E+02  0.31048727594E+03  0.00000000000E+00 0.  1.
         11    1    5    5    0    0 -0.35814788993E+02  0.43194695394E+02  0.22114941224E+02  0.60312116910E+02  0.00000000000E+00 0. -1.
        -11    1    5    5    0    0 -0.20184276722E+02  0.32164426702E+03  0.21689972280E+03  0.38846869794E+03  0.00000000000E+00 0.  1.
          3    1    6    6  503    0 -0.20292168477E+02 -0.51716542966E+02  0.12777702468E+03  0.13933176577E+03  0.00000000000E+00 0. -1.
         -3    1    6    6    0  503 -0.23212416783E+03 -0.20492751611E+03  0.12392684491E+04  0.12773657288E+04  0.00000000000E+00 0.  1.
<mgrwt>
<rscale>  0 0.15406323E+04</rscale>
<asrwt>0</asrwt>
<pdfrwt beam="1">  1        2 0.29105802E+00 0.15406323E+04</pdfrwt>
<pdfrwt beam="2">  1       -2 0.48253820E-01 0.15406323E+04</pdfrwt>
<totfact> 0.30070512E+01</totfact>
</mgrwt>
</event>
<event>
12    2  0.3555611E-008  0.1649641E+04  0.7818608E-02  0.8790619E-01
         -2   -1    0    0    0  501 -0.00000000000E+00  0.00000000000E+00  0.43777285401E+03  0.43777285401E+03  0.00000000000E+00 0.  1.
          2   -1    0    0  501    0  0.00000000000E+00 -0.00000000000E+00 -0.15540674868E+04  0.15540674868E+04  0.00000000000E+00 0. -1.
         23    2    1    2    0    0 -0.38170095969E+03 -0.16857601142E+03 -0.64454629088E+01  0.42746262960E+03  0.92570305520E+02 0.  0.
        254    2    1    2    0    0  0.38170095969E+03  0.16857601142E+03 -0.11098491699E+04  0.15643777112E+04  0.10204895635E+04 0.  0.
         23    2    4    4    0    0  0.32120020706E+03  0.37705989775E+03 -0.12085206264E+04  0.13093255092E+04  0.92018722307E+02 0.  0.
         23    2    4    4    0    0  0.60500752627E+02 -0.20848388633E+03  0.98671456459E+02  0.25505220200E+03  0.90496947440E+02 0.  0.
          4    1    3    3  502    0 -0.13010493003E+03 -0.98066286255E+02 -0.27892155904E+02  0.16529446960E+03  0.00000000000E+00 0. -1.
         -4    1    3    3    0  502 -0.25159602965E+03 -0.70509725163E+02  0.21446692995E+02  0.26216816001E+03  0.00000000000E+00 0.  1.
         11    1    5    5    0    0  0.17525831598E+03  0.25431677131E+03 -0.82722240740E+03  0.88300023148E+03  0.00000000000E+00 0. -1.
        -11    1    5    5    0    0  0.14594189107E+03  0.12274312644E+03 -0.38129821897E+03  0.42632527775E+03  0.00000000000E+00 0.  1.
          3    1    6    6  503    0  0.31091092634E+02 -0.10490126442E+03  0.98734897303E+02  0.14737540929E+03  0.00000000000E+00 0. -1.
         -3    1    6    6    0  503  0.29409659993E+02 -0.10358262191E+03 -0.63440844618E-01  0.10767679271E+03  0.00000000000E+00 0.  1.
<mgrwt>
<rscale>  0 0.16496406E+04</rscale>
<asrwt>0</asrwt>
<pdfrwt beam="1">  1        2 0.23908731E+00 0.16496406E+04</pdfrwt>
<pdfrwt beam="2">  1       -2 0.67349670E-01 0.16496406E+04</pdfrwt>
<totfact> 0.22854510E+01</totfact>
</mgrwt>
</event>
<event>
12    2  0.3555611E-008  0.1612382E+04  0.7818608E-02  0.8812977E-01
          2   -1    0    0  501    0  0.00000000000E+00  0.00000000000E+00  0.12295752871E+04  0.12295752871E+04  0.00000000000E+00 0. -1.
         -2   -1    0    0    0  501 -0.00000000000E+00 -0.00000000000E+00 -0.52859214894E+03  0.52859214894E+03  0.00000000000E+00 0.  1.
         23    2    1    2    0    0  0.19439351246E+02 -0.40138422446E+03 -0.16989884450E+03  0.44643477778E+03  0.94610831424E+02 0.  0.
        254    2    1    2    0    0 -0.19439351246E+02  0.40138422446E+03  0.87088198270E+03  0.13117326583E+04  0.89482956758E+03 0.  0.
         23    2    4    4    0    0 -0.26614650531E+03  0.53908628362E+03  0.32241217438E+03  0.68800873178E+03  0.89209984488E+02 0.  0.
         23    2    4    4    0    0  0.24670715407E+03 -0.13770205916E+03  0.54846980832E+03  0.62372392652E+03  0.91575809621E+02 0.  0.
          2    1    3    3  502    0 -0.21836114229E+02 -0.21849152529E+02 -0.16241793166E+02  0.34899816562E+02  0.00000000000E+00 0. -1.
         -2    1    3    3    0  502  0.41275465474E+02 -0.37953507194E+03 -0.15365705134E+03  0.41153496122E+03  0.00000000000E+00 0.  1.
         11    1    5    5    0    0 -0.23611517884E+03  0.41872933704E+03  0.22756296939E+03  0.53185481140E+03  0.00000000000E+00 0.  1.
        -11    1    5    5    0    0 -0.30031326477E+02  0.12035694659E+03  0.94849204995E+02  0.15615392038E+03  0.00000000000E+00 0. -1.
          2    1    6    6  503    0  0.20537754952E+02 -0.41574257998E+02  0.51418216131E+02  0.69239087636E+02  0.00000000000E+00 0. -1.
         -2    1    6    6    0  503  0.22616939912E+03 -0.96127801159E+02  0.49705159219E+03  0.55448483888E+03  0.00000000000E+00 0.  1.
<mgrwt>
<rscale>  0 0.16123819E+04</rscale>
<asrwt>0</asrwt>
<pdfrwt beam="1">  1        2 0.18916543E+00 0.16123819E+04</pdfrwt>
<pdfrwt beam="2">  1       -2 0.81321869E-01 0.16123819E+04</pdfrwt>
<totfact> 0.23213850E+01</totfact>
</mgrwt>
</event>
<event>
12    2  0.3555611E-008  0.2039945E+04  0.7818608E-02  0.8588170E-01
         -2   -1    0    0    0  501 -0.00000000000E+00  0.00000000000E+00  0.32502049024E+03  0.32502049024E+03  0.00000000000E+00 0.  1.
          2   -1    0    0  501    0  0.00000000000E+00 -0.00000000000E+00 -0.32008550184E+04  0.32008550184E+04  0.00000000000E+00 0. -1.
         23    2    1    2    0    0 -0.94160878501E+02  0.27070745441E+02  0.24385994368E+03  0.27800223199E+03  0.90655791669E+02 0.  0.
        254    2    1    2    0    0  0.94160878501E+02 -0.27070745441E+02 -0.31196944719E+04  0.32478732767E+04  0.89810251491E+03 0.  0.
         23    2    4    4    0    0 -0.17192625561E+03 -0.28637392331E+03 -0.24718123503E+04  0.24960615401E+04  0.94330563990E+02 0.  0.
         23    2    4    4    0    0  0.26608713411E+03  0.25930317787E+03 -0.64788212155E+03  0.75181173662E+03  0.86192475869E+02 0.  0.
          1    1    3    3  502    0 -0.88788522085E+01  0.31775962619E+02  0.20437283282E+02  0.38810158011E+02  0.00000000000E+00 0. -1.
         -1    1    3    3    0  502 -0.85282026293E+02 -0.47052171774E+01  0.22342266039E+03  0.23919207398E+03  0.00000000000E+00 0.  1.
         11    1    5    5    0    0 -0.17624690445E+03 -0.27295816991E+03 -0.24360409479E+04  0.24576136054E+04  0.00000000000E+00 0.  1.
        -11    1    5    5    0    0  0.43206488367E+01 -0.13415753399E+02 -0.35771402462E+02  0.38447934662E+02  0.00000000000E+00 0. -1.
          1    1    6    6  503    0  0.49248750507E+01  0.24263605444E+02 -0.18168715256E+02  0.30709593900E+02  0.00000000000E+00 0. -1.
         -1    1    6    6    0  503  0.26116225906E+03  0.23503957242E+03 -0.62971340630E+03  0.72110214272E+03  0.00000000000E+00 0.  1.
<mgrwt>
<rscale>  0 0.20399446E+04</rscale>
<asrwt>0</asrwt>
<pdfrwt beam="1">  1        2 0.49243924E+00 0.20399446E+04</pdfrwt>
<pdfrwt beam="2">  1       -2 0.50003152E-01 0.20399446E+04</pdfrwt>
<totfact> 0.45525397E+00</totfact>
</mgrwt>
</event>
<event>
12    2  0.3555611E-008  0.1455553E+04  0.7818608E-02  0.8914560E-01
         -1   -1    0    0    0  501 -0.00000000000E+00  0.00000000000E+00  0.25435310454E+03  0.25435310454E+03  0.00000000000E+00 0.  1.
          1   -1    0    0  501    0  0.00000000000E+00 -0.00000000000E+00 -0.20823749170E+04  0.20823749170E+04  0.00000000000E+00 0. -1.
         23    2    1    2    0    0 -0.12430598627E+03  0.29295704341E+02 -0.12908211360E+04  0.13000719121E+04  0.87507456302E+02 0.  0.
        254    2    1    2    0    0  0.12430598627E+03 -0.29295704341E+02 -0.53720067638E+03  0.10366561094E+04  0.87736030563E+03 0.  0.
         23    2    4    4    0    0 -0.32744217640E+03  0.15915944156E+03 -0.32762873190E+03  0.49649832366E+03  0.81362723096E+02 0.  0.
         23    2    4    4    0    0  0.45174816267E+03 -0.18845514590E+03 -0.20957194448E+03  0.54015778572E+03  0.90875128983E+02 0.  0.
          1    1    3    3  502    0 -0.70266500300E+02  0.53819813875E+02 -0.95081884693E+03  0.95492954353E+03  0.00000000000E+00 0. -1.
         -1    1    3    3    0  502 -0.54039485970E+02 -0.24524109535E+02 -0.34000228911E+03  0.34514236858E+03  0.00000000000E+00 0.  1.
         11    1    5    5    0    0 -0.27309543912E+03  0.14625076693E+03 -0.30916238210E+03  0.43766629319E+03  0.00000000000E+00 0.  1.
        -11    1    5    5    0    0 -0.54346737282E+02  0.12908674630E+02 -0.18466349803E+02  0.58832030467E+02  0.00000000000E+00 0. -1.
          1    1    6    6  503    0  0.19065615800E+03 -0.59860138941E+02 -0.13013117473E+03  0.23846829864E+03  0.00000000000E+00 0. -1.
         -1    1    6    6    0  503  0.26109200467E+03 -0.12859500696E+03 -0.79440769745E+02  0.30168948708E+03  0.00000000000E+00 0.  1.
<mgrwt>
<rscale>  0 0.14555529E+04</rscale>
<asrwt>0</asrwt>
<pdfrwt beam="1">  1        1 0.32036535E+00 0.14555529E+04</pdfrwt>
<pdfrwt beam="2">  1       -1 0.39131250E-01 0.14555529E+04</pdfrwt>
<totfact> 0.16142404E+01</totfact>
</mgrwt>
</event>
<event>
12    2  0.3555611E-008  0.1661866E+04  0.7818608E-02  0.8783417E-01
          1   -1    0    0  501    0  0.00000000000E+00  0.00000000000E+00  0.16429061612E+04  0.16429061612E+04  0.00000000000E+00 0. -1.
         -1   -1    0    0    0  501 -0.00000000000E+00 -0.00000000000E+00 -0.42026123889E+03  0.42026123889E+03  0.00000000000E+00 0.  1.
         23    2    1    2    0    0 -0.23778615939E+03  0.17173947885E+03  0.10191331914E+04  0.10660574368E+04  0.10867055983E+03 0.  0.
        254    2    1    2    0    0  0.23778615939E+03 -0.17173947885E+03  0.20351173098E+03  0.99710996334E+03  0.93100727610E+03 0.  0.
         23    2    4    4    0    0 -0.88101426315E+02 -0.12177057207E+01 -0.32410665075E+03  0.34752715972E+03  0.89256156989E+02 0.  0.
         23    2    4    4    0    0  0.32588758571E+03 -0.17052177313E+03  0.52761838173E+03  0.64958280362E+03  0.91083853659E+02 0.  0.
          3    1    3    3  502    0 -0.23902778912E+03  0.13841212673E+03  0.85284693535E+03  0.89645975701E+03  0.00000000000E+00 0. -1.
         -3    1    3    3    0  502  0.12416297340E+01  0.33327352111E+02  0.16628625603E+03  0.16959767978E+03  0.00000000000E+00 0.  1.
         11    1    5    5    0    0  0.14917158979E+02 -0.97690963553E+01 -0.22572814105E+02  0.28766105266E+02  0.00000000000E+00 0. -1.
        -11    1    5    5    0    0 -0.10301858529E+03  0.85513906347E+01 -0.30153383664E+03  0.31876105445E+03  0.00000000000E+00 0.  1.
          2    1    6    6  503    0  0.29907063112E+03 -0.17199301238E+03  0.51507394507E+03  0.61994032584E+03  0.00000000000E+00 0.  1.
         -2    1    6    6    0  503  0.26816954585E+02  0.14712392535E+01  0.12544436651E+02  0.29642477782E+02  0.00000000000E+00 0. -1.
<mgrwt>
<rscale>  0 0.16618662E+04</rscale>
<asrwt>0</asrwt>
<pdfrwt beam="1">  1        1 0.25275479E+00 0.16618662E+04</pdfrwt>
<pdfrwt beam="2">  1       -1 0.64655576E-01 0.16618662E+04</pdfrwt>
<totfact> 0.12073738E+01</totfact>
</mgrwt>
</event>
<event>
12    2  0.3555611E-008  0.3042605E+04  0.7818608E-02  0.8231668E-01
          2   -1    0    0  501    0  0.00000000000E+00  0.00000000000E+00  0.83272697960E+03  0.83272697960E+03  0.00000000000E+00 0. -1.
         -2   -1    0    0    0  501 -0.00000000000E+00 -0.00000000000E+00 -0.27792552781E+04  0.27792552781E+04  0.00000000000E+00 0.  1.
         23    2    1    2    0    0 -0.61323371615E+03 -0.17314082302E+03  0.57191281408E+03  0.86180411167E+03  0.97922034093E+02 0.  0.
        254    2    1    2    0    0  0.61323371615E+03  0.17314082302E+03 -0.25184411126E+04  0.27501781460E+04  0.90271859518E+03 0.  0.
         23    2    4    4    0    0  0.11250439465E+03  0.37638326617E+03 -0.42339690140E+03  0.58474890632E+03  0.91349578357E+02 0.  0.
         23    2    4    4    0    0  0.50072932150E+03 -0.20324244315E+03 -0.20950442112E+04  0.21654292397E+04  0.88522320421E+02 0.  0.
          1    1    3    3  502    0 -0.55880899236E+03 -0.14098073359E+03  0.54464579696E+03  0.79295781813E+03  0.00000000000E+00 0. -1.
         -1    1    3    3    0  502 -0.54424723792E+02 -0.32160089430E+02  0.27267017127E+02  0.68846293545E+02  0.00000000000E+00 0.  1.
         11    1    5    5    0    0  0.64795440329E+02  0.29389986288E+03 -0.27086110320E+03  0.40489667288E+03  0.00000000000E+00 0.  1.
        -11    1    5    5    0    0  0.47708954325E+02  0.82483403294E+02 -0.15253579820E+03  0.17985223344E+03  0.00000000000E+00 0. -1.
          1    1    6    6  503    0  0.11964651430E+03 -0.88371613038E+02 -0.62490518427E+03  0.64236385305E+03  0.00000000000E+00 0. -1.
         -1    1    6    6    0  503  0.38108280719E+03 -0.11487083011E+03 -0.14701390269E+04  0.15230653866E+04  0.00000000000E+00 0.  1.
<mgrwt>
<rscale>  0 0.30426047E+04</rscale>
<asrwt>0</asrwt>
<pdfrwt beam="1">  1        2 0.12811184E+00 0.30426047E+04</pdfrwt>
<pdfrwt beam="2">  1       -2 0.42757774E+00 0.30426047E+04</pdfrwt>
<totfact> 0.13587017E-01</totfact>
</mgrwt>
</event>
<event>
12    2  0.3555611E-008  0.1832386E+04  0.7818608E-02  0.8689264E-01
         -2   -1    0    0    0  501 -0.00000000000E+00  0.00000000000E+00  0.74508086643E+03  0.74508086643E+03  0.00000000000E+00 0.  1.
          2   -1    0    0  501    0  0.00000000000E+00 -0.00000000000E+00 -0.11266022419E+04  0.11266022419E+04  0.00000000000E+00 0. -1.
         23    2    1    2    0    0 -0.61913699648E+03  0.25457529244E+03  0.22544585459E+02  0.67484030012E+03  0.82231213058E+02 0.  0.
        254    2    1    2    0    0  0.61913699648E+03 -0.25457529244E+03 -0.40406596090E+03  0.11968428082E+04  0.90610386094E+03 0.  0.
         23    2    4    4    0    0  0.31483578463E+03  0.10075737248E+03  0.22307665903E+03  0.40920063081E+03  0.91697006777E+02 0.  0.
         23    2    4    4    0    0  0.30430121185E+03 -0.35533266492E+03 -0.62714261994E+03  0.78764217738E+03  0.90619002173E+02 0.  0.
          1    1    3    3  502    0 -0.26014072821E+03  0.72237201544E+02  0.33424444437E+02  0.27204522647E+03  0.00000000000E+00 0. -1.
         -1    1    3    3    0  502 -0.35899626828E+03  0.18233809089E+03 -0.10879858978E+02  0.40279507365E+03  0.00000000000E+00 0.  1.
         11    1    5    5    0    0  0.64369059614E+02 -0.81828816399E+01  0.17086585243E+02  0.67099081832E+02  0.00000000000E+00 0.  1.
        -11    1    5    5    0    0  0.25046672502E+03  0.10894025412E+03  0.20599007379E+03  0.34210154897E+03  0.00000000000E+00 0. -1.
          3    1    6    6  503    0  0.37742623272E+02 -0.30653110940E+02 -0.28650417202E+02  0.56435496167E+02  0.00000000000E+00 0. -1.
         -3    1    6    6    0  503  0.26655858858E+03 -0.32467955398E+03 -0.59849220273E+03  0.73120668121E+03  0.00000000000E+00 0.  1.
<mgrwt>
<rscale>  0 0.18323862E+04</rscale>
<asrwt>0</asrwt>
<pdfrwt beam="1">  1        2 0.17332342E+00 0.18323862E+04</pdfrwt>
<pdfrwt beam="2">  1       -2 0.11462783E+00 0.18323862E+04</pdfrwt>
<totfact> 0.11743478E+01</totfact>
</mgrwt>
</event>
<event>
12    2  0.3555611E-008  0.2406805E+04  0.7818608E-02  0.8436960E-01
         -2   -1    0    0    0  501 -0.00000000000E+00  0.00000000000E+00  0.79244774322E+03  0.79244774322E+03  0.00000000000E+00 0.  1.
          2   -1    0    0  501    0  0.00000000000E+00 -0.00000000000E+00 -0.18274741690E+04  0.18274741690E+04  0.00000000000E+00 0. -1.
         23    2    1    2    0    0  0.63663776987E+03  0.44318429142E+03 -0.11889570805E+04  0.14226610371E+04  0.92873683335E+02 0.  0.
        254    2    1    2    0    0 -0.63663776987E+03 -0.44318429142E+03  0.15393065475E+03  0.11972608751E+04  0.89889876536E+03 0.  0.
         23    2    4    4    0    0 -0.81673837199E+03 -0.28956343816E+03  0.27971902030E+03  0.91508192615E+03  0.90684332932E+02 0.  0.
         23    2    4    4    0    0  0.18010060213E+03 -0.15362085327E+03 -0.12578836555E+03  0.28217894895E+03  0.88128615524E+02 0.  0.
          3    1    3    3  502    0  0.30393429767E+03  0.22058873426E+03 -0.65921295279E+03  0.75868120058E+03  0.00000000000E+00 0. -1.
         -3    1    3    3    0  502  0.33270347220E+03  0.22259555717E+03 -0.52974412774E+03  0.66397983656E+03  0.00000000000E+00 0.  1.
         11    1    5    5    0    0 -0.69485650727E+03 -0.21499432540E+03  0.21698315053E+03  0.75903215562E+03  0.00000000000E+00 0.  1.
        -11    1    5    5    0    0 -0.12188186473E+03 -0.74569112761E+02  0.62735869772E+02  0.15604977053E+03  0.00000000000E+00 0. -1.
          2    1    6    6  503    0  0.27966429568E+01 -0.50288808466E+00 -0.28288718629E+02  0.28431069448E+02  0.00000000000E+00 0. -1.
         -2    1    6    6    0  503  0.17730395917E+03 -0.15311796518E+03 -0.97499646923E+02  0.25374787950E+03  0.00000000000E+00 0.  1.
<mgrwt>
<rscale>  0 0.24068052E+04</rscale>
<asrwt>0</asrwt>
<pdfrwt beam="1">  1        2 0.28114987E+00 0.24068052E+04</pdfrwt>
<pdfrwt beam="2">  1       -2 0.12191504E+00 0.24068052E+04</pdfrwt>
<totfact> 0.38222234E+00</totfact>
</mgrwt>
</event>
<event>
12    2  0.3555611E-008  0.1357939E+04  0.7818608E-02  0.8984840E-01
         -1   -1    0    0    0  501 -0.00000000000E+00  0.00000000000E+00  0.32312244002E+04  0.32312244002E+04  0.00000000000E+00 0.  1.
          1   -1    0    0  501    0  0.00000000000E+00 -0.00000000000E+00 -0.14267015996E+03  0.14267015996E+03  0.00000000000E+00 0. -1.
         23    2    1    2    0    0 -0.12940999580E+03 -0.27178698131E+03  0.33059522765E+03  0.45598908254E+03  0.89541770326E+02 0.  0.
        254    2    1    2    0    0  0.12940999580E+03  0.27178698131E+03  0.27579590126E+04  0.29179054777E+04  0.90400185344E+03 0.  0.
         23    2    4    4    0    0  0.34948015439E+03  0.37640395694E+03  0.24904801901E+04  0.25445232050E+04  0.91051890880E+02 0.  0.
         23    2    4    4    0    0 -0.22007015859E+03 -0.10461697563E+03  0.26747882258E+03  0.37338227263E+03  0.92161893913E+02 0.  0.
          3    1    3    3  502    0 -0.75675925316E+02 -0.23873580457E+03  0.25310971939E+03  0.35607044262E+03  0.00000000000E+00 0. -1.
         -3    1    3    3    0  502 -0.53734070482E+02 -0.33051176738E+02  0.77485508263E+02  0.99918639928E+02  0.00000000000E+00 0.  1.
         11    1    5    5    0    0  0.29614130541E+03  0.26428463871E+03  0.19457976162E+04  0.19858686780E+04  0.00000000000E+00 0. -1.
        -11    1    5    5    0    0  0.53338848980E+02  0.11211931823E+03  0.54468257387E+03  0.55865452706E+03  0.00000000000E+00 0.  1.
          2    1    6    6  503    0  0.86483136348E+01 -0.81736599717E+00  0.14430523429E+02  0.16843438554E+02  0.00000000000E+00 0.  1.
         -2    1    6    6    0  503 -0.22871847223E+03 -0.10379960964E+03  0.25304829915E+03  0.35653883407E+03  0.00000000000E+00 0. -1.
<mgrwt>
<rscale>  0 0.13579386E+04</rscale>
<asrwt>0</asrwt>
<pdfrwt beam="1">  1        1 0.21949258E-01 0.13579386E+04</pdfrwt>
<pdfrwt beam="2">  1       -1 0.49711139E+00 0.13579386E+04</pdfrwt>
<totfact> 0.35457015E-01</totfact>
</mgrwt>
</event>
<event>
12    2  0.3555611E-008  0.1384510E+04  0.7818608E-02  0.8965108E-01
          1   -1    0    0  501    0  0.00000000000E+00  0.00000000000E+00  0.79889135277E+03  0.79889135277E+03  0.00000000000E+00 0. -1.
         -1   -1    0    0    0  501 -0.00000000000E+00 -0.00000000000E+00 -0.59985265561E+03  0.59985265561E+03  0.00000000000E+00 0.  1.
         23    2    1    2    0    0  0.12726318227E+03 -0.20432318927E+03  0.36935133917E+03  0.45010250624E+03  0.90708164679E+02 0.  0.
        254    2    1    2    0    0 -0.12726318227E+03  0.20432318927E+03 -0.17031264201E+03  0.94864150214E+03  0.90164872335E+03 0.  0.
         23    2    4    4    0    0  0.11059850039E+03  0.45014884083E+03  0.12361004361E+03  0.48845059970E+03  0.91861516880E+02 0.  0.
         23    2    4    4    0    0 -0.23786168266E+03 -0.24582565155E+03 -0.29392268562E+03  0.46019090243E+03  0.91524261945E+02 0.  0.
          3    1    3    3  502    0  0.12170118192E+03 -0.21280477862E+03  0.36335659147E+03  0.43832073194E+03  0.00000000000E+00 0. -1.
         -3    1    3    3    0  502  0.55620003532E+01  0.84815893426E+01  0.59947477019E+01  0.11781774302E+02  0.00000000000E+00 0.  1.
         11    1    5    5    0    0  0.87829930494E+02  0.39740447231E+03  0.13705136471E+03  0.42945021582E+03  0.00000000000E+00 0. -1.
        -11    1    5    5    0    0  0.22768569894E+02  0.52744368514E+02 -0.13441321095E+02  0.59000383878E+02  0.00000000000E+00 0.  1.
          1    1    6    6  503    0 -0.20299003529E+03 -0.22085120878E+03 -0.28981776638E+03  0.41710256360E+03  0.00000000000E+00 0. -1.
         -1    1    6    6    0  503 -0.34871647366E+02 -0.24974442769E+02 -0.41049192328E+01  0.43088338835E+02  0.00000000000E+00 0.  1.
<mgrwt>
<rscale>  0 0.13845102E+04</rscale>
<asrwt>0</asrwt>
<pdfrwt beam="1">  1        1 0.12290636E+00 0.13845102E+04</pdfrwt>
<pdfrwt beam="2">  1       -1 0.92285024E-01 0.13845102E+04</pdfrwt>
<totfact> 0.24726614E+01</totfact>
</mgrwt>
</event>
<event>
12    2  0.3555611E-008  0.1055835E+04  0.7818608E-02  0.9249341E-01
          1   -1    0    0  501    0  0.00000000000E+00  0.00000000000E+00  0.88802303333E+03  0.88802303333E+03  0.00000000000E+00 0. -1.
         -1   -1    0    0    0  501 -0.00000000000E+00 -0.00000000000E+00 -0.31383954048E+03  0.31383954048E+03  0.00000000000E+00 0.  1.
         23    2    1    2    0    0  0.79228608723E+02  0.17355447324E+02  0.18631298397E+03  0.22095247774E+03  0.86770302715E+02 0.  0.
        254    2    1    2    0    0 -0.79228608723E+02 -0.17355447324E+02  0.38787050888E+03  0.98091009607E+03  0.89730858734E+03 0.  0.
         23    2    4    4    0    0  0.23875201779E+03 -0.54471801103E+02 -0.18355802803E+03  0.31948515877E+03  0.91692496447E+02 0.  0.
         23    2    4    4    0    0 -0.31798062651E+03  0.37116353779E+02  0.57142853691E+03  0.66142493730E+03  0.91994958205E+02 0.  0.
          3    1    3    3  502    0  0.95193632522E+02  0.79803291690E+01  0.17465815588E+03  0.19907532429E+03  0.00000000000E+00 0. -1.
         -3    1    3    3    0  502 -0.15965023799E+02  0.93751181554E+01  0.11654828087E+02  0.21877153450E+02  0.00000000000E+00 0.  1.
         11    1    5    5    0    0  0.20873545003E+03 -0.78475203943E+02 -0.15418380934E+03  0.27111158736E+03  0.00000000000E+00 0. -1.
        -11    1    5    5    0    0  0.30016567753E+02  0.24003402840E+02 -0.29374218684E+02  0.48373571409E+02  0.00000000000E+00 0.  1.
          1    1    6    6  503    0 -0.27995228020E+03  0.61122036888E+02  0.51407435032E+03  0.58854194434E+03  0.00000000000E+00 0. -1.
         -1    1    6    6    0  503 -0.38028346306E+02 -0.24005683109E+02  0.57354186591E+02  0.72882992967E+02  0.00000000000E+00 0.  1.
<mgrwt>
<rscale>  0 0.10558347E+04</rscale>
<asrwt>0</asrwt>
<pdfrwt beam="1">  1        1 0.13661893E+00 0.10558347E+04</pdfrwt>
<pdfrwt beam="2">  1       -1 0.48283007E-01 0.10558347E+04</pdfrwt>
<totfact> 0.79755550E+01</totfact>
</mgrwt>
</event>
<event>
12    2  0.3555611E-008  0.1731888E+04  0.7818608E-02  0.8743383E-01
         -1   -1    0    0    0  501 -0.00000000000E+00  0.00000000000E+00  0.25891294541E+03  0.25891294541E+03  0.00000000000E+00 0.  1.
          1   -1    0    0  501    0  0.00000000000E+00 -0.00000000000E+00 -0.28961829606E+04  0.28961829606E+04  0.00000000000E+00 0. -1.
         23    2    1    2    0    0  0.40776282495E+03 -0.12684696623E+03 -0.13143594246E+03  0.45771051292E+03  0.99311793944E+02 0.  0.
        254    2    1    2    0    0 -0.40776282495E+03  0.12684696623E+03 -0.25058340727E+04  0.26973853931E+04  0.90239840673E+03 0.  0.
         23    2    4    4    0    0 -0.65425027067E+03  0.28846839770E+02 -0.12867831392E+04  0.14465945709E+04  0.89159679864E+02 0.  0.
         23    2    4    4    0    0  0.24648744572E+03  0.98000126460E+02 -0.12190509335E+04  0.12507908221E+04  0.89623749710E+02 0.  0.
          4    1    3    3  502    0  0.50890171441E+02 -0.44840883347E+02 -0.45235127812E+02  0.81527487124E+02  0.00000000000E+00 0. -1.
         -4    1    3    3    0  502  0.35687265351E+03 -0.82006082883E+02 -0.86200814644E+02  0.37618302580E+03  0.00000000000E+00 0.  1.
         11    1    5    5    0    0 -0.48345121104E+03  0.60373855296E+02 -0.95527745609E+03  0.10723456038E+04  0.00000000000E+00 0.  1.
        -11    1    5    5    0    0 -0.17079905963E+03 -0.31527015525E+02 -0.33150568311E+03  0.37424896715E+03  0.00000000000E+00 0. -1.
          3    1    6    6  503    0  0.33608271644E+02  0.29171615311E+02 -0.97977769741E+02  0.10761107018E+03  0.00000000000E+00 0. -1.
         -3    1    6    6    0  503  0.21287917407E+03  0.68828511150E+02 -0.11210731638E+04  0.11431797519E+04  0.00000000000E+00 0.  1.
<mgrwt>
<rscale>  0 0.17318883E+04</rscale>
<asrwt>0</asrwt>
<pdfrwt beam="1">  1        1 0.44556662E+00 0.17318883E+04</pdfrwt>
<pdfrwt beam="2">  1       -1 0.39832759E-01 0.17318883E+04</pdfrwt>
<totfact> 0.41546195E+00</totfact>
</mgrwt>
</event>
<event>
12    2  0.3555611E-008  0.2290909E+04  0.7818608E-02  0.8481514E-01
         -1   -1    0    0    0  501 -0.00000000000E+00  0.00000000000E+00  0.66739997203E+03  0.66739997203E+03  0.00000000000E+00 0.  1.
          1   -1    0    0  501    0  0.00000000000E+00 -0.00000000000E+00 -0.19659359413E+04  0.19659359413E+04  0.00000000000E+00 0. -1.
         23    2    1    2    0    0 -0.31434868585E+03 -0.54257944206E+03  0.29255871629E+03  0.70335809727E+03  0.12615253974E+03 0.  0.
        254    2    1    2    0    0  0.31434868585E+03  0.54257944206E+03 -0.15910946855E+04  0.19299778160E+04  0.89444090067E+03 0.  0.
         23    2    4    4    0    0 -0.15055210810E+03 -0.22652275128E+00  0.73941496553E+01  0.17672018951E+03  0.92246210566E+02 0.  0.
         23    2    4    4    0    0  0.46490079395E+03  0.54280596481E+03 -0.15984888352E+04  0.17532576265E+04  0.89301092261E+02 0.  0.
          4    1    3    3  502    0 -0.27915068310E+02 -0.12012415436E+03  0.96501962824E+02  0.15659403669E+03  0.00000000000E+00 0. -1.
         -4    1    3    3    0  502 -0.28643361754E+03 -0.42245528770E+03  0.19605675346E+03  0.54676406057E+03  0.00000000000E+00 0.  1.
         11    1    5    5    0    0 -0.45299338892E+02 -0.19205994893E+02 -0.36345873705E+02  0.61171258604E+02  0.00000000000E+00 0.  1.
        -11    1    5    5    0    0 -0.10525276921E+03  0.18979472142E+02  0.43740023360E+02  0.11554893090E+03  0.00000000000E+00 0. -1.
          3    1    6    6  503    0  0.45654974643E+03  0.54551074425E+03 -0.15821557346E+04  0.17347150808E+04  0.00000000000E+00 0. -1.
         -3    1    6    6    0  503  0.83510475213E+01 -0.27047794470E+01 -0.16333100599E+02  0.18542545719E+02  0.00000000000E+00 0.  1.
<mgrwt>
<rscale>  0 0.22909086E+04</rscale>
<asrwt>0</asrwt>
<pdfrwt beam="1">  1        1 0.30245168E+00 0.22909086E+04</pdfrwt>
<pdfrwt beam="2">  1       -1 0.10267692E+00 0.22909086E+04</pdfrwt>
<totfact> 0.25492496E+00</totfact>
</mgrwt>
</event>
<event>
12    2  0.3555611E-008  0.1872194E+04  0.7818608E-02  0.8668822E-01
          2   -1    0    0  501    0  0.00000000000E+00  0.00000000000E+00  0.29153792288E+04  0.29153792288E+04  0.00000000000E+00 0. -1.
         -2   -1    0    0    0  501 -0.00000000000E+00 -0.00000000000E+00 -0.30057061714E+03  0.30057061714E+03  0.00000000000E+00 0.  1.
         23    2    1    2    0    0  0.49511866074E+03  0.13131822465E+03  0.14637655924E+03  0.54028356673E+03  0.89962609108E+02 0.  0.
        254    2    1    2    0    0 -0.49511866074E+03 -0.13131822465E+03  0.24684320524E+04  0.26756662792E+04  0.89646320391E+03 0.  0.
         23    2    4    4    0    0  0.19771755776E+03  0.14796215793E+03  0.86443094502E+03  0.90389042379E+03  0.93765700947E+02 0.  0.
         23    2    4    4    0    0 -0.69283621850E+03 -0.27928038258E+03  0.16040011074E+04  0.17717758554E+04  0.91381461922E+02 0.  0.
          3    1    3    3  502    0  0.32570160455E+02  0.29219790135E+02  0.28285336270E+02  0.52102511796E+02  0.00000000000E+00 0. -1.
         -3    1    3    3    0  502  0.46254850029E+03  0.10209843452E+03  0.11809122297E+03  0.48818105493E+03  0.00000000000E+00 0.  1.
         11    1    5    5    0    0  0.13784254247E+03  0.57270228467E+02  0.59335851108E+03  0.61184537937E+03  0.00000000000E+00 0.  1.
        -11    1    5    5    0    0  0.59875015291E+02  0.90691929462E+02  0.27107243394E+03  0.29204504442E+03  0.00000000000E+00 0. -1.
          3    1    6    6  503    0 -0.38075303985E+03 -0.12858316021E+03  0.76814451667E+03  0.86692127955E+03  0.00000000000E+00 0. -1.
         -3    1    6    6    0  503 -0.31208317865E+03 -0.15069722237E+03  0.83585659069E+03  0.90485457584E+03  0.00000000000E+00 0.  1.
<mgrwt>
<rscale>  0 0.18721937E+04</rscale>
<asrwt>0</asrwt>
<pdfrwt beam="1">  1        2 0.44851986E+00 0.18721937E+04</pdfrwt>
<pdfrwt beam="2">  1       -2 0.46241635E-01 0.18721937E+04</pdfrwt>
<totfact> 0.82037629E+00</totfact>
</mgrwt>
</event>
<event>
12    2  0.3555611E-008  0.1399735E+04  0.7818608E-02  0.8954010E-01
          2   -1    0    0  501    0  0.00000000000E+00  0.00000000000E+00  0.15854758482E+04  0.15854758482E+04  0.00000000000E+00 0. -1.
         -2   -1    0    0    0  501 -0.00000000000E+00 -0.00000000000E+00 -0.30893866721E+03  0.30893866721E+03  0.00000000000E+00 0.  1.
         23    2    1    2    0    0  0.15583480432E+03  0.10833210901E+03 -0.10721011570E+03  0.23548402874E+03  0.89097625114E+02 0.  0.
        254    2    1    2    0    0 -0.15583480432E+03 -0.10833210901E+03  0.13837472967E+04  0.16589304866E+04  0.89513878612E+03 0.  0.
         23    2    4    4    0    0 -0.17843037816E+02 -0.44023357805E+03  0.11124708934E+04  0.12001205226E+04  0.92594831441E+02 0.  0.
         23    2    4    4    0    0 -0.13799176651E+03  0.33190146904E+03  0.27127640326E+03  0.45880996406E+03  0.87837255094E+02 0.  0.
          1    1    3    3  502    0 -0.49593150270E+01  0.11293747945E+02 -0.29980095098E+02  0.32418353602E+02  0.00000000000E+00 0. -1.
         -1    1    3    3    0  502  0.16079411935E+03  0.97038361068E+02 -0.77230020602E+02  0.20306567514E+03  0.00000000000E+00 0.  1.
         11    1    5    5    0    0 -0.36107876398E+02 -0.19147920577E+03  0.58615526138E+03  0.61769414391E+03  0.00000000000E+00 0. -1.
        -11    1    5    5    0    0  0.18264838582E+02 -0.24875437228E+03  0.52631563202E+03  0.58242637867E+03  0.00000000000E+00 0.  1.
          1    1    6    6  503    0 -0.37308953712E+02  0.30839286017E+02  0.61687484772E+02  0.78411512972E+02  0.00000000000E+00 0. -1.
         -1    1    6    6    0  503 -0.10068281280E+03  0.30106218302E+03  0.20958891849E+03  0.38039845109E+03  0.00000000000E+00 0.  1.
<mgrwt>
<rscale>  0 0.13997354E+04</rscale>
<asrwt>0</asrwt>
<pdfrwt beam="1">  1        2 0.24391936E+00 0.13997354E+04</pdfrwt>
<pdfrwt beam="2">  1       -2 0.47529027E-01 0.13997354E+04</pdfrwt>
<totfact> 0.46385894E+01</totfact>
</mgrwt>
</event>
<event>
12    2  0.3555611E-008  0.1348401E+04  0.7818608E-02  0.8992039E-01
          2   -1    0    0  501    0  0.00000000000E+00  0.00000000000E+00  0.21303639230E+04  0.21303639230E+04  0.00000000000E+00 0.  1.
         -2   -1    0    0    0  501 -0.00000000000E+00 -0.00000000000E+00 -0.21336561902E+03  0.21336561902E+03  0.00000000000E+00 0. -1.
         23    2    1    2    0    0  0.38020459669E+02  0.19318993859E+03  0.11312731942E+04  0.11519728996E+04  0.92166228416E+02 0.  0.
        254    2    1    2    0    0 -0.38020459669E+02 -0.19318993859E+03  0.78572510976E+03  0.11917566425E+04  0.87415790279E+03 0.  0.
         23    2    4    4    0    0 -0.42613748153E+03 -0.88807577065E+02  0.58138585489E+03  0.73224772847E+03  0.93259233756E+02 0.  0.
         23    2    4    4    0    0  0.38811702186E+03 -0.10438236152E+03  0.20433925487E+03  0.45950891399E+03  0.88675875491E+02 0.  0.
          4    1    3    3  502    0 -0.27656534510E+01 -0.84899187724E+01  0.98362922717E+02  0.98767363664E+02  0.00000000000E+00 0. -1.
         -4    1    3    3    0  502  0.40786113120E+02  0.20167985736E+03  0.10329102715E+04  0.10532055359E+04  0.00000000000E+00 0.  1.
         11    1    5    5    0    0 -0.38780150280E+03 -0.62467246059E+02  0.47663934059E+03  0.61763842448E+03  0.00000000000E+00 0.  1.
        -11    1    5    5    0    0 -0.38335978732E+02 -0.26340331007E+02  0.10474651430E+03  0.11460930399E+03  0.00000000000E+00 0. -1.
          1    1    6    6  503    0  0.14227333144E+02 -0.15002647340E+02 -0.56988686798E+01  0.21446993724E+02  0.00000000000E+00 0. -1.
         -1    1    6    6    0  503  0.37388968872E+03 -0.89379714181E+02  0.21003812355E+03  0.43806192026E+03  0.00000000000E+00 0.  1.
<mgrwt>
<rscale>  0 0.13484012E+04</rscale>
<asrwt>0</asrwt>
<pdfrwt beam="1">  1        2 0.32774828E+00 0.13484012E+04</pdfrwt>
<pdfrwt beam="2">  1       -2 0.32825481E-01 0.13484012E+04</pdfrwt>
<totfact> 0.47850315E+01</totfact>
</mgrwt>
</event>
<event>
12    2  0.3555611E-008  0.1374393E+04  0.7818608E-02  0.8972565E-01
          2   -1    0    0  501    0  0.00000000000E+00  0.00000000000E+00  0.91048255203E+03  0.91048255203E+03  0.00000000000E+00 0. -1.
         -2   -1    0    0    0  501 -0.00000000000E+00 -0.00000000000E+00 -0.51866911475E+03  0.51866911475E+03  0.00000000000E+00 0.  1.
         23    2    1    2    0    0  0.96253984168E+02 -0.36448332663E+03  0.55818097439E+02  0.39150070641E+03  0.89689566057E+02 0.  0.
        254    2    1    2    0    0 -0.96253984168E+02  0.36448332663E+03  0.33599533985E+03  0.10376509604E+04  0.90648426478E+03 0.  0.
         23    2    4    4    0    0 -0.34872448766E+03 -0.71063014040E+01  0.43747814970E+03  0.56815329114E+03  0.98751014967E+02 0.  0.
         23    2    4    4    0    0  0.25247050349E+03  0.37158962804E+03 -0.10148280985E+03  0.46949766922E+03  0.91154231464E+02 0.  0.
          3    1    3    3  502    0  0.38198894426E+02 -0.14984600873E+03  0.67754903200E+02  0.16883041425E+03  0.00000000000E+00 0. -1.
         -3    1    3    3    0  502  0.58055089741E+02 -0.21463731790E+03 -0.11936805761E+02  0.22267029216E+03  0.00000000000E+00 0.  1.
         11    1    5    5    0    0 -0.31327944531E+03  0.23987664035E+02  0.39471374475E+03  0.50449812604E+03  0.00000000000E+00 0. -1.
        -11    1    5    5    0    0 -0.35445042355E+02 -0.31093965439E+02  0.42764404949E+02  0.63655165108E+02  0.00000000000E+00 0.  1.
          1    1    6    6  503    0  0.18960529864E+03  0.20591461916E+03 -0.79197189110E+02  0.29090066074E+03  0.00000000000E+00 0. -1.
         -1    1    6    6    0  503  0.62865204852E+02  0.16567500888E+03 -0.22285620743E+02  0.17859700849E+03  0.00000000000E+00 0.  1.
<mgrwt>
<rscale>  0 0.13743932E+04</rscale>
<asrwt>0</asrwt>
<pdfrwt beam="1">  1        2 0.14007424E+00 0.13743932E+04</pdfrwt>
<pdfrwt beam="2">  1       -2 0.79795248E-01 0.13743932E+04</pdfrwt>
<totfact> 0.39119840E+01</totfact>
</mgrwt>
</event>
<event>
12    2  0.3555611E-008  0.1275258E+04  0.7818608E-02  0.9049419E-01
         -1   -1    0    0    0  501 -0.00000000000E+00  0.00000000000E+00  0.53516897048E+03  0.53516897048E+03  0.00000000000E+00 0.  1.
          1   -1    0    0  501    0  0.00000000000E+00 -0.00000000000E+00 -0.75970495593E+03  0.75970495593E+03  0.00000000000E+00 0. -1.
         23    2    1    2    0    0 -0.27686009776E+03 -0.12155292519E+03 -0.13141792591E+03  0.34517475105E+03  0.10221697588E+03 0.  0.
        254    2    1    2    0    0  0.27686009776E+03  0.12155292519E+03 -0.93118059533E+02  0.94969917535E+03  0.89545012329E+03 0.  0.
         23    2    4    4    0    0  0.43595225881E+03 -0.66868653414E+02 -0.35905704671E+03  0.57610277347E+03  0.91905680114E+02 0.  0.
         23    2    4    4    0    0 -0.15909216105E+03  0.18842157860E+03  0.26593898718E+03  0.37359640188E+03  0.89653330167E+02 0.  0.
          4    1    3    3  502    0 -0.11867191564E+03 -0.14039186215E+02 -0.12967584744E+02  0.12020100069E+03  0.00000000000E+00 0.  1.
         -4    1    3    3    0  502 -0.15818818212E+03 -0.10751373897E+03 -0.11845034117E+03  0.22497375037E+03  0.00000000000E+00 0. -1.
         11    1    5    5    0    0  0.41115985524E+03 -0.80892548107E+02 -0.35066525866E+03  0.54640841367E+03  0.00000000000E+00 0.  1.
        -11    1    5    5    0    0  0.24792403567E+02  0.14023894694E+02 -0.83917880485E+01  0.29694359795E+02  0.00000000000E+00 0. -1.
          3    1    6    6  503    0 -0.77484849603E+02  0.48450067028E+02  0.14507293206E+03  0.17145689408E+03  0.00000000000E+00 0. -1.
         -3    1    6    6    0  503 -0.81607311445E+02  0.13997151157E+03  0.12086605512E+03  0.20213950780E+03  0.00000000000E+00 0.  1.
<mgrwt>
<rscale>  0 0.12752577E+04</rscale>
<asrwt>0</asrwt>
<pdfrwt beam="1">  1        1 0.11687769E+00 0.12752577E+04</pdfrwt>
<pdfrwt beam="2">  1       -1 0.82333688E-01 0.12752577E+04</pdfrwt>
<totfact> 0.34670852E+01</totfact>
</mgrwt>
</event>
<event>
12    2  0.3555611E-008  0.1605541E+04  0.7818608E-02  0.8817151E-01
         -1   -1    0    0    0  501 -0.00000000000E+00  0.00000000000E+00  0.45307842652E+03  0.45307842652E+03  0.00000000000E+00 0.  1.
          1   -1    0    0  501    0  0.00000000000E+00 -0.00000000000E+00 -0.14223600653E+04  0.14223600653E+04  0.00000000000E+00 0. -1.
         23    2    1    2    0    0  0.34809223344E+03  0.32318310898E+03 -0.65430925739E+03  0.81274991865E+03  0.82621432152E+02 0.  0.
        254    2    1    2    0    0 -0.34809223344E+03 -0.32318310898E+03 -0.31497238137E+03  0.10626885732E+04  0.89693025235E+03 0.  0.
         23    2    4    4    0    0  0.24361399681E+03 -0.33940825298E+02  0.98728559774E+02  0.27936666245E+03  0.88309934396E+02 0.  0.
         23    2    4    4    0    0 -0.59170623025E+03 -0.28924228368E+03 -0.41370094115E+03  0.78332191070E+03  0.93098794299E+02 0.  0.
          1    1    3    3  502    0  0.29793150625E+03  0.30440674815E+03 -0.60534360527E+03  0.74018074224E+03  0.00000000000E+00 0. -1.
         -1    1    3    3    0  502  0.50160727186E+02  0.18776360830E+02 -0.48965652119E+02  0.72569176413E+02  0.00000000000E+00 0.  1.
         11    1    5    5    0    0  0.24210602440E+03 -0.39080619972E+02  0.10854204939E+03  0.26818649928E+03  0.00000000000E+00 0. -1.
        -11    1    5    5    0    0  0.15079724056E+01  0.51397946738E+01 -0.98134896206E+01  0.11180163174E+02  0.00000000000E+00 0.  1.
          3    1    6    6  503    0 -0.25619182447E+03 -0.84547550197E+02 -0.20102735772E+03  0.33644395926E+03  0.00000000000E+00 0. -1.
         -3    1    6    6    0  503 -0.33551440578E+03 -0.20469473348E+03 -0.21267358343E+03  0.44687795144E+03  0.00000000000E+00 0.  1.
<mgrwt>
<rscale>  0 0.16055412E+04</rscale>
<asrwt>0</asrwt>
<pdfrwt beam="1">  1        1 0.21882462E+00 0.16055412E+04</pdfrwt>
<pdfrwt beam="2">  1       -1 0.69704375E-01 0.16055412E+04</pdfrwt>
<totfact> 0.14791131E+01</totfact>
</mgrwt>
</event>
<event>
12    2  0.3555611E-008  0.2047544E+04  0.7818608E-02  0.8584709E-01
          2   -1    0    0  501    0  0.00000000000E+00  0.00000000000E+00  0.30848425910E+04  0.30848425910E+04  0.00000000000E+00 0. -1.
         -2   -1    0    0    0  501 -0.00000000000E+00 -0.00000000000E+00 -0.33976094023E+03  0.33976094023E+03  0.00000000000E+00 0.  1.
         23    2    1    2    0    0  0.51369971038E+03 -0.42098222070E+03  0.19157896613E+04  0.20298298612E+04  0.94052201735E+02 0.  0.
        254    2    1    2    0    0 -0.51369971038E+03  0.42098222070E+03  0.82929198952E+03  0.13947736700E+04  0.90363430887E+03 0.  0.
         23    2    4    4    0    0 -0.25248990546E+03  0.46670870481E+03  0.22202577899E+02  0.53979348667E+03  0.96518838995E+02 0.  0.
         23    2    4    4    0    0 -0.26120980493E+03 -0.45726484107E+02  0.80708941162E+03  0.85498018337E+03  0.96313665070E+02 0.  0.
          1    1    3    3  502    0  0.45926566776E+03 -0.36272228203E+03  0.15857150896E+04  0.16902617410E+04  0.00000000000E+00 0. -1.
         -1    1    3    3    0  502  0.54434042620E+02 -0.58259938674E+02  0.33007457167E+03  0.33956812028E+03  0.00000000000E+00 0.  1.
         11    1    5    5    0    0 -0.16342551888E+03  0.26724696069E+03  0.57582469600E+02  0.31850365622E+03  0.00000000000E+00 0. -1.
        -11    1    5    5    0    0 -0.89064386576E+02  0.19946174412E+03 -0.35379891701E+02  0.22128983045E+03  0.00000000000E+00 0.  1.
          4    1    6    6  503    0 -0.88888155479E+02  0.29797325027E+02  0.28511622184E+03  0.30013371140E+03  0.00000000000E+00 0. -1.
         -4    1    6    6    0  503 -0.17232164945E+03 -0.75523809134E+02  0.52197318977E+03  0.55484647197E+03  0.00000000000E+00 0.  1.
<mgrwt>
<rscale>  0 0.20475439E+04</rscale>
<asrwt>0</asrwt>
<pdfrwt beam="1">  1        2 0.47459115E+00 0.20475439E+04</pdfrwt>
<pdfrwt beam="2">  1       -2 0.52270916E-01 0.20475439E+04</pdfrwt>
<totfact> 0.49321205E+00</totfact>
</mgrwt>
</event>
<event>
12    2  0.3555611E-008  0.1539103E+04  0.7818608E-02  0.8858858E-01
         -2   -1    0    0    0  501 -0.00000000000E+00  0.00000000000E+00  0.35439521809E+03  0.35439521809E+03  0.00000000000E+00 0.  1.
          2   -1    0    0  501    0  0.00000000000E+00 -0.00000000000E+00 -0.16710430540E+04  0.16710430540E+04  0.00000000000E+00 0. -1.
         23    2    1    2    0    0  0.16681273564E+03 -0.11062354118E+03 -0.10442477370E+04  0.10661366125E+04  0.78293573492E+02 0.  0.
        254    2    1    2    0    0 -0.16681273564E+03  0.11062354118E+03 -0.27240009884E+03  0.95930165953E+03  0.89777157645E+03 0.  0.
         23    2    4    4    0    0  0.27437067990E+03  0.13153082583E+03 -0.38001791890E+03  0.49513027313E+03  0.90336817250E+02 0.  0.
         23    2    4    4    0    0 -0.44118341554E+03 -0.20907284650E+02  0.10761782006E+03  0.46417138640E+03  0.93773983902E+02 0.  0.
          4    1    3    3  502    0  0.61083090733E+02  0.24338197529E+00 -0.33627819958E+03  0.34178096893E+03  0.00000000000E+00 0. -1.
         -4    1    3    3    0  502  0.10572964491E+03 -0.11086692315E+03 -0.70796953746E+03  0.72435564361E+03  0.00000000000E+00 0.  1.
         11    1    5    5    0    0  0.17599681267E+03  0.10664147413E+03 -0.30908263382E+03  0.37132109636E+03  0.00000000000E+00 0.  1.
        -11    1    5    5    0    0  0.98373867231E+02  0.24889351699E+02 -0.70935285077E+02  0.12380917676E+03  0.00000000000E+00 0. -1.
          3    1    6    6  503    0 -0.25515102938E+03 -0.48038301503E+02  0.32260650689E+02  0.26163041832E+03  0.00000000000E+00 0. -1.
         -3    1    6    6    0  503 -0.18603238615E+03  0.27131016854E+02  0.75357169373E+02  0.20254096808E+03  0.00000000000E+00 0.  1.
<mgrwt>
<rscale>  0 0.15391032E+04</rscale>
<asrwt>0</asrwt>
<pdfrwt beam="1">  1        2 0.25708355E+00 0.15391032E+04</pdfrwt>
<pdfrwt beam="2">  1       -2 0.54522341E-01 0.15391032E+04</pdfrwt>
<totfact> 0.31037698E+01</totfact>
</mgrwt>
</event>
<event>
12    2  0.3555611E-008  0.2173681E+04  0.7818608E-02  0.8529463E-01
          2   -1    0    0  501    0  0.00000000000E+00  0.00000000000E+00  0.75501394656E+03  0.75501394656E+03  0.00000000000E+00 0. -1.
         -2   -1    0    0    0  501 -0.00000000000E+00 -0.00000000000E+00 -0.15645033102E+04  0.15645033102E+04  0.00000000000E+00 0.  1.
         23    2    1    2    0    0  0.74087359036E+03 -0.36542104988E+03 -0.70415315734E+03  0.10892226982E+04  0.90267362279E+02 0.  0.
        254    2    1    2    0    0 -0.74087359036E+03  0.36542104988E+03 -0.10533620626E+03  0.12302945585E+04  0.90559525384E+03 0.  0.
         23    2    4    4    0    0 -0.19600525156E+03  0.51567335524E+03 -0.28888416157E+03  0.62935862999E+03  0.91110693037E+02 0.  0.
         23    2    4    4    0    0 -0.54486833880E+03 -0.15025230536E+03  0.18354795531E+03  0.60093592853E+03  0.89313360738E+02 0.  0.
          4    1    3    3  502    0  0.14491566200E+03 -0.33261891679E+02 -0.12136044477E+03  0.19192514188E+03  0.00000000000E+00 0. -1.
         -4    1    3    3    0  502  0.59595792836E+03 -0.33215915820E+03 -0.58279271257E+03  0.89729755632E+03  0.00000000000E+00 0.  1.
         11    1    5    5    0    0 -0.13824619710E+03  0.24758537323E+03 -0.12512770469E+03  0.30994752868E+03  0.00000000000E+00 0. -1.
        -11    1    5    5    0    0 -0.57759054458E+02  0.26808798201E+03 -0.16375645688E+03  0.31941110131E+03  0.00000000000E+00 0.  1.
          3    1    6    6  503    0 -0.35145081132E+03 -0.11857847892E+03  0.15844812145E+03  0.40334146282E+03  0.00000000000E+00 0. -1.
         -3    1    6    6    0  503 -0.19341752748E+03 -0.31673826438E+02  0.25099833858E+02  0.19759446571E+03  0.00000000000E+00 0.  1.
<mgrwt>
<rscale>  0 0.21736806E+04</rscale>
<asrwt>0</asrwt>
<pdfrwt beam="1">  1        2 0.11615599E+00 0.21736806E+04</pdfrwt>
<pdfrwt beam="2">  1       -2 0.24069282E+00 0.21736806E+04</pdfrwt>
<totfact> 0.24970465E+00</totfact>
</mgrwt>
</event>
<event>
12    2  0.3555611E-008  0.1735096E+04  0.7818608E-02  0.8741597E-01
         -1   -1    0    0    0  501 -0.00000000000E+00  0.00000000000E+00  0.93456167892E+03  0.93456167892E+03  0.00000000000E+00 0.  1.
          1   -1    0    0  501    0  0.00000000000E+00 -0.00000000000E+00 -0.80533999346E+03  0.80533999346E+03  0.00000000000E+00 0. -1.
         23    2    1    2    0    0  0.54849225487E+02 -0.47331545255E+03 -0.36180362458E+03  0.60526369993E+03  0.91686032416E+02 0.  0.
        254    2    1    2    0    0 -0.54849225487E+02  0.47331545255E+03  0.49102531004E+03  0.11346379724E+04  0.90513066364E+03 0.  0.
         23    2    4    4    0    0 -0.97736578010E+02 -0.21598604579E+03  0.33544191516E+03  0.42068530247E+03  0.90842911739E+02 0.  0.
         23    2    4    4    0    0  0.42887352523E+02  0.68930149833E+03  0.15558339489E+03  0.71395266998E+03  0.92446425552E+02 0.  0.
          2    1    3    3  502    0  0.12237444386E+02 -0.83250218852E+02 -0.11208555866E+03  0.14015536538E+03  0.00000000000E+00 0. -1.
         -2    1    3    3    0  502  0.42611781101E+02 -0.39006523369E+03 -0.24971806593E+03  0.46510833456E+03  0.00000000000E+00 0.  1.
         11    1    5    5    0    0 -0.13138418192E+02  0.12152360753E+00  0.55604314006E+02  0.57135562802E+02  0.00000000000E+00 0. -1.
        -11    1    5    5    0    0 -0.84598159819E+02 -0.21610756939E+03  0.27983760115E+03  0.36354973967E+03  0.00000000000E+00 0.  1.
          1    1    6    6  503    0 -0.27533168508E+02  0.18075602222E+03  0.28374137773E+02  0.18502947503E+03  0.00000000000E+00 0. -1.
         -1    1    6    6    0  503  0.70420521031E+02  0.50854547611E+03  0.12720925712E+03  0.52892319495E+03  0.00000000000E+00 0.  1.
<mgrwt>
<rscale>  0 0.17350964E+04</rscale>
<asrwt>0</asrwt>
<pdfrwt beam="1">  1        1 0.12389846E+00 0.17350964E+04</pdfrwt>
<pdfrwt beam="2">  1       -1 0.14377872E+00 0.17350964E+04</pdfrwt>
<totfact> 0.81107442E+00</totfact>
</mgrwt>
</event>
<event>
12    2  0.3555611E-008  0.1806975E+04  0.7818608E-02  0.8702599E-01
         -2   -1    0    0    0  501 -0.00000000000E+00  0.00000000000E+00  0.17906257101E+04  0.17906257101E+04  0.00000000000E+00 0.  1.
          2   -1    0    0  501    0  0.00000000000E+00 -0.00000000000E+00 -0.45586839248E+03  0.45586839248E+03  0.00000000000E+00 0. -1.
         23    2    1    2    0    0  0.10284543603E+03  0.30452959796E+03 -0.23665643352E+03  0.40874437324E+03  0.88035421142E+02 0.  0.
        254    2    1    2    0    0 -0.10284543603E+03 -0.30452959796E+03  0.15714137511E+04  0.18377497293E+04  0.89703256943E+03 0.  0.
         23    2    4    4    0    0 -0.43881067394E+03 -0.93912293228E+02  0.12089592551E+04  0.12928202825E+04  0.91801285976E+02 0.  0.
         23    2    4    4    0    0  0.33596523791E+03 -0.21061730474E+03  0.36245449604E+03  0.54492944678E+03  0.91337561418E+02 0.  0.
          1    1    3    3  502    0  0.78915295890E+02  0.17021754230E+03 -0.18316810187E+03  0.26220638661E+03  0.00000000000E+00 0. -1.
         -1    1    3    3    0  502  0.23930140142E+02  0.13431205566E+03 -0.53488331651E+02  0.14653798663E+03  0.00000000000E+00 0.  1.
         11    1    5    5    0    0 -0.19452724542E+03 -0.87629319598E+02  0.53934986085E+03  0.58001553364E+03  0.00000000000E+00 0.  1.
        -11    1    5    5    0    0 -0.24428342852E+03 -0.62829736301E+01  0.66960939423E+03  0.71280474889E+03  0.00000000000E+00 0. -1.
          3    1    6    6  503    0  0.30542889936E+03 -0.16486287919E+03  0.28066503426E+03  0.44636245693E+03  0.00000000000E+00 0.  1.
         -3    1    6    6    0  503  0.30536338548E+02 -0.45754425547E+02  0.81789461782E+02  0.98566989848E+02  0.00000000000E+00 0. -1.
<mgrwt>
<rscale>  0 0.18069750E+04</rscale>
<asrwt>0</asrwt>
<pdfrwt beam="1">  1        2 0.70133600E-01 0.18069750E+04</pdfrwt>
<pdfrwt beam="2">  1       -2 0.27548088E+00 0.18069750E+04</pdfrwt>
<totfact> 0.29033263E+00</totfact>
</mgrwt>
</event>
<event>
12    2  0.3555611E-008  0.2539016E+04  0.7818608E-02  0.8389216E-01
          2   -1    0    0  501    0  0.00000000000E+00  0.00000000000E+00  0.88075495447E+03  0.88075495447E+03  0.00000000000E+00 0.  1.
         -2   -1    0    0    0  501 -0.00000000000E+00 -0.00000000000E+00 -0.18298518418E+04  0.18298518418E+04  0.00000000000E+00 0. -1.
         23    2    1    2    0    0 -0.10687813795E+03 -0.10704290278E+04 -0.16917763569E+03  0.10926110970E+04  0.89088140724E+02 0.  0.
        254    2    1    2    0    0  0.10687813795E+03  0.10704290278E+04 -0.77991925164E+03  0.16179956993E+04  0.92325229700E+03 0.  0.
         23    2    4    4    0    0 -0.86898501090E+01  0.43422574263E+03  0.16136011624E+03  0.47230958096E+03  0.91715560787E+02 0.  0.
         23    2    4    4    0    0  0.11556798806E+03  0.63620328519E+03 -0.94127936789E+03  0.11456861183E+04  0.92082861653E+02 0.  0.
          3    1    3    3  502    0 -0.89733473973E+02 -0.67126541374E+03 -0.14337675095E+03  0.69224724250E+03  0.00000000000E+00 0. -1.
         -3    1    3    3    0  502 -0.17144663975E+02 -0.39916361408E+03 -0.25800884746E+02  0.40036385446E+03  0.00000000000E+00 0.  1.
         11    1    5    5    0    0  0.26597477964E+02  0.35194739054E+03  0.11324758349E+03  0.37067425957E+03  0.00000000000E+00 0. -1.
        -11    1    5    5    0    0 -0.35287328073E+02  0.82278352096E+02  0.48112532753E+02  0.10163532139E+03  0.00000000000E+00 0.  1.
          3    1    6    6  503    0  0.69016603716E+02  0.35978466372E+03 -0.61182738208E+03  0.71312063587E+03  0.00000000000E+00 0. -1.
         -3    1    6    6    0  503  0.46551384341E+02  0.27641862147E+03 -0.32945198581E+03  0.43256548248E+03  0.00000000000E+00 0.  1.
<mgrwt>
<rscale>  0 0.25390164E+04</rscale>
<asrwt>0</asrwt>
<pdfrwt beam="1">  1        2 0.13550076E+00 0.25390164E+04</pdfrwt>
<pdfrwt beam="2">  1       -2 0.28151567E+00 0.25390164E+04</pdfrwt>
<totfact> 0.11076185E+00</totfact>
</mgrwt>
</event>
<event>
12    2  0.3555611E-008  0.2802287E+04  0.7818608E-02  0.8302559E-01
         -1   -1    0    0    0  501 -0.00000000000E+00  0.00000000000E+00  0.14707522297E+04  0.14707522297E+04  0.00000000000E+00 0.  1.
          1   -1    0    0  501    0  0.00000000000E+00 -0.00000000000E+00 -0.13348293049E+04  0.13348293049E+04  0.00000000000E+00 0. -1.
         23    2    1    2    0    0  0.74728539800E+03  0.92315706634E+03 -0.38084004030E+03  0.12505038758E+04  0.89812983332E+02 0.  0.
        254    2    1    2    0    0 -0.74728539800E+03 -0.92315706634E+03  0.51676296505E+03  0.15550776588E+04  0.86056268086E+03 0.  0.
         23    2    4    4    0    0 -0.66788257335E+03 -0.10770444483E+04  0.43251230958E+03  0.13421558501E+04  0.90683806025E+02 0.  0.
         23    2    4    4    0    0 -0.79402824655E+02  0.15388738196E+03  0.84250655471E+02  0.21292180869E+03  0.90837155288E+02 0.  0.
          2    1    3    3  502    0  0.57208116712E+03  0.73239009621E+03 -0.33241485812E+03  0.98700139448E+03  0.00000000000E+00 0.  1.
         -2    1    3    3    0  502  0.17520423088E+03  0.19076697012E+03 -0.48425182180E+02  0.26350248135E+03  0.00000000000E+00 0. -1.
         11    1    5    5    0    0 -0.57096645177E+03 -0.90419605637E+03  0.33057327598E+03  0.11193086653E+04  0.00000000000E+00 0.  1.
        -11    1    5    5    0    0 -0.96916121579E+02 -0.17284839193E+03  0.10193903360E+03  0.22284718483E+03  0.00000000000E+00 0. -1.
          1    1    6    6  503    0 -0.77255150915E+01 -0.10984312381E+02 -0.19077930799E+01  0.13563862884E+02  0.00000000000E+00 0. -1.
         -1    1    6    6    0  503 -0.71677309563E+02  0.16487169434E+03  0.86158448551E+02  0.19935794581E+03  0.00000000000E+00 0.  1.
<mgrwt>
<rscale>  0 0.28022870E+04</rscale>
<asrwt>0</asrwt>
<pdfrwt beam="1">  1        1 0.20535835E+00 0.28022870E+04</pdfrwt>
<pdfrwt beam="2">  1       -1 0.22626957E+00 0.28022870E+04</pdfrwt>
<totfact> 0.73895217E-01</totfact>
</mgrwt>
</event>
<event>
12    2  0.3555611E-008  0.9984235E+03  0.7818608E-02  0.9310276E-01
          2   -1    0    0  501    0  0.00000000000E+00  0.00000000000E+00  0.12490164632E+04  0.12490164632E+04  0.00000000000E+00 0. -1.
         -2   -1    0    0    0  501 -0.00000000000E+00 -0.00000000000E+00 -0.19952687104E+03  0.19952687104E+03  0.00000000000E+00 0.  1.
         23    2    1    2    0    0 -0.62010988634E+02 -0.24316314637E+02  0.47080683139E+02  0.12191511177E+03  0.90609369732E+02 0.  0.
        254    2    1    2    0    0  0.62010988634E+02  0.24316314637E+02  0.10024089090E+04  0.13266282224E+04  0.86641916755E+03 0.  0.
         23    2    4    4    0    0  0.33257242669E+03  0.30634736114E+03  0.61186358044E+03  0.76628759600E+03  0.91468650556E+02 0.  0.
         23    2    4    4    0    0 -0.27056143805E+03 -0.28203104650E+03  0.39054532854E+03  0.56034062645E+03  0.93332529443E+02 0.  0.
          3    1    3    3  502    0 -0.25527544238E+02  0.22927392252E+02 -0.13495862763E+02  0.36870844064E+02  0.00000000000E+00 0. -1.
         -3    1    3    3    0  502 -0.36483444396E+02 -0.47243706889E+02  0.60576545902E+02  0.85044267702E+02  0.00000000000E+00 0.  1.
         11    1    5    5    0    0  0.70495781277E+02  0.54628509025E+02  0.18729649670E+03  0.20744615410E+03  0.00000000000E+00 0. -1.
        -11    1    5    5    0    0  0.26207664541E+03  0.25171885211E+03  0.42456708375E+03  0.55884144190E+03  0.00000000000E+00 0.  1.
          1    1    6    6  503    0 -0.17942431786E+03 -0.15345696091E+03  0.17769158343E+03  0.29549352533E+03  0.00000000000E+00 0. -1.
         -1    1    6    6    0  503 -0.91137120195E+02 -0.12857408559E+03  0.21285374511E+03  0.26484710112E+03  0.00000000000E+00 0.  1.
<mgrwt>
<rscale>  0 0.99842345E+03</rscale>
<asrwt>0</asrwt>
<pdfrwt beam="1">  1        2 0.19215637E+00 0.99842345E+03</pdfrwt>
<pdfrwt beam="2">  1       -2 0.30696442E-01 0.99842345E+03</pdfrwt>
<totfact> 0.17346924E+02</totfact>
</mgrwt>
</event>
<event>
12    2  0.3555611E-008  0.1467283E+04  0.7818608E-02  0.8906506E-01
         -1   -1    0    0    0  501 -0.00000000000E+00  0.00000000000E+00  0.19688668658E+03  0.19688668658E+03  0.00000000000E+00 0.  1.
          1   -1    0    0  501    0  0.00000000000E+00 -0.00000000000E+00 -0.27337024053E+04  0.27337024053E+04  0.00000000000E+00 0. -1.
         23    2    1    2    0    0  0.22596066570E+03 -0.19095913171E+03 -0.14958763481E+04  0.15275341706E+04  0.90504038623E+02 0.  0.
        254    2    1    2    0    0 -0.22596066570E+03  0.19095913171E+03 -0.10409393706E+04  0.14030549213E+04  0.89302000342E+03 0.  0.
         23    2    4    4    0    0  0.12264173750E+03  0.91544047493E+02 -0.10131175611E+04  0.10286079998E+04  0.90586513421E+02 0.  0.
         23    2    4    4    0    0 -0.34860240320E+03  0.99415084218E+02 -0.27821809570E+02  0.37444692148E+03  0.89607195209E+02 0.  0.
          3    1    3    3  502    0  0.20279826249E+03 -0.16238277192E+03 -0.11141294624E+04  0.11440191252E+04  0.00000000000E+00 0. -1.
         -3    1    3    3    0  502  0.23162403215E+02 -0.28576359793E+02 -0.38174688577E+03  0.38351504541E+03  0.00000000000E+00 0.  1.
         11    1    5    5    0    0  0.13259124909E+02  0.61809668491E+02 -0.30584812297E+03  0.31231284610E+03  0.00000000000E+00 0. -1.
        -11    1    5    5    0    0  0.10938261259E+03  0.29734379001E+02 -0.70726943808E+03  0.71629515375E+03  0.00000000000E+00 0.  1.
          1    1    6    6  503    0 -0.12448371319E+03  0.39546256489E+02  0.32819425013E+02  0.13467448129E+03  0.00000000000E+00 0. -1.
         -1    1    6    6    0  503 -0.22411869001E+03  0.59868827729E+02 -0.60641234583E+02  0.23977244020E+03  0.00000000000E+00 0.  1.
<mgrwt>
<rscale>  0 0.14672827E+04</rscale>
<asrwt>0</asrwt>
<pdfrwt beam="1">  1        1 0.42056959E+00 0.14672827E+04</pdfrwt>
<pdfrwt beam="2">  1       -1 0.30290260E-01 0.14672827E+04</pdfrwt>
<totfact> 0.90797451E+00</totfact>
</mgrwt>
</event>
<event>
12    2  0.3555611E-008  0.2968554E+04  0.7818608E-02  0.8252768E-01
         -2   -1    0    0    0  501 -0.00000000000E+00  0.00000000000E+00  0.93728681208E+03  0.93728681208E+03  0.00000000000E+00 0.  1.
          2   -1    0    0  501    0  0.00000000000E+00 -0.00000000000E+00 -0.23504838182E+04  0.23504838182E+04  0.00000000000E+00 0. -1.
         23    2    1    2    0    0 -0.14914222788E+03  0.12548022154E+04 -0.12853836854E+03  0.12734615233E+04  0.91706789763E+02 0.  0.
        254    2    1    2    0    0  0.14914222788E+03 -0.12548022154E+04 -0.12846586376E+04  0.20143091070E+04  0.90017851537E+03 0.  0.
         23    2    4    4    0    0  0.50322505342E+03 -0.93124115833E+03 -0.91851069255E+03  0.14042815900E+04  0.88878244369E+02 0.  0.
         23    2    4    4    0    0 -0.35408282554E+03 -0.32356105704E+03 -0.36614794502E+03  0.61002751698E+03  0.89458643234E+02 0.  0.
          2    1    3    3  502    0 -0.68274560951E+02  0.65422457142E+03 -0.11195592361E+03  0.66723709007E+03  0.00000000000E+00 0. -1.
         -2    1    3    3    0  502 -0.80867666924E+02  0.60057764394E+03 -0.16582444925E+02  0.60622443322E+03  0.00000000000E+00 0.  1.
         11    1    5    5    0    0  0.42211049374E+03 -0.72438589706E+03 -0.69342636465E+03  0.10880038235E+04  0.00000000000E+00 0. -1.
        -11    1    5    5    0    0  0.81114559678E+02 -0.20685526126E+03 -0.22508432790E+03  0.31627776648E+03  0.00000000000E+00 0.  1.
          1    1    6    6  503    0 -0.31172779615E+03 -0.31748103752E+03 -0.32898505299E+03  0.55335304569E+03  0.00000000000E+00 0. -1.
         -1    1    6    6    0  503 -0.42355029393E+02 -0.60800195198E+01 -0.37162892027E+02  0.56674471291E+02  0.00000000000E+00 0.  1.
<mgrwt>
<rscale>  0 0.29685535E+04</rscale>
<asrwt>0</asrwt>
<pdfrwt beam="1">  1        2 0.36161289E+00 0.29685535E+04</pdfrwt>
<pdfrwt beam="2">  1       -2 0.14419797E+00 0.29685535E+04</pdfrwt>
<totfact> 0.12106986E+00</totfact>
</mgrwt>
</event>
<event>
12    2  0.3555611E-008  0.1724689E+04  0.7818608E-02  0.8747407E-01
         -2   -1    0    0    0  501 -0.00000000000E+00  0.00000000000E+00  0.16087265731E+04  0.16087265731E+04  0.00000000000E+00 0.  1.
          2   -1    0    0  501    0  0.00000000000E+00 -0.00000000000E+00 -0.46225246597E+03  0.46225246597E+03  0.00000000000E+00 0. -1.
         23    2    1    2    0    0 -0.33126875865E+03  0.25634255425E+03  0.97090969945E+03  0.10613158290E+04  0.90967845421E+02 0.  0.
        254    2    1    2    0    0  0.33126875865E+03 -0.25634255425E+03  0.17556440765E+03  0.10096632100E+04  0.90174632842E+03 0.  0.
         23    2    4    4    0    0 -0.21117272515E+03  0.17476770409E+03  0.10327090477E+03  0.30595087456E+03  0.88336785271E+02 0.  0.
         23    2    4    4    0    0  0.54244148380E+03 -0.43111025834E+03  0.72293502883E+02  0.70371233544E+03  0.99427774294E+02 0.  0.
          4    1    3    3  502    0 -0.67723104224E+01  0.11166433456E+02  0.63563785175E+01  0.14524357901E+02  0.00000000000E+00 0. -1.
         -4    1    3    3    0  502 -0.32449644823E+03  0.24517612080E+03  0.96455332093E+03  0.10467914711E+04  0.00000000000E+00 0.  1.
         11    1    5    5    0    0 -0.17177848141E+03  0.14477226314E+03  0.44343655788E+02  0.22898300081E+03  0.00000000000E+00 0. -1.
        -11    1    5    5    0    0 -0.39394243744E+02  0.29995440943E+02  0.58927248978E+02  0.76967873750E+02  0.00000000000E+00 0.  1.
          2    1    6    6  503    0  0.48383475080E+03 -0.40854690334E+03  0.43838645628E+02  0.63476646506E+03  0.00000000000E+00 0. -1.
         -2    1    6    6    0  503  0.58606733001E+02 -0.22563355001E+02  0.28454857255E+02  0.68945870387E+02  0.00000000000E+00 0.  1.
<mgrwt>
<rscale>  0 0.17246888E+04</rscale>
<asrwt>0</asrwt>
<pdfrwt beam="1">  1        2 0.71115765E-01 0.17246888E+04</pdfrwt>
<pdfrwt beam="2">  1       -2 0.24749639E+00 0.17246888E+04</pdfrwt>
<totfact> 0.42642245E+00</totfact>
</mgrwt>
</event>
<event>
12    2  0.3555611E-008  0.2191038E+04  0.7818608E-02  0.8522168E-01
         -2   -1    0    0    0  501 -0.00000000000E+00  0.00000000000E+00  0.96437834111E+03  0.96437834111E+03  0.00000000000E+00 0. -1.
          2   -1    0    0  501    0  0.00000000000E+00 -0.00000000000E+00 -0.12444923294E+04  0.12444923294E+04  0.00000000000E+00 0.  1.
         23    2    1    2    0    0  0.87670346818E+03  0.22352489495E+03 -0.19482330649E+03  0.93008695107E+03  0.92375678637E+02 0.  0.
        254    2    1    2    0    0 -0.87670346818E+03 -0.22352489495E+03 -0.85290681821E+02  0.12787837195E+04  0.89968936359E+03 0.  0.
         23    2    4    4    0    0 -0.37336275982E+03  0.17051800967E+03  0.30932751601E+03  0.52202366235E+03  0.91373135264E+02 0.  0.
         23    2    4    4    0    0 -0.50334070836E+03 -0.39404290463E+03 -0.39461819783E+03  0.75676005711E+03  0.91326790108E+02 0.  0.
          1    1    3    3  502    0  0.12586108162E+03  0.66381293656E+02 -0.34012402256E+02  0.14630219247E+03  0.00000000000E+00 0. -1.
         -1    1    3    3    0  502  0.75084238657E+03  0.15714360130E+03 -0.16081090424E+03  0.78378475860E+03  0.00000000000E+00 0.  1.
         11    1    5    5    0    0 -0.34862997259E+03  0.13052202654E+03  0.26135360696E+03  0.45484564973E+03  0.00000000000E+00 0. -1.
        -11    1    5    5    0    0 -0.24732787227E+02  0.39995983129E+02  0.47973909052E+02  0.67178012625E+02  0.00000000000E+00 0.  1.
          1    1    6    6  503    0 -0.12825275654E+03 -0.12083659155E+03 -0.15412271565E+03  0.23410267597E+03  0.00000000000E+00 0. -1.
         -1    1    6    6    0  503 -0.37508795182E+03 -0.27320631307E+03 -0.24049548219E+03  0.52265738113E+03  0.00000000000E+00 0.  1.
<mgrwt>
<rscale>  0 0.21910376E+04</rscale>
<asrwt>0</asrwt>
<pdfrwt beam="1">  1        2 0.19146036E+00 0.21910376E+04</pdfrwt>
<pdfrwt beam="2">  1       -2 0.14836590E+00 0.21910376E+04</pdfrwt>
<totfact> 0.50284456E+00</totfact>
</mgrwt>
</event>
<event>
12    2  0.3555611E-008  0.2005571E+04  0.7818608E-02  0.8604020E-01
         -1   -1    0    0    0  501 -0.00000000000E+00  0.00000000000E+00  0.35702072418E+03  0.35702072418E+03  0.00000000000E+00 0.  1.
          1   -1    0    0  501    0  0.00000000000E+00 -0.00000000000E+00 -0.28165836806E+04  0.28165836806E+04  0.00000000000E+00 0. -1.
         23    2    1    2    0    0 -0.31726749568E+03 -0.20118981377E+03 -0.20966914554E+04  0.21328215143E+04  0.10805807508E+03 0.  0.
        254    2    1    2    0    0  0.31726749568E+03  0.20118981377E+03 -0.36287150094E+03  0.10407828904E+04  0.90023180007E+03 0.  0.
         23    2    4    4    0    0 -0.56316000315E+02 -0.20470761440E+03 -0.41966818406E+03  0.47863858555E+03  0.88864006093E+02 0.  0.
         23    2    4    4    0    0  0.37358349599E+03  0.40589742818E+03  0.56796683119E+02  0.56214430489E+03  0.91994595655E+02 0.  0.
          3    1    3    3  502    0 -0.23607412379E+03 -0.18884499760E+03 -0.17887466348E+04  0.18141135434E+04  0.00000000000E+00 0. -1.
         -3    1    3    3    0  502 -0.81193371883E+02 -0.12344816170E+02 -0.30794482067E+03  0.31870797088E+03  0.00000000000E+00 0.  1.
         11    1    5    5    0    0 -0.38878911161E+02 -0.41614006619E+02 -0.56858490896E+02  0.80474736825E+02  0.00000000000E+00 0.  1.
        -11    1    5    5    0    0 -0.17437089154E+02 -0.16309360778E+03 -0.36280969316E+03  0.39816384872E+03  0.00000000000E+00 0. -1.
          3    1    6    6  503    0  0.19476494652E+03  0.19863176091E+03  0.74001376706E+02  0.28786136349E+03  0.00000000000E+00 0. -1.
         -3    1    6    6    0  503  0.17881854947E+03  0.20726566727E+03 -0.17204693587E+02  0.27428294140E+03  0.00000000000E+00 0.  1.
<mgrwt>
<rscale>  0 0.20055710E+04</rscale>
<asrwt>0</asrwt>
<pdfrwt beam="1">  1        1 0.43332057E+00 0.20055710E+04</pdfrwt>
<pdfrwt beam="2">  1       -1 0.54926265E-01 0.20055710E+04</pdfrwt>
<totfact> 0.25219731E+00</totfact>
</mgrwt>
</event>
<event>
12    2  0.3555611E-008  0.1924973E+04  0.7818608E-02  0.8642525E-01
          2   -1    0    0  501    0  0.00000000000E+00  0.00000000000E+00  0.15049230273E+04  0.15049230273E+04  0.00000000000E+00 0. -1.
         -2   -1    0    0    0  501 -0.00000000000E+00 -0.00000000000E+00 -0.61556625131E+03  0.61556625131E+03  0.00000000000E+00 0.  1.
         23    2    1    2    0    0 -0.69785778209E+03 -0.26131986635E+03  0.44066883135E+03  0.87088561319E+03  0.94652922646E+02 0.  0.
        254    2    1    2    0    0  0.69785778209E+03  0.26131986635E+03  0.44868794467E+03  0.12496036655E+04  0.89715934620E+03 0.  0.
         23    2    4    4    0    0  0.64315631303E+03 -0.98028398902E+02 -0.91524741912E+01  0.65798101252E+03  0.97957312526E+02 0.  0.
         23    2    4    4    0    0  0.54701469059E+02  0.35934826525E+03  0.45784041886E+03  0.59162265294E+03  0.90973006257E+02 0.  0.
          3    1    3    3  502    0 -0.49312894265E+03 -0.16014050726E+03  0.34796459319E+03  0.62442012641E+03  0.00000000000E+00 0. -1.
         -3    1    3    3    0  502 -0.20472883943E+03 -0.10117935909E+03  0.92704238164E+02  0.24646548678E+03  0.00000000000E+00 0.  1.
         11    1    5    5    0    0  0.32573425808E+02 -0.56256405745E+01  0.21922411361E+02  0.39664442775E+02  0.00000000000E+00 0.  1.
        -11    1    5    5    0    0  0.61058288722E+03 -0.92402758327E+02 -0.31074885553E+02  0.61831656975E+03  0.00000000000E+00 0. -1.
          4    1    6    6  503    0  0.38730498975E+02  0.34522068688E+03  0.39898631994E+03  0.52902500668E+03  0.00000000000E+00 0. -1.
         -4    1    6    6    0  503  0.15970970085E+02  0.14127578372E+02  0.58854098924E+02  0.62597646252E+02  0.00000000000E+00 0.  1.
<mgrwt>
<rscale>  0 0.19249725E+04</rscale>
<asrwt>0</asrwt>
<pdfrwt beam="1">  1        2 0.23152662E+00 0.19249725E+04</pdfrwt>
<pdfrwt beam="2">  1       -2 0.94702501E-01 0.19249725E+04</pdfrwt>
<totfact> 0.11069233E+01</totfact>
</mgrwt>
</event>
<event>
12    2  0.3555611E-008  0.2499953E+04  0.7818608E-02  0.8403002E-01
         -2   -1    0    0    0  501 -0.00000000000E+00  0.00000000000E+00  0.11339882176E+04  0.11339882176E+04  0.00000000000E+00 0.  1.
          2   -1    0    0  501    0  0.00000000000E+00 -0.00000000000E+00 -0.13778288783E+04  0.13778288783E+04  0.00000000000E+00 0. -1.
         23    2    1    2    0    0 -0.75378407082E+02  0.19247730202E+03 -0.11773661408E+04  0.11987782437E+04  0.90270881880E+02 0.  0.
        254    2    1    2    0    0  0.75378407082E+02 -0.19247730202E+03  0.93352548005E+03  0.13130388522E+04  0.89992876906E+03 0.  0.
         23    2    4    4    0    0 -0.19060725302E+03  0.20356301883E+03  0.73008111416E+03  0.78680566797E+03  0.90970865468E+02 0.  0.
         23    2    4    4    0    0  0.26598566010E+03 -0.39604032085E+03  0.20344436589E+03  0.52623318420E+03  0.89081126120E+02 0.  0.
          4    1    3    3  502    0 -0.46802426697E+02  0.15056571048E+03 -0.10484766146E+04  0.10602658683E+04  0.00000000000E+00 0. -1.
         -4    1    3    3    0  502 -0.28575980385E+02  0.41911591543E+02 -0.12888952622E+03  0.13851237537E+03  0.00000000000E+00 0.  1.
         11    1    5    5    0    0 -0.40064113411E+02  0.79264352776E+02  0.14526394891E+03  0.17026328335E+03  0.00000000000E+00 0. -1.
        -11    1    5    5    0    0 -0.15054313961E+03  0.12429866605E+03  0.58481716525E+03  0.61654238462E+03  0.00000000000E+00 0.  1.
          3    1    6    6  503    0  0.71282953403E+02 -0.17451219283E+03  0.10205597308E+03  0.21436227871E+03  0.00000000000E+00 0. -1.
         -3    1    6    6    0  503  0.19470270670E+03 -0.22152812802E+03  0.10138839281E+03  0.31187090550E+03  0.00000000000E+00 0.  1.
<mgrwt>
<rscale>  0 0.24999534E+04</rscale>
<asrwt>0</asrwt>
<pdfrwt beam="1">  1        2 0.21197367E+00 0.24999534E+04</pdfrwt>
<pdfrwt beam="2">  1       -2 0.17445973E+00 0.24999534E+04</pdfrwt>
<totfact> 0.26344348E+00</totfact>
</mgrwt>
</event>
<event>
12    2  0.3555611E-008  0.2049301E+04  0.7818608E-02  0.8583911E-01
          2   -1    0    0  501    0  0.00000000000E+00  0.00000000000E+00  0.47651803996E+04  0.47651803996E+04  0.00000000000E+00 0. -1.
         -2   -1    0    0    0  501 -0.00000000000E+00 -0.00000000000E+00 -0.22032935953E+03  0.22032935953E+03  0.00000000000E+00 0.  1.
         23    2    1    2    0    0  0.41382379171E+03 -0.28175181436E+03  0.24939900100E+03  0.56675478942E+03  0.91525483597E+02 0.  0.
        254    2    1    2    0    0 -0.41382379171E+03  0.28175181436E+03  0.42954520391E+04  0.44187549697E+04  0.90766350977E+03 0.  0.
         23    2    4    4    0    0 -0.68827754836E+03  0.14866433174E+03  0.32089539936E+04  0.32865368188E+04  0.90063651154E+02 0.  0.
         23    2    4    4    0    0  0.27445375666E+03  0.13308748262E+03  0.10864980455E+04  0.11322181509E+04  0.91666765266E+02 0.  0.
          2    1    3    3  502    0  0.18539959139E+03 -0.10921423119E+03  0.59569232673E+02  0.22326945663E+03  0.00000000000E+00 0. -1.
         -2    1    3    3    0  502  0.22842420032E+03 -0.17253758318E+03  0.18982976832E+03  0.34348533279E+03  0.00000000000E+00 0.  1.
         11    1    5    5    0    0 -0.23878302242E+03  0.50003643497E+02  0.13181428256E+04  0.13405290764E+04  0.00000000000E+00 0. -1.
        -11    1    5    5    0    0 -0.44949452595E+03  0.98660688242E+02  0.18908111680E+04  0.19460077424E+04  0.00000000000E+00 0.  1.
          2    1    6    6  503    0  0.11399208968E+03  0.31292772566E+02  0.28583495210E+03  0.30931384380E+03  0.00000000000E+00 0. -1.
         -2    1    6    6    0  503  0.16046166697E+03  0.10179471006E+03  0.80066309340E+03  0.82290430713E+03  0.00000000000E+00 0.  1.
<mgrwt>
<rscale>  0 0.20493015E+04</rscale>
<asrwt>0</asrwt>
<pdfrwt beam="1">  1        2 0.73310460E+00 0.20493015E+04</pdfrwt>
<pdfrwt beam="2">  1       -2 0.33896828E-01 0.20493015E+04</pdfrwt>
<totfact> 0.50034558E-01</totfact>
</mgrwt>
</event>
<event>
12    2  0.3555611E-008  0.2029740E+04  0.7818608E-02  0.8592841E-01
         -1   -1    0    0    0  501 -0.00000000000E+00  0.00000000000E+00  0.73545304748E+03  0.73545304748E+03  0.00000000000E+00 0. -1.
          1   -1    0    0  501    0  0.00000000000E+00 -0.00000000000E+00 -0.14004438208E+04  0.14004438208E+04  0.00000000000E+00 0.  1.
         23    2    1    2    0    0 -0.26659561494E+03  0.47032318643E+03  0.36712362802E+03  0.65979689567E+03  0.90967377029E+02 0.  0.
        254    2    1    2    0    0  0.26659561494E+03 -0.47032318643E+03 -0.10321144013E+04  0.14760999726E+04  0.90627472109E+03 0.  0.
         23    2    4    4    0    0  0.28000343827E+03 -0.12762317042E+03  0.60640163364E+02  0.32676639845E+03  0.91703057047E+02 0.  0.
         23    2    4    4    0    0 -0.13407823323E+02 -0.34270001601E+03 -0.10927545647E+04  0.11493335742E+04  0.96083584998E+02 0.  0.
          4    1    3    3  502    0 -0.24432777326E+03  0.37006117914E+03  0.31970240809E+03  0.54667263223E+03  0.00000000000E+00 0. -1.
         -4    1    3    3    0  502 -0.22267841688E+02  0.10026200729E+03  0.47421219930E+02  0.11312426344E+03  0.00000000000E+00 0.  1.
         11    1    5    5    0    0  0.13145013211E+03 -0.97049208143E+02  0.62898772305E+02  0.17508267073E+03  0.00000000000E+00 0. -1.
        -11    1    5    5    0    0  0.14855330616E+03 -0.30573962277E+02 -0.22586089406E+01  0.15168372772E+03  0.00000000000E+00 0.  1.
          1    1    6    6  503    0  0.38941641900E+02 -0.89847275468E+02 -0.29396118718E+03  0.30984215974E+03  0.00000000000E+00 0. -1.
         -1    1    6    6    0  503 -0.52349465223E+02 -0.25285274054E+03 -0.79879337753E+03  0.83949141443E+03  0.00000000000E+00 0.  1.
<mgrwt>
<rscale>  0 0.20297396E+04</rscale>
<asrwt>0</asrwt>
<pdfrwt beam="1">  1        1 0.21545289E+00 0.20297396E+04</pdfrwt>
<pdfrwt beam="2">  1       -1 0.11314662E+00 0.20297396E+04</pdfrwt>
<totfact> 0.50696644E+00</totfact>
</mgrwt>
</event>
<event>
12    2  0.3555611E-008  0.2877569E+04  0.7818608E-02  0.8279583E-01
          2   -1    0    0  501    0  0.00000000000E+00  0.00000000000E+00  0.15791302975E+04  0.15791302975E+04  0.00000000000E+00 0. -1.
         -2   -1    0    0    0  501 -0.00000000000E+00 -0.00000000000E+00 -0.13109120979E+04  0.13109120979E+04  0.00000000000E+00 0.  1.
         23    2    1    2    0    0 -0.90340782054E+03 -0.61059015228E+03  0.82082328965E+03  0.13676529489E+04  0.88077757813E+02 0.  0.
        254    2    1    2    0    0  0.90340782054E+03  0.61059015228E+03 -0.55260509005E+03  0.15223894465E+04  0.90737600643E+03 0.  0.
         23    2    4    4    0    0  0.38847809423E+03  0.88234125554E+02  0.21087485839E+03  0.45947952377E+03  0.89178115338E+02 0.  0.
         23    2    4    4    0    0  0.51492972631E+03  0.52235602673E+03 -0.76347994844E+03  0.10629099227E+04  0.94167035141E+02 0.  0.
          2    1    3    3  502    0 -0.82732325866E+03 -0.54749396950E+03  0.71522986953E+03  0.12230156120E+04  0.00000000000E+00 0. -1.
         -2    1    3    3    0  502 -0.76084561880E+02 -0.63096182781E+02  0.10559342012E+03  0.14463733685E+03  0.00000000000E+00 0.  1.
         11    1    5    5    0    0  0.46486406578E+01 -0.44732257386E+01 -0.61411646867E+01  0.89069361839E+01  0.00000000000E+00 0. -1.
        -11    1    5    5    0    0  0.38382945357E+03  0.92707351293E+02  0.21701602308E+03  0.45057258759E+03  0.00000000000E+00 0.  1.
          3    1    6    6  503    0  0.44084409935E+02  0.60765243313E+02 -0.44098746565E+02  0.87066350807E+02  0.00000000000E+00 0. -1.
         -3    1    6    6    0  503  0.47084531638E+03  0.46159078341E+03 -0.71938120187E+03  0.97584357194E+03  0.00000000000E+00 0.  1.
<mgrwt>
<rscale>  0 0.28775691E+04</rscale>
<asrwt>0</asrwt>
<pdfrwt beam="1">  1        2 0.24294312E+00 0.28775691E+04</pdfrwt>
<pdfrwt beam="2">  1       -2 0.20167879E+00 0.28775691E+04</pdfrwt>
<totfact> 0.12846143E+00</totfact>
</mgrwt>
</event>
<event>
12    2  0.3555611E-008  0.2348760E+04  0.7818608E-02  0.8458940E-01
          3   -1    0    0  501    0  0.00000000000E+00  0.00000000000E+00  0.79147142459E+03  0.79147142459E+03  0.00000000000E+00 0. -1.
         -3   -1    0    0    0  501 -0.00000000000E+00 -0.00000000000E+00 -0.17425365364E+04  0.17425365364E+04  0.00000000000E+00 0.  1.
         23    2    1    2    0    0 -0.47393074392E+03  0.85140514493E+03 -0.64296011922E+03  0.11717175433E+04  0.10011601056E+03 0.  0.
        254    2    1    2    0    0  0.47393074392E+03 -0.85140514493E+03 -0.30810499261E+03  0.13622904177E+04  0.90078045319E+03 0.  0.
         23    2    4    4    0    0 -0.13344699381E+03 -0.57887474745E+03  0.46390539784E+02  0.60254432061E+03  0.89462297783E+02 0.  0.
         23    2    4    4    0    0  0.60737773773E+03 -0.27253039747E+03 -0.35449553239E+03  0.75974609709E+03  0.91468659725E+02 0.  0.
          3    1    3    3  502    0 -0.36951559406E+03  0.68835632911E+03 -0.55913923084E+03  0.96073559814E+03  0.00000000000E+00 0.  1.
         -3    1    3    3    0  502 -0.10441514987E+03  0.16304881582E+03 -0.83820888380E+02  0.21098194518E+03  0.00000000000E+00 0. -1.
         11    1    5    5    0    0 -0.61588529246E+02 -0.33843455286E+03 -0.14557125752E+02  0.34430074559E+03  0.00000000000E+00 0. -1.
        -11    1    5    5    0    0 -0.71858464563E+02 -0.24044019459E+03  0.60947665536E+02  0.25824357502E+03  0.00000000000E+00 0.  1.
          2    1    6    6  503    0  0.14025660100E+03 -0.46739473512E+02 -0.40446763011E+02  0.15327241483E+03  0.00000000000E+00 0. -1.
         -2    1    6    6    0  503  0.46712113673E+03 -0.22579092396E+03 -0.31404876938E+03  0.60647368226E+03  0.00000000000E+00 0.  1.
<mgrwt>
<rscale>  0 0.23487596E+04</rscale>
<asrwt>0</asrwt>
<pdfrwt beam="1">  1        3 0.12176484E+00 0.23487596E+04</pdfrwt>
<pdfrwt beam="2">  1       -3 0.26808254E+00 0.23487596E+04</pdfrwt>
<totfact> 0.74066250E-02</totfact>
</mgrwt>
</event>
<event>
12    2  0.3555611E-008  0.1671094E+04  0.7818608E-02  0.8778024E-01
         -2   -1    0    0    0  501 -0.00000000000E+00  0.00000000000E+00  0.62992717017E+03  0.62992717017E+03  0.00000000000E+00 0.  1.
          2   -1    0    0  501    0  0.00000000000E+00 -0.00000000000E+00 -0.11082854704E+04  0.11082854704E+04  0.00000000000E+00 0. -1.
         23    2    1    2    0    0 -0.41186343725E+03 -0.19235584573E+03 -0.56136685533E+03  0.72816189862E+03  0.91949671067E+02 0.  0.
        254    2    1    2    0    0  0.41186343725E+03  0.19235584573E+03  0.83008555089E+02  0.10100507420E+04  0.89815356082E+03 0.  0.
         23    2    4    4    0    0 -0.10499424097E+03 -0.26380399584E+03 -0.48345309873E+02  0.30209307274E+03  0.91140642713E+02 0.  0.
         23    2    4    4    0    0  0.51685767822E+03  0.45615984157E+03  0.13135386496E+03  0.70795766923E+03  0.93416074530E+02 0.  0.
          1    1    3    3  502    0 -0.27787637845E+03 -0.14728685352E+03 -0.32155049446E+03  0.44978152408E+03  0.00000000000E+00 0. -1.
         -1    1    3    3    0  502 -0.13398705879E+03 -0.45068992206E+02 -0.23981636088E+03  0.27838037454E+03  0.00000000000E+00 0.  1.
         11    1    5    5    0    0 -0.18610063404E+02 -0.15336965560E+03 -0.22759349817E+01  0.15451137692E+03  0.00000000000E+00 0.  1.
        -11    1    5    5    0    0 -0.86384177568E+02 -0.11043434024E+03 -0.46069374892E+02  0.14758169582E+03  0.00000000000E+00 0. -1.
          4    1    6    6  503    0  0.14773181099E+03  0.78015747343E+02  0.38072971034E+02  0.17134963069E+03  0.00000000000E+00 0. -1.
         -4    1    6    6    0  503  0.36912586722E+03  0.37814409423E+03  0.93280893928E+02  0.53660803854E+03  0.00000000000E+00 0.  1.
<mgrwt>
<rscale>  0 0.16710944E+04</rscale>
<asrwt>0</asrwt>
<pdfrwt beam="1">  1        2 0.17050546E+00 0.16710944E+04</pdfrwt>
<pdfrwt beam="2">  1       -2 0.96911873E-01 0.16710944E+04</pdfrwt>
<totfact> 0.18267891E+01</totfact>
</mgrwt>
</event>
<event>
12    2  0.3555611E-008  0.1318099E+04  0.7818608E-02  0.9015334E-01
          2   -1    0    0  501    0  0.00000000000E+00  0.00000000000E+00  0.18059357352E+04  0.18059357352E+04  0.00000000000E+00 0. -1.
         -2   -1    0    0    0  501 -0.00000000000E+00 -0.00000000000E+00 -0.24051040671E+03  0.24051040671E+03  0.00000000000E+00 0.  1.
         23    2    1    2    0    0  0.21883974729E+03 -0.20371443713E+03  0.15520082616E+03  0.34893530848E+03  0.90984318275E+02 0.  0.
        254    2    1    2    0    0 -0.21883974729E+03  0.20371443713E+03  0.14102245023E+04  0.16975108334E+04  0.89633669778E+03 0.  0.
         23    2    4    4    0    0  0.35187147518E+01  0.48488086395E+03  0.11337804427E+04  0.12364823279E+04  0.91151639745E+02 0.  0.
         23    2    4    4    0    0 -0.22235846204E+03 -0.28116642682E+03  0.27644405962E+03  0.46102850551E+03  0.87339106852E+02 0.  0.
          1    1    3    3  502    0  0.12391274412E+02 -0.46013176910E+02  0.27808249280E+01  0.47733521954E+02  0.00000000000E+00 0. -1.
         -1    1    3    3    0  502  0.20644847287E+03 -0.15770126022E+03  0.15242000124E+03  0.30120178652E+03  0.00000000000E+00 0.  1.
         11    1    5    5    0    0  0.24478776494E+02  0.94421308269E+02  0.16367195634E+03  0.19053373257E+03  0.00000000000E+00 0. -1.
        -11    1    5    5    0    0 -0.20960061743E+02  0.39045955568E+03  0.97010848633E+03  0.10459485953E+04  0.00000000000E+00 0.  1.
          1    1    6    6  503    0 -0.16464237985E+03 -0.14961359740E+03  0.19535478225E+03  0.29606558854E+03  0.00000000000E+00 0.  1.
         -1    1    6    6    0  503 -0.57716082191E+02 -0.13155282942E+03  0.81089277367E+02  0.16496291698E+03  0.00000000000E+00 0. -1.
<mgrwt>
<rscale>  0 0.13180991E+04</rscale>
<asrwt>0</asrwt>
<pdfrwt beam="1">  1        2 0.27783626E+00 0.13180991E+04</pdfrwt>
<pdfrwt beam="2">  1       -2 0.37001602E-01 0.13180991E+04</pdfrwt>
<totfact> 0.57709385E+01</totfact>
</mgrwt>
</event>
<event>
12    2  0.3555611E-008  0.1794725E+04  0.7818608E-02  0.8709110E-01
          1   -1    0    0  501    0  0.00000000000E+00  0.00000000000E+00  0.59912162215E+03  0.59912162215E+03  0.00000000000E+00 0. -1.
         -1   -1    0    0    0  501 -0.00000000000E+00 -0.00000000000E+00 -0.13440661383E+04  0.13440661383E+04  0.00000000000E+00 0.  1.
         23    2    1    2    0    0  0.45502417350E+03 -0.25626967318E+03  0.18270838546E+03  0.56072602247E+03  0.91160157394E+02 0.  0.
        254    2    1    2    0    0 -0.45502417350E+03  0.25626967318E+03 -0.92765290163E+03  0.13824617380E+04  0.88200873425E+03 0.  0.
         23    2    4    4    0    0 -0.67462624916E+03  0.55058252905E+02 -0.47014463956E+03  0.82917127864E+03  0.91307392642E+02 0.  0.
         23    2    4    4    0    0  0.21960207566E+03  0.20121142027E+03 -0.45750826207E+03  0.55329045937E+03  0.90030079872E+02 0.  0.
          2    1    3    3  502    0  0.40207043201E+03 -0.24647706352E+03  0.18556263654E+03  0.50679884295E+03  0.00000000000E+00 0. -1.
         -2    1    3    3    0  502  0.52953741487E+02 -0.97926096597E+01 -0.28542510752E+01  0.53927179517E+02  0.00000000000E+00 0.  1.
         11    1    5    5    0    0 -0.79826068312E+01  0.12424206739E+02 -0.71984736531E+01  0.16428662388E+02  0.00000000000E+00 0. -1.
        -11    1    5    5    0    0 -0.66664364233E+03  0.42634046166E+02 -0.46294616591E+03  0.81274261625E+03  0.00000000000E+00 0.  1.
          1    1    6    6  503    0  0.49478030258E+02  0.24675388172E+02 -0.36988281773E+02  0.66521299207E+02  0.00000000000E+00 0. -1.
         -1    1    6    6    0  503  0.17012404540E+03  0.17653603210E+03 -0.42051998030E+03  0.48676916016E+03  0.00000000000E+00 0.  1.
<mgrwt>
<rscale>  0 0.17947246E+04</rscale>
<asrwt>0</asrwt>
<pdfrwt beam="1">  1        1 0.92172558E-01 0.17947246E+04</pdfrwt>
<pdfrwt beam="2">  1       -1 0.20677940E+00 0.17947246E+04</pdfrwt>
<totfact> 0.43801858E+00</totfact>
</mgrwt>
</event>
<event>
12    2  0.3555611E-008  0.1424159E+04  0.7818608E-02  0.8936514E-01
          2   -1    0    0  501    0  0.00000000000E+00  0.00000000000E+00  0.89343560586E+03  0.89343560586E+03  0.00000000000E+00 0.  1.
         -2   -1    0    0    0  501 -0.00000000000E+00 -0.00000000000E+00 -0.56753647797E+03  0.56753647797E+03  0.00000000000E+00 0. -1.
         23    2    1    2    0    0  0.13561847485E+03 -0.21019140569E+03 -0.24213630603E+03  0.36079850269E+03  0.94724712183E+02 0.  0.
        254    2    1    2    0    0 -0.13561847485E+03  0.21019140569E+03  0.56803543392E+03  0.11001735811E+04  0.90837484372E+03 0.  0.
         23    2    4    4    0    0 -0.16079876547E+03  0.24562271377E+03  0.79241629573E+03  0.85003618355E+03  0.91930229581E+02 0.  0.
         23    2    4    4    0    0  0.25180290618E+02 -0.35431308075E+02 -0.22438086181E+03  0.25013739759E+03  0.10164901327E+03 0.  0.
          4    1    3    3  502    0  0.87978239751E+02 -0.17486804535E+03 -0.13322574009E+03  0.23678703887E+03  0.00000000000E+00 0. -1.
         -4    1    3    3    0  502  0.47640235098E+02 -0.35323360349E+02 -0.10891056594E+03  0.12401146382E+03  0.00000000000E+00 0.  1.
         11    1    5    5    0    0  0.33365535403E+01  0.22844532737E+02  0.13180218613E+03  0.13380889931E+03  0.00000000000E+00 0. -1.
        -11    1    5    5    0    0 -0.16413531901E+03  0.22277818103E+03  0.66061410960E+03  0.71622728424E+03  0.00000000000E+00 0.  1.
          1    1    6    6  503    0 -0.34732014330E+02  0.69344691130E+01 -0.53419188891E+02  0.64093754946E+02  0.00000000000E+00 0. -1.
         -1    1    6    6    0  503  0.59912304948E+02 -0.42365777188E+02 -0.17096167292E+03  0.18604364264E+03  0.00000000000E+00 0.  1.
<mgrwt>
<rscale>  0 0.14241591E+04</rscale>
<asrwt>0</asrwt>
<pdfrwt beam="1">  1        2 0.13745163E+00 0.14241591E+04</pdfrwt>
<pdfrwt beam="2">  1       -2 0.87313304E-01 0.14241591E+04</pdfrwt>
<totfact> 0.32625577E+01</totfact>
</mgrwt>
</event>
<event>
12    2  0.3555611E-008  0.1384571E+04  0.7818608E-02  0.8965063E-01
         -2   -1    0    0    0  501 -0.00000000000E+00  0.00000000000E+00  0.63083593192E+03  0.63083593192E+03  0.00000000000E+00 0.  1.
          2   -1    0    0  501    0  0.00000000000E+00 -0.00000000000E+00 -0.75972066067E+03  0.75972066067E+03  0.00000000000E+00 0. -1.
         23    2    1    2    0    0  0.18660630623E+03  0.31598185063E+03 -0.18814590351E+03  0.42270941011E+03  0.92832757884E+02 0.  0.
        254    2    1    2    0    0 -0.18660630623E+03 -0.31598185063E+03  0.59261174762E+02  0.96784718248E+03  0.89361615828E+03 0.  0.
         23    2    4    4    0    0 -0.48451733333E+00 -0.39600624039E+03 -0.32800796971E+03  0.52161274235E+03  0.87575382378E+02 0.  0.
         23    2    4    4    0    0 -0.18612178890E+03  0.80024389765E+02  0.38726914447E+03  0.44623444013E+03  0.90014232457E+02 0.  0.
          4    1    3    3  502    0  0.12565062413E+03  0.18884708405E+03 -0.66186114321E+02  0.23628775302E+03  0.00000000000E+00 0. -1.
         -4    1    3    3    0  502  0.60955682101E+02  0.12713476658E+03 -0.12195978919E+03  0.18642165709E+03  0.00000000000E+00 0.  1.
         11    1    5    5    0    0  0.10775058942E+02 -0.33209544771E+03 -0.30960891707E+03  0.45415985051E+03  0.00000000000E+00 0.  1.
        -11    1    5    5    0    0 -0.11259576275E+02 -0.63910792685E+02 -0.18399052639E+02  0.67452891840E+02  0.00000000000E+00 0. -1.
          4    1    6    6  503    0 -0.40511403483E+02  0.18645610471E+02  0.25290656564E+02  0.51268410464E+02  0.00000000000E+00 0. -1.
         -4    1    6    6    0  503 -0.14561038541E+03  0.61378779294E+02  0.36197848790E+03  0.39496602967E+03  0.00000000000E+00 0.  1.
<mgrwt>
<rscale>  0 0.13845708E+04</rscale>
<asrwt>0</asrwt>
<pdfrwt beam="1">  1        2 0.11688010E+00 0.13845708E+04</pdfrwt>
<pdfrwt beam="2">  1       -2 0.97051682E-01 0.13845708E+04</pdfrwt>
<totfact> 0.31860300E+01</totfact>
</mgrwt>
</event>
<event>
12    2  0.3555611E-008  0.2140337E+04  0.7818608E-02  0.8543680E-01
          2   -1    0    0  501    0  0.00000000000E+00  0.00000000000E+00  0.90646182638E+03  0.90646182638E+03  0.00000000000E+00 0. -1.
         -2   -1    0    0    0  501 -0.00000000000E+00 -0.00000000000E+00 -0.12634401786E+04  0.12634401786E+04  0.00000000000E+00 0.  1.
         23    2    1    2    0    0 -0.47149919963E+03  0.36936089032E+03 -0.79548130589E+03  0.99994041097E+03  0.91385747984E+02 0.  0.
        254    2    1    2    0    0  0.47149919963E+03 -0.36936089032E+03  0.43850295363E+03  0.11699615940E+04  0.90431539224E+03 0.  0.
         23    2    4    4    0    0 -0.18647262967E+03  0.89102716696E+02  0.25915064266E+03  0.34320182865E+03  0.88978108857E+02 0.  0.
         23    2    4    4    0    0  0.65797182930E+03 -0.45846360701E+03  0.17935231097E+03  0.82675976539E+03  0.90822084944E+02 0.  0.
          3    1    3    3  502    0 -0.12622323472E+03  0.50689056805E+02 -0.17828970875E+03  0.22425188006E+03  0.00000000000E+00 0. -1.
         -3    1    3    3    0  502 -0.34527596491E+03  0.31867183351E+03 -0.61719159713E+03  0.77568853091E+03  0.00000000000E+00 0.  1.
         11    1    5    5    0    0 -0.61288979937E+01  0.13895632042E+00 -0.72047669397E+01  0.94599876391E+01  0.00000000000E+00 0.  1.
        -11    1    5    5    0    0 -0.18034373168E+03  0.88963760375E+02  0.26635540960E+03  0.33374184101E+03  0.00000000000E+00 0. -1.
          2    1    6    6  503    0  0.56667562998E+03 -0.43026745055E+03  0.15700635559E+03  0.72863045799E+03  0.00000000000E+00 0. -1.
         -2    1    6    6    0  503  0.91296199316E+02 -0.28196156466E+02  0.22345955383E+02  0.98129307401E+02  0.00000000000E+00 0.  1.
<mgrwt>
<rscale>  0 0.21403367E+04</rscale>
<asrwt>0</asrwt>
<pdfrwt beam="1">  1        2 0.13945567E+00 0.21403367E+04</pdfrwt>
<pdfrwt beam="2">  1       -2 0.19437541E+00 0.21403367E+04</pdfrwt>
<totfact> 0.38620277E+00</totfact>
</mgrwt>
</event>
<event>
12    2  0.3555611E-008  0.2281475E+04  0.7818608E-02  0.8485261E-01
          2   -1    0    0  501    0  0.00000000000E+00  0.00000000000E+00  0.28823194738E+04  0.28823194738E+04  0.00000000000E+00 0. -1.
         -2   -1    0    0    0  501 -0.00000000000E+00 -0.00000000000E+00 -0.45147047472E+03  0.45147047472E+03  0.00000000000E+00 0.  1.
         23    2    1    2    0    0 -0.51768514910E+02  0.94562225620E+03  0.12477840580E+04  0.15690702704E+04  0.90194387196E+02 0.  0.
        254    2    1    2    0    0  0.51768514910E+02 -0.94562225620E+03  0.11830649410E+04  0.17647196781E+04  0.90427399441E+03 0.  0.
         23    2    4    4    0    0 -0.26397812598E+03 -0.76245151885E+03  0.11200119553E+04  0.13833389666E+04  0.90460747948E+02 0.  0.
         23    2    4    4    0    0  0.31574664089E+03 -0.18317073735E+03  0.63052985753E+02  0.38138071150E+03  0.90708918156E+02 0.  0.
          3    1    3    3  502    0 -0.46119106769E+02  0.49689677453E+03  0.72416684077E+03  0.87946062437E+03  0.00000000000E+00 0. -1.
         -3    1    3    3    0  502 -0.56494081408E+01  0.44872548167E+03  0.52361721726E+03  0.68960964605E+03  0.00000000000E+00 0.  1.
         11    1    5    5    0    0 -0.26651735978E+03 -0.73061685547E+03  0.10933724729E+04  0.13417510414E+04  0.00000000000E+00 0. -1.
        -11    1    5    5    0    0  0.25392338018E+01 -0.31834663376E+02  0.26639482345E+02  0.41587925173E+02  0.00000000000E+00 0.  1.
          4    1    6    6  503    0  0.30673026149E+03 -0.15070355149E+03  0.50706430565E+02  0.34549407498E+03  0.00000000000E+00 0. -1.
         -4    1    6    6    0  503  0.90163794003E+01 -0.32467185866E+02  0.12346555188E+02  0.35886636518E+02  0.00000000000E+00 0.  1.
<mgrwt>
<rscale>  0 0.22814751E+04</rscale>
<asrwt>0</asrwt>
<pdfrwt beam="1">  1        2 0.44343375E+00 0.22814751E+04</pdfrwt>
<pdfrwt beam="2">  1       -2 0.69456998E-01 0.22814751E+04</pdfrwt>
<totfact> 0.35387512E+00</totfact>
</mgrwt>
</event>
<event>
12    2  0.3555611E-008  0.1388628E+04  0.7818608E-02  0.8962092E-01
          2   -1    0    0  501    0  0.00000000000E+00  0.00000000000E+00  0.13012217584E+04  0.13012217584E+04  0.00000000000E+00 0. -1.
         -2   -1    0    0    0  501 -0.00000000000E+00 -0.00000000000E+00 -0.37047638307E+03  0.37047638307E+03  0.00000000000E+00 0.  1.
         23    2    1    2    0    0 -0.30567698494E+03  0.22331989511E+03  0.41835538359E+03  0.57200430676E+03  0.94114320348E+02 0.  0.
        254    2    1    2    0    0  0.30567698494E+03 -0.22331989511E+03  0.51238999171E+03  0.10996938347E+04  0.89636646064E+03 0.  0.
         23    2    4    4    0    0 -0.17580967552E+03  0.19345594497E+03 -0.15476812529E+01  0.27684631532E+03  0.91144074628E+02 0.  0.
         23    2    4    4    0    0  0.48148666046E+03 -0.41677584008E+03  0.51393767297E+03  0.82284751937E+03  0.86108091127E+02 0.  0.
          3    1    3    3  502    0  0.36487957381E+01  0.57474628565E+01  0.26743092076E+02  0.27596014448E+02  0.00000000000E+00 0. -1.
         -3    1    3    3    0  502 -0.30932578068E+03  0.21757243226E+03  0.39161229152E+03  0.54440829231E+03  0.00000000000E+00 0.  1.
         11    1    5    5    0    0 -0.23671603314E+02  0.38623790434E+02 -0.34958568835E+02  0.57221005985E+02  0.00000000000E+00 0. -1.
        -11    1    5    5    0    0 -0.15213807220E+03  0.15483215454E+03  0.33410887582E+02  0.21962530934E+03  0.00000000000E+00 0.  1.
          2    1    6    6  503    0  0.20406317950E+03 -0.18996440486E+03  0.27859435679E+03  0.39413585472E+03  0.00000000000E+00 0. -1.
         -2    1    6    6    0  503  0.27742348096E+03 -0.22681143522E+03  0.23534331618E+03  0.42871166465E+03  0.00000000000E+00 0.  1.
<mgrwt>
<rscale>  0 0.13886280E+04</rscale>
<asrwt>0</asrwt>
<pdfrwt beam="1">  1        2 0.20018796E+00 0.13886280E+04</pdfrwt>
<pdfrwt beam="2">  1       -2 0.56996367E-01 0.13886280E+04</pdfrwt>
<totfact> 0.46389859E+01</totfact>
</mgrwt>
</event>
<event>
12    2  0.3555611E-008  0.2064222E+04  0.7818608E-02  0.8577170E-01
          2   -1    0    0  501    0  0.00000000000E+00  0.00000000000E+00  0.19925977663E+04  0.19925977663E+04  0.00000000000E+00 0. -1.
         -2   -1    0    0    0  501 -0.00000000000E+00 -0.00000000000E+00 -0.53460538760E+03  0.53460538760E+03  0.00000000000E+00 0.  1.
         23    2    1    2    0    0  0.70573657430E+03 -0.30239741725E+03  0.19621094941E+03  0.79770597284E+03  0.91256628140E+02 0.  0.
        254    2    1    2    0    0 -0.70573657430E+03  0.30239741725E+03  0.12617814293E+04  0.17294971811E+04  0.89975541884E+03 0.  0.
         23    2    4    4    0    0 -0.42612733469E+03  0.50039770229E+03  0.34762990435E+03  0.74914120262E+03  0.91562138626E+02 0.  0.
         23    2    4    4    0    0 -0.27960923961E+03 -0.19800028504E+03  0.91415152492E+03  0.98035597844E+03  0.89662668862E+02 0.  0.
          2    1    3    3  502    0  0.15832431050E+03 -0.99438248603E+02  0.20893965996E+02  0.18812525188E+03  0.00000000000E+00 0.  1.
         -2    1    3    3    0  502  0.54741226380E+03 -0.20295916864E+03  0.17531698341E+03  0.60958072096E+03  0.00000000000E+00 0. -1.
         11    1    5    5    0    0 -0.32055607171E+03  0.39706269136E+03  0.22744676807E+03  0.55870117978E+03  0.00000000000E+00 0. -1.
        -11    1    5    5    0    0 -0.10557126298E+03  0.10333501093E+03  0.12018313629E+03  0.19044002283E+03  0.00000000000E+00 0.  1.
          3    1    6    6  503    0 -0.12453531805E+03 -0.10868182870E+03  0.55496997697E+03  0.57906170714E+03  0.00000000000E+00 0. -1.
         -3    1    6    6    0  503 -0.15507392155E+03 -0.89318456344E+02  0.35918154795E+03  0.40129427130E+03  0.00000000000E+00 0.  1.
<mgrwt>
<rscale>  0 0.20642224E+04</rscale>
<asrwt>0</asrwt>
<pdfrwt beam="1">  1        2 0.30655350E+00 0.20642224E+04</pdfrwt>
<pdfrwt beam="2">  1       -2 0.82246984E-01 0.20642224E+04</pdfrwt>
<totfact> 0.80938956E+00</totfact>
</mgrwt>
</event>
<event>
12    2  0.3555611E-008  0.1166158E+04  0.7818608E-02  0.9143005E-01
         -1   -1    0    0    0  501 -0.00000000000E+00  0.00000000000E+00  0.41191716401E+03  0.41191716401E+03  0.00000000000E+00 0.  1.
          1   -1    0    0  501    0  0.00000000000E+00 -0.00000000000E+00 -0.82536322712E+03  0.82536322712E+03  0.00000000000E+00 0. -1.
         23    2    1    2    0    0  0.13723666257E+03 -0.65634418660E+02  0.83964778700E+02  0.19625078010E+03  0.91227770764E+02 0.  0.
        254    2    1    2    0    0 -0.13723666257E+03  0.65634418660E+02 -0.49741084181E+03  0.10410296110E+04  0.90176678084E+03 0.  0.
         23    2    4    4    0    0  0.26467854023E+03 -0.12889996715E+03 -0.49852987366E+03  0.58601923688E+03  0.90645352158E+02 0.  0.
         23    2    4    4    0    0 -0.40191520281E+03  0.19453438581E+03  0.11190318502E+01  0.45501037415E+03  0.87485603644E+02 0.  0.
          4    1    3    3  502    0  0.18538502350E+02  0.17769185782E+02 -0.48770662878E+01  0.26138205912E+02  0.00000000000E+00 0. -1.
         -4    1    3    3    0  502  0.11869816022E+03 -0.83403604442E+02  0.88841844987E+02  0.17011257418E+03  0.00000000000E+00 0.  1.
         11    1    5    5    0    0  0.17830020559E+03 -0.80628677132E+02 -0.40529911075E+03  0.45006590191E+03  0.00000000000E+00 0. -1.
        -11    1    5    5    0    0  0.86378334641E+02 -0.48271290021E+02 -0.93230762918E+02  0.13595333497E+03  0.00000000000E+00 0.  1.
          1    1    6    6  503    0 -0.31758679588E+03  0.16127032258E+03  0.35731812781E+02  0.35797521186E+03  0.00000000000E+00 0. -1.
         -1    1    6    6    0  503 -0.84328406928E+02  0.33264063234E+02 -0.34612780930E+02  0.97035162295E+02  0.00000000000E+00 0.  1.
<mgrwt>
<rscale>  0 0.11661583E+04</rscale>
<asrwt>0</asrwt>
<pdfrwt beam="1">  1        1 0.12697896E+00 0.11661583E+04</pdfrwt>
<pdfrwt beam="2">  1       -1 0.63371873E-01 0.11661583E+04</pdfrwt>
<totfact> 0.52670635E+01</totfact>
</mgrwt>
</event>
<event>
12    2  0.3555611E-008  0.3355919E+04  0.7818608E-02  0.8148811E-01
          2   -1    0    0  501    0  0.00000000000E+00  0.00000000000E+00  0.21988265271E+04  0.21988265271E+04  0.00000000000E+00 0. -1.
         -2   -1    0    0    0  501 -0.00000000000E+00 -0.00000000000E+00 -0.12804773762E+04  0.12804773762E+04  0.00000000000E+00 0.  1.
         23    2    1    2    0    0  0.14601320687E+04  0.52122478729E+03  0.31990404873E+03  0.15856473389E+04  0.90983217470E+02 0.  0.
        254    2    1    2    0    0 -0.14601320687E+04 -0.52122478729E+03  0.59844510208E+03  0.18936565644E+04  0.90782030533E+03 0.  0.
         23    2    4    4    0    0 -0.15031855891E+04 -0.47528799331E+03  0.34441123479E+03  0.16166995143E+04  0.98145957346E+02 0.  0.
         23    2    4    4    0    0  0.43053520341E+02 -0.45936793972E+02  0.25403386729E+03  0.27695705018E+03  0.90599157051E+02 0.  0.
          1    1    3    3  502    0  0.35492224162E+03  0.87306444014E+02  0.86119305728E+02  0.37551131485E+03  0.00000000000E+00 0. -1.
         -1    1    3    3    0  502  0.11052098271E+04  0.43391834327E+03  0.23378474300E+03  0.12101360240E+04  0.00000000000E+00 0.  1.
         11    1    5    5    0    0 -0.12093531799E+04 -0.41838985472E+03  0.29674003803E+03  0.13136361119E+04  0.00000000000E+00 0. -1.
        -11    1    5    5    0    0 -0.29383240915E+03 -0.56898138592E+02  0.47671196753E+02  0.30306340234E+03  0.00000000000E+00 0.  1.
          3    1    6    6  503    0 -0.11083181557E+02 -0.51640244201E+02  0.15766270916E+03  0.16627411583E+03  0.00000000000E+00 0. -1.
         -3    1    6    6    0  503  0.54136701897E+02  0.57034502287E+01  0.96371158125E+02  0.11068293434E+03  0.00000000000E+00 0.  1.
<mgrwt>
<rscale>  0 0.33559187E+04</rscale>
<asrwt>0</asrwt>
<pdfrwt beam="1">  1        2 0.33828100E+00 0.33559187E+04</pdfrwt>
<pdfrwt beam="2">  1       -2 0.19699652E+00 0.33559187E+04</pdfrwt>
<totfact> 0.59857393E-01</totfact>
</mgrwt>
</event>
<event>
12    2  0.3555611E-008  0.1610651E+04  0.7818608E-02  0.8814031E-01
          2   -1    0    0  501    0  0.00000000000E+00  0.00000000000E+00  0.15807851235E+04  0.15807851235E+04  0.00000000000E+00 0. -1.
         -2   -1    0    0    0  501 -0.00000000000E+00 -0.00000000000E+00 -0.41027038047E+03  0.41027038047E+03  0.00000000000E+00 0.  1.
         23    2    1    2    0    0  0.16072453234E+03  0.38965410163E+03 -0.54647397890E+02  0.43471088236E+03  0.91238801695E+02 0.  0.
        254    2    1    2    0    0 -0.16072453234E+03 -0.38965410163E+03  0.12251621409E+04  0.15563446216E+04  0.86227815435E+03 0.  0.
         23    2    4    4    0    0  0.29732583647E+03 -0.12207556220E+02  0.20037217582E+03  0.36940973472E+03  0.88107126880E+02 0.  0.
         23    2    4    4    0    0 -0.45805036881E+03 -0.37744654541E+03  0.10247899651E+04  0.11869348869E+04  0.79648717097E+02 0.  0.
          3    1    3    3  502    0  0.13591197281E+03  0.36696314025E+03 -0.70357817131E+02  0.39759807984E+03  0.00000000000E+00 0.  1.
         -3    1    3    3    0  502  0.24812559527E+02  0.22690961373E+02  0.15710419240E+02  0.37112802522E+02  0.00000000000E+00 0. -1.
         11    1    5    5    0    0  0.34396956056E+02 -0.29917039540E+02  0.18395373599E+02  0.49158616850E+02  0.00000000000E+00 0. -1.
        -11    1    5    5    0    0  0.26292888041E+03  0.17709483320E+02  0.18197680222E+03  0.32025111787E+03  0.00000000000E+00 0.  1.
          3    1    6    6  503    0 -0.29800625381E+03 -0.19510657029E+03  0.60285492027E+03  0.70022021962E+03  0.00000000000E+00 0. -1.
         -3    1    6    6    0  503 -0.16004411500E+03 -0.18233997512E+03  0.42193504481E+03  0.48671466725E+03  0.00000000000E+00 0.  1.
<mgrwt>
<rscale>  0 0.16106512E+04</rscale>
<asrwt>0</asrwt>
<pdfrwt beam="1">  1        2 0.24319771E+00 0.16106512E+04</pdfrwt>
<pdfrwt beam="2">  1       -2 0.63118521E-01 0.16106512E+04</pdfrwt>
<totfact> 0.25465828E+01</totfact>
</mgrwt>
</event>
<event>
12    2  0.3555611E-008  0.1143574E+04  0.7818608E-02  0.9163732E-01
         -1   -1    0    0    0  501 -0.00000000000E+00  0.00000000000E+00  0.16152077898E+04  0.16152077898E+04  0.00000000000E+00 0.  1.
          1   -1    0    0  501    0  0.00000000000E+00 -0.00000000000E+00 -0.20241392969E+03  0.20241392969E+03  0.00000000000E+00 0. -1.
         23    2    1    2    0    0 -0.16146970505E+02 -0.18461234479E+03  0.13643670532E+03  0.24607677609E+03  0.87157114852E+02 0.  0.
        254    2    1    2    0    0  0.16146970505E+02  0.18461234479E+03  0.12763571548E+04  0.15715449434E+04  0.89795516592E+03 0.  0.
         23    2    4    4    0    0 -0.81087185923E+02 -0.32200387392E+03  0.27224932183E+03  0.43929664656E+03  0.92737392147E+02 0.  0.
         23    2    4    4    0    0  0.97234156427E+02  0.50661621872E+03  0.10041078329E+04  0.11322482968E+04  0.87402466853E+02 0.  0.
          4    1    3    3  502    0  0.18908415106E+02 -0.78881073384E+02  0.17229146995E+02  0.82925239863E+02  0.00000000000E+00 0. -1.
         -4    1    3    3    0  502 -0.35055385611E+02 -0.10573127141E+03  0.11920755832E+03  0.16315153623E+03  0.00000000000E+00 0.  1.
         11    1    5    5    0    0  0.17284962688E+00 -0.11263328622E+03  0.13610779327E+03  0.17666810247E+03  0.00000000000E+00 0. -1.
        -11    1    5    5    0    0 -0.81260035549E+02 -0.20937058771E+03  0.13614152856E+03  0.26262854410E+03  0.00000000000E+00 0.  1.
          1    1    6    6  503    0 -0.10703929078E+02  0.13334647276E+03  0.28659323166E+03  0.31627762540E+03  0.00000000000E+00 0. -1.
         -1    1    6    6    0  503  0.10793808551E+03  0.37326974596E+03  0.71751460128E+03  0.81597067141E+03  0.00000000000E+00 0.  1.
<mgrwt>
<rscale>  0 0.11435743E+04</rscale>
<asrwt>0</asrwt>
<pdfrwt beam="1">  1        1 0.31140606E-01 0.11435743E+04</pdfrwt>
<pdfrwt beam="2">  1       -1 0.24849350E+00 0.11435743E+04</pdfrwt>
<totfact> 0.10411293E+01</totfact>
</mgrwt>
</event>
<event>
12    2  0.3555611E-008  0.2223778E+04  0.7818608E-02  0.8508596E-01
          2   -1    0    0  501    0  0.00000000000E+00  0.00000000000E+00  0.10032013920E+04  0.10032013920E+04  0.00000000000E+00 0. -1.
         -2   -1    0    0    0  501 -0.00000000000E+00 -0.00000000000E+00 -0.12323517835E+04  0.12323517835E+04  0.00000000000E+00 0.  1.
         23    2    1    2    0    0 -0.26875525495E+03  0.41034485693E+03 -0.89196335800E+03  0.10220780796E+04  0.91829625669E+02 0.  0.
        254    2    1    2    0    0  0.26875525495E+03 -0.41034485693E+03  0.66281296646E+03  0.12134750959E+04  0.89027439096E+03 0.  0.
         23    2    4    4    0    0 -0.10144593312E+03  0.15523736228E+03 -0.64218001926E+02  0.21661724262E+03  0.91701483269E+02 0.  0.
         23    2    4    4    0    0  0.37020118808E+03 -0.56558221920E+03  0.72703096838E+03  0.99685785329E+03  0.90660820306E+02 0.  0.
          4    1    3    3  502    0 -0.23442202328E+02  0.78449982842E+02 -0.20395590162E+03  0.21977703807E+03  0.00000000000E+00 0. -1.
         -4    1    3    3    0  502 -0.24531305263E+03  0.33189487409E+03 -0.68800745638E+03  0.80230104155E+03  0.00000000000E+00 0.  1.
         11    1    5    5    0    0 -0.11387386262E+03  0.13545860997E+03 -0.73313973839E+02  0.19154955067E+03  0.00000000000E+00 0.  1.
        -11    1    5    5    0    0  0.12427929496E+02  0.19778752308E+02  0.90959719131E+01  0.25067691945E+02  0.00000000000E+00 0. -1.
          1    1    6    6  503    0  0.15230712920E+03 -0.31004452838E+03  0.34507685449E+03  0.48826540599E+03  0.00000000000E+00 0. -1.
         -1    1    6    6    0  503  0.21789405888E+03 -0.25553769082E+03  0.38195411390E+03  0.50859244730E+03  0.00000000000E+00 0.  1.
<mgrwt>
<rscale>  0 0.22237779E+04</rscale>
<asrwt>0</asrwt>
<pdfrwt beam="1">  1        2 0.15433868E+00 0.22237779E+04</pdfrwt>
<pdfrwt beam="2">  1       -2 0.18959258E+00 0.22237779E+04</pdfrwt>
<totfact> 0.35664625E+00</totfact>
</mgrwt>
</event>
<event>
12    2  0.3555611E-008  0.1355133E+04  0.7818608E-02  0.8986952E-01
         -2   -1    0    0    0  501 -0.00000000000E+00  0.00000000000E+00  0.64065120086E+03  0.64065120086E+03  0.00000000000E+00 0.  1.
          2   -1    0    0  501    0  0.00000000000E+00 -0.00000000000E+00 -0.71660878974E+03  0.71660878974E+03  0.00000000000E+00 0. -1.
         23    2    1    2    0    0 -0.24052701149E+03  0.26805510720E+03  0.51055447088E+02  0.37493742956E+03  0.90910030540E+02 0.  0.
        254    2    1    2    0    0  0.24052701149E+03 -0.26805510720E+03 -0.12701303597E+03  0.98232256105E+03  0.90505166642E+03 0.  0.
         23    2    4    4    0    0  0.23975816648E+03 -0.71665042837E+02  0.36061028800E+03  0.44858750783E+03  0.92580319781E+02 0.  0.
         23    2    4    4    0    0  0.76884500808E+00 -0.19639006436E+03 -0.48762332397E+03  0.53373505322E+03  0.92341499071E+02 0.  0.
          4    1    3    3  502    0 -0.10613278094E+03  0.15768031902E+03 -0.10741741970E+02  0.19037498580E+03  0.00000000000E+00 0. -1.
         -4    1    3    3    0  502 -0.13439423055E+03  0.11037478817E+03  0.61797189058E+02  0.18456244375E+03  0.00000000000E+00 0.  1.
         11    1    5    5    0    0  0.15432177554E+03 -0.78760522089E+02  0.28866373991E+03  0.33666776647E+03  0.00000000000E+00 0. -1.
        -11    1    5    5    0    0  0.85436390942E+02  0.70954792516E+01  0.71946548095E+02  0.11191974136E+03  0.00000000000E+00 0.  1.
          1    1    6    6  503    0 -0.16476171700E+02 -0.19809857621E+03 -0.43345865805E+03  0.47686572362E+03  0.00000000000E+00 0. -1.
         -1    1    6    6    0  503  0.17245016708E+02  0.17085118486E+01 -0.54164665923E+02  0.56869329594E+02  0.00000000000E+00 0.  1.
<mgrwt>
<rscale>  0 0.13551329E+04</rscale>
<asrwt>0</asrwt>
<pdfrwt beam="1">  1        2 0.11024751E+00 0.13551329E+04</pdfrwt>
<pdfrwt beam="2">  1       -2 0.98561723E-01 0.13551329E+04</pdfrwt>
<totfact> 0.33200137E+01</totfact>
</mgrwt>
</event>
<event>
12    2  0.3555611E-008  0.1810974E+04  0.7818608E-02  0.8700485E-01
          2   -1    0    0  501    0  0.00000000000E+00  0.00000000000E+00  0.71321249264E+03  0.71321249264E+03  0.00000000000E+00 0. -1.
         -2   -1    0    0    0  501 -0.00000000000E+00 -0.00000000000E+00 -0.11495962955E+04  0.11495962955E+04  0.00000000000E+00 0.  1.
         23    2    1    2    0    0 -0.42345775324E+03 -0.58588272121E+01 -0.70397475764E+03  0.82665384711E+03  0.91789590443E+02 0.  0.
        254    2    1    2    0    0  0.42345775324E+03  0.58588272121E+01  0.26759095480E+03  0.10361549410E+04  0.90700680705E+03 0.  0.
         23    2    4    4    0    0  0.31960596792E+03 -0.77030732380E+02 -0.29505934878E+03  0.45129018127E+03  0.92309804200E+02 0.  0.
         23    2    4    4    0    0  0.10385178532E+03  0.82889559593E+02  0.56265030358E+03  0.58486475973E+03  0.88518645773E+02 0.  0.
          4    1    3    3  502    0 -0.20856791397E+03  0.41410651807E+02 -0.36887967608E+03  0.42577885369E+03  0.00000000000E+00 0. -1.
         -4    1    3    3    0  502 -0.21488983926E+03 -0.47269479019E+02 -0.33509508156E+03  0.40087499342E+03  0.00000000000E+00 0.  1.
         11    1    5    5    0    0  0.19509935269E+03 -0.54798187108E+02 -0.23786223229E+03  0.31248206393E+03  0.00000000000E+00 0.  1.
        -11    1    5    5    0    0  0.12450661522E+03 -0.22232545272E+02 -0.57197116488E+02  0.13880811734E+03  0.00000000000E+00 0. -1.
          3    1    6    6  503    0  0.31094780473E+02  0.70198448155E+02  0.38310578119E+03  0.39072336388E+03  0.00000000000E+00 0. -1.
         -3    1    6    6    0  503  0.72757004846E+02  0.12691111438E+02  0.17954452239E+03  0.19414139585E+03  0.00000000000E+00 0.  1.
<mgrwt>
<rscale>  0 0.18109737E+04</rscale>
<asrwt>0</asrwt>
<pdfrwt beam="1">  1        2 0.10972500E+00 0.18109737E+04</pdfrwt>
<pdfrwt beam="2">  1       -2 0.17686097E+00 0.18109737E+04</pdfrwt>
<totfact> 0.71906370E+00</totfact>
</mgrwt>
</event>
<event>
12    2  0.3555611E-008  0.1402459E+04  0.7818608E-02  0.8952041E-01
          1   -1    0    0  501    0  0.00000000000E+00  0.00000000000E+00  0.12750368881E+04  0.12750368881E+04  0.00000000000E+00 0. -1.
         -1   -1    0    0    0  501 -0.00000000000E+00 -0.00000000000E+00 -0.38565373931E+03  0.38565373931E+03  0.00000000000E+00 0.  1.
         23    2    1    2    0    0  0.27536472147E+03  0.21201852313E+03  0.23074221907E+02  0.36634878811E+03  0.11358446570E+03 0.  0.
        254    2    1    2    0    0 -0.27536472147E+03 -0.21201852313E+03  0.86630892692E+03  0.12943418393E+04  0.89668949821E+03 0.  0.
         23    2    4    4    0    0  0.28609022526E+03 -0.21879416353E+03  0.48066517771E+03  0.60727699047E+03  0.89598142316E+02 0.  0.
         23    2    4    4    0    0 -0.56145494673E+03  0.67756403904E+01  0.38564374921E+03  0.68706484887E+03  0.89774376823E+02 0.  0.
          1    1    3    3  502    0  0.10030433381E+03  0.14709710996E+02 -0.18982317594E+01  0.10139496172E+03  0.00000000000E+00 0. -1.
         -1    1    3    3    0  502  0.17506038767E+03  0.19730881214E+03  0.24972453666E+02  0.26495382639E+03  0.00000000000E+00 0.  1.
         11    1    5    5    0    0  0.37450815076E+02 -0.70443547264E+02  0.13001244035E+03  0.15253881980E+03  0.00000000000E+00 0. -1.
        -11    1    5    5    0    0  0.24863941018E+03 -0.14835061626E+03  0.35065273736E+03  0.45473817066E+03  0.00000000000E+00 0.  1.
          1    1    6    6  503    0 -0.13721910465E+03 -0.22588564850E+02  0.13299428351E+03  0.19242350530E+03  0.00000000000E+00 0. -1.
         -1    1    6    6    0  503 -0.42423584208E+03  0.29364205241E+02  0.25264946570E+03  0.49464134357E+03  0.00000000000E+00 0.  1.
<mgrwt>
<rscale>  0 0.14024589E+04</rscale>
<asrwt>0</asrwt>
<pdfrwt beam="1">  1        1 0.19615952E+00 0.14024589E+04</pdfrwt>
<pdfrwt beam="2">  1       -1 0.59331345E-01 0.14024589E+04</pdfrwt>
<totfact> 0.26462106E+01</totfact>
</mgrwt>
</event>
<event>
12    2  0.3555611E-008  0.1324522E+04  0.7818608E-02  0.9010342E-01
         -2   -1    0    0    0  501 -0.00000000000E+00  0.00000000000E+00  0.78644938905E+03  0.78644938905E+03  0.00000000000E+00 0.  1.
          2   -1    0    0  501    0  0.00000000000E+00 -0.00000000000E+00 -0.55768304672E+03  0.55768304672E+03  0.00000000000E+00 0. -1.
         23    2    1    2    0    0  0.22430997933E+03  0.24796640048E+03  0.10332591964E+03  0.36021503037E+03  0.85301347252E+02 0.  0.
        254    2    1    2    0    0 -0.22430997933E+03 -0.24796640048E+03  0.12544042269E+03  0.98391740539E+03  0.91681833446E+03 0.  0.
         23    2    4    4    0    0 -0.38463143519E+02 -0.57527582136E+03  0.33698935562E+02  0.58464390310E+03  0.90836067299E+02 0.  0.
         23    2    4    4    0    0 -0.18584683581E+03  0.32730942088E+03  0.91741487129E+02  0.39927350230E+03  0.96603963672E+02 0.  0.
          1    1    3    3  502    0 -0.30842916123E+01  0.19410992933E+02  0.18136781438E+02  0.26744015075E+02  0.00000000000E+00 0. -1.
         -1    1    3    3    0  502  0.22739427094E+03  0.22855540755E+03  0.85189138205E+02  0.33347101530E+03  0.00000000000E+00 0.  1.
         11    1    5    5    0    0  0.61162496784E+01 -0.62268372986E+01 -0.86425117456E+01  0.12283119398E+02  0.00000000000E+00 0. -1.
        -11    1    5    5    0    0 -0.44579393197E+02 -0.56904898406E+03  0.42341447308E+02  0.57236078370E+03  0.00000000000E+00 0.  1.
          4    1    6    6  503    0 -0.88682309707E+02  0.15510262562E+03  0.93258291801E+02  0.20154028262E+03  0.00000000000E+00 0. -1.
         -4    1    6    6    0  503 -0.97164526105E+02  0.17220679526E+03 -0.15168046719E+01  0.19773321967E+03  0.00000000000E+00 0.  1.
<mgrwt>
<rscale>  0 0.13245218E+04</rscale>
<asrwt>0</asrwt>
<pdfrwt beam="1">  1        2 0.85797391E-01 0.13245218E+04</pdfrwt>
<pdfrwt beam="2">  1       -2 0.12099221E+00 0.13245218E+04</pdfrwt>
<totfact> 0.27558052E+01</totfact>
</mgrwt>
</event>
<event>
12    2  0.3555611E-008  0.1476227E+04  0.7818608E-02  0.8900418E-01
          2   -1    0    0  501    0  0.00000000000E+00  0.00000000000E+00  0.21445602988E+04  0.21445602988E+04  0.00000000000E+00 0. -1.
         -2   -1    0    0    0  501 -0.00000000000E+00 -0.00000000000E+00 -0.25404336220E+03  0.25404336220E+03  0.00000000000E+00 0.  1.
         23    2    1    2    0    0  0.26598054706E+03 -0.80559411262E+02  0.77413858386E+01  0.29323288323E+03  0.93220837776E+02 0.  0.
        254    2    1    2    0    0 -0.26598054706E+03  0.80559411262E+02  0.18827755508E+04  0.21053707778E+04  0.90028154885E+03 0.  0.
         23    2    4    4    0    0 -0.23114768216E+03  0.35080883611E+03  0.17217067606E+04  0.17744795631E+04  0.89484410770E+02 0.  0.
         23    2    4    4    0    0 -0.34832864895E+02 -0.27024942485E+03  0.16106879016E+03  0.33089121471E+03  0.96424896694E+02 0.  0.
          4    1    3    3  502    0  0.27120869224E+03 -0.73969430421E+02  0.15833511890E+02  0.28156052898E+03  0.00000000000E+00 0.  1.
         -4    1    3    3    0  502 -0.52281451830E+01 -0.65899808412E+01 -0.80921260518E+01  0.11672354243E+02  0.00000000000E+00 0. -1.
         11    1    5    5    0    0 -0.11797531257E+03  0.22407018834E+03  0.87571688213E+03  0.91159513016E+03  0.00000000000E+00 0. -1.
        -11    1    5    5    0    0 -0.11317236960E+03  0.12673864777E+03  0.84598987848E+03  0.86288443292E+03  0.00000000000E+00 0.  1.
          3    1    6    6  503    0 -0.20041566482E+02 -0.14098710744E+03  0.28663204775E+02  0.14526048382E+03  0.00000000000E+00 0. -1.
         -3    1    6    6    0  503 -0.14791298413E+02 -0.12926231741E+03  0.13240558539E+03  0.18563073089E+03  0.00000000000E+00 0.  1.
<mgrwt>
<rscale>  0 0.14762267E+04</rscale>
<asrwt>0</asrwt>
<pdfrwt beam="1">  1        2 0.32993234E+00 0.14762267E+04</pdfrwt>
<pdfrwt beam="2">  1       -2 0.39083596E-01 0.14762267E+04</pdfrwt>
<totfact> 0.33262533E+01</totfact>
</mgrwt>
</event>
<event>
12    2  0.3555611E-008  0.1237662E+04  0.7818608E-02  0.9080515E-01
         -1   -1    0    0    0  501 -0.00000000000E+00  0.00000000000E+00  0.11056285301E+04  0.11056285301E+04  0.00000000000E+00 0.  1.
          1   -1    0    0  501    0  0.00000000000E+00 -0.00000000000E+00 -0.34636573015E+03  0.34636573015E+03  0.00000000000E+00 0. -1.
         23    2    1    2    0    0  0.19378138362E+02 -0.11842122642E+03 -0.11553444678E+03  0.18898244559E+03  0.89258373473E+02 0.  0.
        254    2    1    2    0    0 -0.19378138362E+02  0.11842122642E+03  0.87479724671E+03  0.12630118146E+04  0.90306673173E+03 0.  0.
         23    2    4    4    0    0  0.32557502235E+03  0.32467785487E+03  0.62368667950E+03  0.78042450082E+03  0.93072674117E+02 0.  0.
         23    2    4    4    0    0 -0.34495316071E+03 -0.20625662846E+03  0.25111056721E+03  0.48258731383E+03  0.91101693895E+02 0.  0.
          2    1    3    3  502    0  0.11045179621E+02 -0.13216846391E+03 -0.96234722922E+02  0.16386464152E+03  0.00000000000E+00 0. -1.
         -2    1    3    3    0  502  0.83329587401E+01  0.13747237494E+02 -0.19299723856E+02  0.25117804064E+02  0.00000000000E+00 0.  1.
         11    1    5    5    0    0  0.20174042260E+02  0.59766904620E+02  0.10904068893E+03  0.12597200765E+03  0.00000000000E+00 0.  1.
        -11    1    5    5    0    0  0.30540098009E+03  0.26491095025E+03  0.51464599057E+03  0.65445249317E+03  0.00000000000E+00 0. -1.
          3    1    6    6  503    0 -0.34506202348E+03 -0.19159156872E+03  0.25134435483E+03  0.46791998670E+03  0.00000000000E+00 0. -1.
         -3    1    6    6    0  503  0.10886276555E+00 -0.14665059738E+02 -0.23378761919E+00  0.14667327121E+02  0.00000000000E+00 0.  1.
<mgrwt>
<rscale>  0 0.12376620E+04</rscale>
<asrwt>0</asrwt>
<pdfrwt beam="1">  1        1 0.53287036E-01 0.12376620E+04</pdfrwt>
<pdfrwt beam="2">  1       -1 0.17009670E+00 0.12376620E+04</pdfrwt>
<totfact> 0.17606064E+01</totfact>
</mgrwt>
</event>
<event>
12    2  0.3555611E-008  0.2073112E+04  0.7818608E-02  0.8573181E-01
         -1   -1    0    0    0  501 -0.00000000000E+00  0.00000000000E+00  0.75082024497E+03  0.75082024497E+03  0.00000000000E+00 0.  1.
          1   -1    0    0  501    0  0.00000000000E+00 -0.00000000000E+00 -0.14310327002E+04  0.14310327002E+04  0.00000000000E+00 0. -1.
         23    2    1    2    0    0 -0.27525558348E+03 -0.73314508362E+03  0.34022109606E+02  0.78891220848E+03  0.89205486780E+02 0.  0.
        254    2    1    2    0    0  0.27525558348E+03  0.73314508362E+03 -0.71423456482E+03  0.13929407367E+04  0.90381720078E+03 0.  0.
         23    2    4    4    0    0 -0.22723215488E+03 -0.56016910914E+02 -0.19492953557E+03  0.31805150752E+03  0.91579970927E+02 0.  0.
         23    2    4    4    0    0  0.50248773836E+03  0.78916199454E+03 -0.51930502924E+03  0.10748892292E+04  0.10216927489E+03 0.  0.
          2    1    3    3  502    0 -0.68683174382E+02 -0.23180004475E+03 -0.26953360851E+02  0.24325937361E+03  0.00000000000E+00 0. -1.
         -2    1    3    3    0  502 -0.20657240909E+03 -0.50134503887E+03  0.60975470457E+02  0.54565283487E+03  0.00000000000E+00 0.  1.
         11    1    5    5    0    0 -0.98207977421E+02 -0.57254583535E+02 -0.50532726497E+02  0.12440438341E+03  0.00000000000E+00 0.  1.
        -11    1    5    5    0    0 -0.12902417746E+03  0.12376726213E+01 -0.14439680908E+03  0.19364712410E+03  0.00000000000E+00 0. -1.
          2    1    6    6  503    0  0.26808210475E+03  0.41014520393E+03 -0.21391747148E+03  0.53464734900E+03  0.00000000000E+00 0. -1.
         -2    1    6    6    0  503  0.23440563361E+03  0.37901679061E+03 -0.30538755777E+03  0.54024188015E+03  0.00000000000E+00 0.  1.
<mgrwt>
<rscale>  0 0.20731120E+04</rscale>
<asrwt>0</asrwt>
<pdfrwt beam="1">  1        1 0.22015887E+00 0.20731120E+04</pdfrwt>
<pdfrwt beam="2">  1       -1 0.11551081E+00 0.20731120E+04</pdfrwt>
<totfact> 0.45745969E+00</totfact>
</mgrwt>
</event>
<event>
12    2  0.3555611E-008  0.1054341E+04  0.7818608E-02  0.9250874E-01
         -1   -1    0    0    0  501 -0.00000000000E+00  0.00000000000E+00  0.14607556950E+03  0.14607556950E+03  0.00000000000E+00 0.  1.
          1   -1    0    0  501    0  0.00000000000E+00 -0.00000000000E+00 -0.19024987698E+04  0.19024987698E+04  0.00000000000E+00 0. -1.
         23    2    1    2    0    0 -0.83440873749E+02  0.26074311099E+02 -0.40505976838E+03  0.42266279506E+03  0.83235648968E+02 0.  0.
        254    2    1    2    0    0  0.83440873749E+02 -0.26074311099E+02 -0.13513634319E+04  0.16259115442E+04  0.89986831006E+03 0.  0.
         23    2    4    4    0    0  0.39622687182E+03  0.24870371620E+03 -0.68385204284E+03  0.83347565870E+03  0.90436633839E+02 0.  0.
         23    2    4    4    0    0 -0.31278599807E+03 -0.27477802730E+03 -0.66751138908E+03  0.79243588554E+03  0.95105905548E+02 0.  0.
          4    1    3    3  502    0 -0.25285661789E+02  0.48228410424E+02 -0.24389467814E+03  0.24989989654E+03  0.00000000000E+00 0. -1.
         -4    1    3    3    0  502 -0.58155211960E+02 -0.22154099325E+02 -0.16116509024E+03  0.17276289852E+03  0.00000000000E+00 0.  1.
         11    1    5    5    0    0  0.45986983677E+02 -0.15421613194E+01 -0.64677282218E+02  0.79374629223E+02  0.00000000000E+00 0. -1.
        -11    1    5    5    0    0  0.35023988814E+03  0.25024587752E+03 -0.61917476062E+03  0.75410102947E+03  0.00000000000E+00 0.  1.
          4    1    6    6  503    0 -0.15114853773E+03 -0.77221035325E+02 -0.22901530541E+03  0.28505609775E+03  0.00000000000E+00 0. -1.
         -4    1    6    6    0  503 -0.16163746034E+03 -0.19755699197E+03 -0.43849608367E+03  0.50737978779E+03  0.00000000000E+00 0.  1.
<mgrwt>
<rscale>  0 0.10543407E+04</rscale>
<asrwt>0</asrwt>
<pdfrwt beam="1">  1        1 0.29269209E+00 0.10543407E+04</pdfrwt>
<pdfrwt beam="2">  1       -1 0.22473167E-01 0.10543407E+04</pdfrwt>
<totfact> 0.58430283E+01</totfact>
</mgrwt>
</event>
<event>
12    2  0.3555611E-008  0.2291497E+04  0.7818608E-02  0.8481281E-01
         -1   -1    0    0    0  501 -0.00000000000E+00  0.00000000000E+00  0.35338765611E+04  0.35338765611E+04  0.00000000000E+00 0.  1.
          1   -1    0    0  501    0  0.00000000000E+00 -0.00000000000E+00 -0.37147283377E+03  0.37147283377E+03  0.00000000000E+00 0. -1.
         23    2    1    2    0    0 -0.46640485131E+03  0.33453480216E+02  0.27904078897E+04  0.28308511319E+04  0.93216516647E+02 0.  0.
        254    2    1    2    0    0  0.46640485131E+03 -0.33453480216E+02  0.37199583765E+03  0.10744982631E+04  0.89303582988E+03 0.  0.
         23    2    4    4    0    0  0.63193689382E+03 -0.27856686877E+03  0.22682483508E+03  0.73286136383E+03  0.93233763360E+02 0.  0.
         23    2    4    4    0    0 -0.16553204251E+03  0.24511338855E+03  0.14517100256E+03  0.34163689924E+03  0.90331171786E+02 0.  0.
          3    1    3    3  502    0 -0.70553565759E+02  0.50897912980E+01  0.25744857512E+03  0.26698966356E+03  0.00000000000E+00 0. -1.
         -3    1    3    3    0  502 -0.39585128555E+03  0.28363688918E+02  0.25329593146E+04  0.25638614683E+04  0.00000000000E+00 0.  1.
         11    1    5    5    0    0  0.46916344231E+03 -0.23311878902E+03  0.20453076047E+03  0.56239802398E+03  0.00000000000E+00 0.  1.
        -11    1    5    5    0    0  0.16277345151E+03 -0.45448079745E+02  0.22294074613E+02  0.17046333984E+03  0.00000000000E+00 0. -1.
          3    1    6    6  503    0 -0.97366849397E+02  0.13498440824E+03  0.31667939952E+02  0.16942240775E+03  0.00000000000E+00 0. -1.
         -3    1    6    6    0  503 -0.68165193113E+02  0.11012898031E+03  0.11350306261E+03  0.17221449149E+03  0.00000000000E+00 0.  1.
<mgrwt>
<rscale>  0 0.22914966E+04</rscale>
<asrwt>0</asrwt>
<pdfrwt beam="1">  1        1 0.57149669E-01 0.22914966E+04</pdfrwt>
<pdfrwt beam="2">  1       -1 0.54367329E+00 0.22914966E+04</pdfrwt>
<totfact> 0.48131103E-02</totfact>
</mgrwt>
</event>
<event>
12    2  0.3555611E-008  0.3380995E+04  0.7818608E-02  0.8142586E-01
          2   -1    0    0  501    0  0.00000000000E+00  0.00000000000E+00  0.25518362288E+04  0.25518362288E+04  0.00000000000E+00 0. -1.
         -2   -1    0    0    0  501 -0.00000000000E+00 -0.00000000000E+00 -0.11198925473E+04  0.11198925473E+04  0.00000000000E+00 0.  1.
         23    2    1    2    0    0  0.36237551822E+03 -0.15000960202E+04  0.98724567968E+03  0.18343797187E+04  0.93224644533E+02 0.  0.
        254    2    1    2    0    0 -0.36237551822E+03  0.15000960202E+04  0.44469800182E+03  0.18373490573E+04  0.89246353399E+03 0.  0.
         23    2    4    4    0    0  0.94168989941E+02  0.25075123915E+03  0.41746605765E+03  0.50436554149E+03  0.91447840607E+02 0.  0.
         23    2    4    4    0    0 -0.45654450816E+03  0.12493447811E+04  0.27231944171E+02  0.13329835158E+04  0.82511846135E+02 0.  0.
          4    1    3    3  502    0  0.53494040383E+02 -0.16317812766E+03  0.80084054103E+02  0.18947867802E+03  0.00000000000E+00 0. -1.
         -4    1    3    3    0  502  0.30888147784E+03 -0.13369178926E+04  0.90716162558E+03  0.16449010407E+04  0.00000000000E+00 0.  1.
         11    1    5    5    0    0 -0.12800216602E+01  0.12566440781E+03  0.18804216837E+03  0.22617037589E+03  0.00000000000E+00 0.  1.
        -11    1    5    5    0    0  0.95449011601E+02  0.12508683134E+03  0.22942388927E+03  0.27819516559E+03  0.00000000000E+00 0. -1.
          3    1    6    6  503    0 -0.12356705133E+03  0.24159987308E+03  0.36240225852E+01  0.27138984577E+03  0.00000000000E+00 0. -1.
         -3    1    6    6    0  503 -0.33297745683E+03  0.10077449080E+04  0.23607921585E+02  0.10615936701E+04  0.00000000000E+00 0.  1.
<mgrwt>
<rscale>  0 0.33809953E+04</rscale>
<asrwt>0</asrwt>
<pdfrwt beam="1">  1        2 0.39259019E+00 0.33809953E+04</pdfrwt>
<pdfrwt beam="2">  1       -2 0.17229116E+00 0.33809953E+04</pdfrwt>
<totfact> 0.55309621E-01</totfact>
</mgrwt>
</event>
<event>
12    2  0.3555611E-008  0.1555258E+04  0.7818608E-02  0.8848516E-01
          1   -1    0    0  501    0  0.00000000000E+00  0.00000000000E+00  0.22500887831E+04  0.22500887831E+04  0.00000000000E+00 0. -1.
         -1   -1    0    0    0  501 -0.00000000000E+00 -0.00000000000E+00 -0.26874803775E+03  0.26874803775E+03  0.00000000000E+00 0.  1.
         23    2    1    2    0    0  0.32270359089E+03  0.79176333588E+01  0.19309026643E+02  0.33599704479E+03  0.91218852822E+02 0.  0.
        254    2    1    2    0    0 -0.32270359089E+03 -0.79176333588E+01  0.19620317187E+04  0.21828397760E+04  0.90056689159E+03 0.  0.
         23    2    4    4    0    0 -0.14780395875E+03  0.33339020475E+03  0.31760281667E+03  0.49183807608E+03  0.89655479930E+02 0.  0.
         23    2    4    4    0    0 -0.17489963214E+03 -0.34130783810E+03  0.16444289020E+04  0.16910016999E+04  0.90881317167E+02 0.  0.
          2    1    3    3  502    0  0.25925578654E+03 -0.29419607949E+02  0.25253185532E+02  0.26213889365E+03  0.00000000000E+00 0.  1.
         -2    1    3    3    0  502  0.63447804351E+02  0.37337241307E+02 -0.59441588883E+01  0.73858151143E+02  0.00000000000E+00 0. -1.
         11    1    5    5    0    0  0.12251672480E+02  0.17021348920E+02  0.16593231035E+02  0.26742571189E+02  0.00000000000E+00 0.  1.
        -11    1    5    5    0    0 -0.16005563123E+03  0.31636885583E+03  0.30100958564E+03  0.46509550489E+03  0.00000000000E+00 0. -1.
          2    1    6    6  503    0 -0.14988109463E+03 -0.27066064687E+03  0.14497336421E+04  0.14823795604E+04  0.00000000000E+00 0. -1.
         -2    1    6    6    0  503 -0.25018537513E+02 -0.70647191231E+02  0.19469525994E+03  0.20862213950E+03  0.00000000000E+00 0.  1.
<mgrwt>
<rscale>  0 0.15552581E+04</rscale>
<asrwt>0</asrwt>
<pdfrwt beam="1">  1        1 0.34616749E+00 0.15552581E+04</pdfrwt>
<pdfrwt beam="2">  1       -1 0.41345853E-01 0.15552581E+04</pdfrwt>
<totfact> 0.11127277E+01</totfact>
</mgrwt>
</event>
<event>
12    2  0.3555611E-008  0.1971987E+04  0.7818608E-02  0.8619831E-01
         -2   -1    0    0    0  501 -0.00000000000E+00  0.00000000000E+00  0.38834187346E+03  0.38834187346E+03  0.00000000000E+00 0.  1.
          2   -1    0    0  501    0  0.00000000000E+00 -0.00000000000E+00 -0.25034220436E+04  0.25034220436E+04  0.00000000000E+00 0. -1.
         23    2    1    2    0    0  0.62301682747E+03 -0.40223060698E+03 -0.85401751785E+03  0.11349019380E+04  0.93365194975E+02 0.  0.
        254    2    1    2    0    0 -0.62301682747E+03  0.40223060698E+03 -0.12610626523E+04  0.17568619790E+04  0.97280294603E+03 0.  0.
         23    2    4    4    0    0 -0.34980298166E+03  0.88976965619E+02  0.53041350457E+02  0.37547945846E+03  0.88839250778E+02 0.  0.
         23    2    4    4    0    0 -0.27321384582E+03  0.31325364137E+03 -0.13141040027E+04  0.13813825205E+04  0.92599615096E+02 0.  0.
          3    1    3    3  502    0  0.34158951570E+03 -0.20816726030E+03 -0.39111065139E+03  0.55945021863E+03  0.00000000000E+00 0. -1.
         -3    1    3    3    0  502  0.28142731177E+03 -0.19406334668E+03 -0.46290686646E+03  0.57545171939E+03  0.00000000000E+00 0.  1.
         11    1    5    5    0    0 -0.32501519381E+02  0.12610391282E+02  0.33789920703E+02  0.48550277769E+02  0.00000000000E+00 0. -1.
        -11    1    5    5    0    0 -0.31730146227E+03  0.76366574337E+02  0.19251429755E+02  0.32692918069E+03  0.00000000000E+00 0.  1.
          4    1    6    6  503    0 -0.19947713568E+03  0.24686572593E+03 -0.11092844470E+04  0.11537962553E+04  0.00000000000E+00 0.  1.
         -4    1    6    6    0  503 -0.73736710138E+02  0.66387915435E+02 -0.20481955569E+03  0.22758626525E+03  0.00000000000E+00 0. -1.
<mgrwt>
<rscale>  0 0.19719874E+04</rscale>
<asrwt>0</asrwt>
<pdfrwt beam="1">  1        2 0.38514185E+00 0.19719874E+04</pdfrwt>
<pdfrwt beam="2">  1       -2 0.59744904E-01 0.19719874E+04</pdfrwt>
<totfact> 0.84380374E+00</totfact>
</mgrwt>
</event>
<event>
12    2  0.3555611E-008  0.1284327E+04  0.7818608E-02  0.9042087E-01
          1   -1    0    0  501    0  0.00000000000E+00  0.00000000000E+00  0.60949063197E+03  0.60949063197E+03  0.00000000000E+00 0. -1.
         -1   -1    0    0    0  501 -0.00000000000E+00 -0.00000000000E+00 -0.67658743972E+03  0.67658743972E+03  0.00000000000E+00 0.  1.
         23    2    1    2    0    0 -0.26057131808E+03 -0.17771835018E+03 -0.59369768660E+02  0.33423651355E+03  0.93316953255E+02 0.  0.
        254    2    1    2    0    0  0.26057131808E+03  0.17771835018E+03 -0.77270390881E+01  0.95184155814E+03  0.89803197097E+03 0.  0.
         23    2    4    4    0    0  0.21298966032E+02 -0.12954772905E+03  0.36981119762E+03  0.40249243167E+03  0.89462705135E+02 0.  0.
         23    2    4    4    0    0  0.23927235205E+03  0.30726607923E+03 -0.37753823671E+03  0.54934912647E+03  0.87095583584E+02 0.  0.
          4    1    3    3  502    0 -0.18887713627E+03 -0.12777411449E+03  0.99108331780E+00  0.22803898610E+03  0.00000000000E+00 0. -1.
         -4    1    3    3    0  502 -0.71694181815E+02 -0.49944235689E+02 -0.60360851977E+02  0.10619752745E+03  0.00000000000E+00 0.  1.
         11    1    5    5    0    0  0.53659575975E+02 -0.52685757546E+02  0.16359812051E+03  0.18005411458E+03  0.00000000000E+00 0.  1.
        -11    1    5    5    0    0 -0.32360609943E+02 -0.76861971507E+02  0.20621307711E+03  0.22243831709E+03  0.00000000000E+00 0. -1.
          4    1    6    6  503    0  0.19268435912E+03  0.21461634642E+03 -0.22943567465E+03  0.36854873111E+03  0.00000000000E+00 0. -1.
         -4    1    6    6    0  503  0.46587992926E+02  0.92649732808E+02 -0.14810256206E+03  0.18080039536E+03  0.00000000000E+00 0.  1.
<mgrwt>
<rscale>  0 0.12843266E+04</rscale>
<asrwt>0</asrwt>
<pdfrwt beam="1">  1        1 0.93767789E-01 0.12843266E+04</pdfrwt>
<pdfrwt beam="2">  1       -1 0.10409038E+00 0.12843266E+04</pdfrwt>
<totfact> 0.28624279E+01</totfact>
</mgrwt>
</event>
<event>
12    2  0.3555611E-008  0.1565808E+04  0.7818608E-02  0.8841833E-01
          1   -1    0    0  501    0  0.00000000000E+00  0.00000000000E+00  0.61406097052E+03  0.61406097052E+03  0.00000000000E+00 0.  1.
         -1   -1    0    0    0  501 -0.00000000000E+00 -0.00000000000E+00 -0.99817233394E+03  0.99817233394E+03  0.00000000000E+00 0. -1.
         23    2    1    2    0    0 -0.22129982051E+03  0.65368545426E+02 -0.61001851559E+03  0.65896428581E+03  0.94152447199E+02 0.  0.
        254    2    1    2    0    0  0.22129982051E+03 -0.65368545426E+02  0.22590715217E+03  0.95326901865E+03  0.89690641832E+03 0.  0.
         23    2    4    4    0    0  0.25357457945E+03  0.35466146936E+03  0.26912096323E+03  0.51997961230E+03  0.88701066299E+02 0.  0.
         23    2    4    4    0    0 -0.32274758944E+02 -0.42003001479E+03 -0.43213811057E+02  0.43328940635E+03  0.91680983847E+02 0.  0.
          4    1    3    3  502    0 -0.18069700091E+03  0.89797084385E+02 -0.49945424532E+03  0.53867380266E+03  0.00000000000E+00 0. -1.
         -4    1    3    3    0  502 -0.40602819600E+02 -0.24428538959E+02 -0.11056427028E+03  0.12029048315E+03  0.00000000000E+00 0.  1.
         11    1    5    5    0    0  0.19372704488E+01  0.17378296958E+02 -0.44722734391E+01  0.18048807486E+02  0.00000000000E+00 0. -1.
        -11    1    5    5    0    0  0.25163730901E+03  0.33728317241E+03  0.27359323666E+03  0.50193080481E+03  0.00000000000E+00 0.  1.
          2    1    6    6  503    0  0.26095136642E+02 -0.64125123435E+02 -0.19133999773E+02  0.71826858203E+02  0.00000000000E+00 0. -1.
         -2    1    6    6    0  503 -0.58369895586E+02 -0.35590489135E+03 -0.24079811283E+02  0.36146254815E+03  0.00000000000E+00 0.  1.
<mgrwt>
<rscale>  0 0.15658080E+04</rscale>
<asrwt>0</asrwt>
<pdfrwt beam="1">  1        1 0.94470919E-01 0.15658080E+04</pdfrwt>
<pdfrwt beam="2">  1       -1 0.15356497E+00 0.15658080E+04</pdfrwt>
<totfact> 0.10430874E+01</totfact>
</mgrwt>
</event>
<event>
12    2  0.3555611E-008  0.2608135E+04  0.7818608E-02  0.8365443E-01
         -1   -1    0    0    0  501 -0.00000000000E+00  0.00000000000E+00  0.50955502390E+03  0.50955502390E+03  0.00000000000E+00 0.  1.
          1   -1    0    0  501    0  0.00000000000E+00 -0.00000000000E+00 -0.33374051152E+04  0.33374051152E+04  0.00000000000E+00 0. -1.
         23    2    1    2    0    0  0.48671540790E+03 -0.32917157265E+03  0.20468208821E+03  0.62894969564E+03  0.91853959549E+02 0.  0.
        254    2    1    2    0    0 -0.48671540790E+03  0.32917157265E+03 -0.30325321795E+04  0.32180104435E+04  0.90227156770E+03 0.  0.
         23    2    4    4    0    0 -0.69604684223E+03  0.38229568870E+03 -0.18980936979E+04  0.20595230322E+04  0.90797764920E+02 0.  0.
         23    2    4    4    0    0  0.20933143433E+03 -0.53124116050E+02 -0.11344384816E+04  0.11584874112E+04  0.92198656656E+02 0.  0.
          4    1    3    3  502    0  0.18426349749E+03 -0.17735004277E+03  0.10149479291E+03  0.27514953600E+03  0.00000000000E+00 0. -1.
         -4    1    3    3    0  502  0.30245191041E+03 -0.15182152989E+03  0.10318729531E+03  0.35380015964E+03  0.00000000000E+00 0.  1.
         11    1    5    5    0    0 -0.69842270754E+02  0.43479786439E+02 -0.13497152495E+03  0.15806880515E+03  0.00000000000E+00 0.  1.
        -11    1    5    5    0    0 -0.62620457147E+03  0.33881590226E+03 -0.17631221729E+04  0.19014542271E+04  0.00000000000E+00 0. -1.
          3    1    6    6  503    0  0.46238808430E+02  0.22818756563E+02 -0.17993534384E+03  0.18717759220E+03  0.00000000000E+00 0. -1.
         -3    1    6    6    0  503  0.16309262590E+03 -0.75942872613E+02 -0.95450313779E+03  0.97130981905E+03  0.00000000000E+00 0.  1.
<mgrwt>
<rscale>  0 0.26081346E+04</rscale>
<asrwt>0</asrwt>
<pdfrwt beam="1">  1        1 0.51344695E+00 0.26081346E+04</pdfrwt>
<pdfrwt beam="2">  1       -1 0.78393079E-01 0.26081346E+04</pdfrwt>
<totfact> 0.47934034E-01</totfact>
</mgrwt>
</event>
<event>
12    2  0.3555611E-008  0.2535134E+04  0.7818608E-02  0.8390575E-01
          2   -1    0    0  501    0  0.00000000000E+00  0.00000000000E+00  0.32004470125E+04  0.32004470125E+04  0.00000000000E+00 0. -1.
         -2   -1    0    0    0  501 -0.00000000000E+00 -0.00000000000E+00 -0.50203189918E+03  0.50203189918E+03  0.00000000000E+00 0.  1.
         23    2    1    2    0    0  0.48253830472E+03 -0.74750467666E+02 -0.26702008437E+03  0.56393916685E+03  0.91086829509E+02 0.  0.
        254    2    1    2    0    0 -0.48253830472E+03  0.74750467666E+02  0.29654351977E+04  0.31385397449E+04  0.90454130378E+03 0.  0.
         23    2    4    4    0    0  0.61797765198E+02 -0.20002194178E+03  0.19439911722E+03  0.29940301219E+03  0.89573466808E+02 0.  0.
         23    2    4    4    0    0 -0.54433606992E+03  0.27477240945E+03  0.27710360805E+04  0.28391367327E+04  0.10126595353E+03 0.  0.
          3    1    3    3  502    0  0.33324844824E+02 -0.29888419836E+02 -0.17017136192E+02  0.47889934715E+02  0.00000000000E+00 0. -1.
         -3    1    3    3    0  502  0.44921345990E+03 -0.44862047829E+02 -0.25000294818E+03  0.51604923213E+03  0.00000000000E+00 0.  1.
         11    1    5    5    0    0 -0.10359029218E+02 -0.35416201613E+02  0.32703203520E+01  0.37044727266E+02  0.00000000000E+00 0.  1.
        -11    1    5    5    0    0  0.72156794416E+02 -0.16460574017E+03  0.19112879687E+03  0.26235828492E+03  0.00000000000E+00 0. -1.
          2    1    6    6  503    0 -0.24065341132E+03  0.13668367122E+03  0.10366643900E+04  0.10729722959E+04  0.00000000000E+00 0. -1.
         -2    1    6    6    0  503 -0.30368265860E+03  0.13808873822E+03  0.17343716905E+04  0.17661644367E+04  0.00000000000E+00 0.  1.
<mgrwt>
<rscale>  0 0.25351343E+04</rscale>
<asrwt>0</asrwt>
<pdfrwt beam="1">  1        2 0.49237645E+00 0.25351343E+04</pdfrwt>
<pdfrwt beam="2">  1       -2 0.77235679E-01 0.25351343E+04</pdfrwt>
<totfact> 0.17243757E+00</totfact>
</mgrwt>
</event>
<event>
12    2  0.3555611E-008  0.1308314E+04  0.7818608E-02  0.9022998E-01
         -2   -1    0    0    0  501 -0.00000000000E+00  0.00000000000E+00  0.47895086287E+03  0.47895086287E+03  0.00000000000E+00 0.  1.
          2   -1    0    0  501    0  0.00000000000E+00 -0.00000000000E+00 -0.89345611942E+03  0.89345611942E+03  0.00000000000E+00 0. -1.
         23    2    1    2    0    0 -0.10459050952E+03  0.22282954573E+02  0.15563057016E+03  0.20762436364E+03  0.86320897020E+02 0.  0.
        254    2    1    2    0    0  0.10459050952E+03 -0.22282954573E+02 -0.57013582671E+03  0.11647826186E+04  0.10100633560E+04 0.  0.
         23    2    4    4    0    0 -0.48887490715E+02  0.16383811967E+03  0.24437276587E+03  0.31047995068E+03  0.86295045469E+02 0.  0.
         23    2    4    4    0    0  0.15347800024E+03 -0.18612107424E+03 -0.81450859258E+03  0.85430266796E+03  0.90621466964E+02 0.  0.
          1    1    3    3  502    0  0.59433237439E+01 -0.18395408770E+02  0.27115982422E+02  0.33301511432E+02  0.00000000000E+00 0. -1.
         -1    1    3    3    0  502 -0.11053383327E+03  0.40678363343E+02  0.12851458774E+03  0.17432285221E+03  0.00000000000E+00 0.  1.
         11    1    5    5    0    0 -0.61688588238E+02  0.62280924955E+02  0.13220319301E+03  0.15862559621E+03  0.00000000000E+00 0. -1.
        -11    1    5    5    0    0  0.12801097523E+02  0.10155719471E+03  0.11216957286E+03  0.15185435447E+03  0.00000000000E+00 0.  1.
          2    1    6    6  503    0  0.70135085454E+02 -0.31735591296E+02 -0.33427706233E+03  0.34302657677E+03  0.00000000000E+00 0. -1.
         -2    1    6    6    0  503  0.83342914785E+02 -0.15438548295E+03 -0.48023153024E+03  0.51127609120E+03  0.00000000000E+00 0.  1.
<mgrwt>
<rscale>  0 0.13083143E+04</rscale>
<asrwt>0</asrwt>
<pdfrwt beam="1">  1        2 0.13745479E+00 0.13083143E+04</pdfrwt>
<pdfrwt beam="2">  1       -2 0.73684748E-01 0.13083143E+04</pdfrwt>
<totfact> 0.48207175E+01</totfact>
</mgrwt>
</event>
<event>
12    2  0.3555611E-008  0.1370045E+04  0.7818608E-02  0.8975791E-01
          2   -1    0    0  501    0  0.00000000000E+00  0.00000000000E+00  0.18818376821E+04  0.18818376821E+04  0.00000000000E+00 0. -1.
         -2   -1    0    0    0  501 -0.00000000000E+00 -0.00000000000E+00 -0.24936050087E+03  0.24936050087E+03  0.00000000000E+00 0.  1.
         23    2    1    2    0    0  0.73120791632E+02 -0.57039274074E+02  0.10557953044E+04  0.10641453514E+04  0.95401651136E+02 0.  0.
        254    2    1    2    0    0 -0.73120791632E+02  0.57039274074E+02  0.57668187683E+03  0.10670528316E+04  0.89299475333E+03 0.  0.
         23    2    4    4    0    0  0.30106124382E+03 -0.16276508093E+03  0.20334588871E+02  0.35563551567E+03  0.94513387410E+02 0.  0.
         23    2    4    4    0    0 -0.37418203546E+03  0.21980435500E+03  0.55634728796E+03  0.71141731596E+03  0.90918328692E+02 0.  0.
          3    1    3    3  502    0  0.37483260772E+02 -0.76709250075E+02  0.85589290288E+03  0.86014066587E+03  0.00000000000E+00 0. -1.
         -3    1    3    3    0  502  0.35637530861E+02  0.19669976001E+02  0.19990240154E+03  0.20400468549E+03  0.00000000000E+00 0.  1.
         11    1    5    5    0    0  0.18081489838E+03 -0.13022505496E+03  0.48208016742E+02  0.22798378296E+03  0.00000000000E+00 0. -1.
        -11    1    5    5    0    0  0.12024634544E+03 -0.32540025973E+02 -0.27873427871E+02  0.12765173271E+03  0.00000000000E+00 0.  1.
          3    1    6    6  503    0 -0.13170896814E+03  0.12886395367E+03  0.24066873927E+03  0.30310825278E+03  0.00000000000E+00 0. -1.
         -3    1    6    6    0  503 -0.24247306732E+03  0.90940401329E+02  0.31567854869E+03  0.40830906318E+03  0.00000000000E+00 0.  1.
<mgrwt>
<rscale>  0 0.13700452E+04</rscale>
<asrwt>0</asrwt>
<pdfrwt beam="1">  1        2 0.28951348E+00 0.13700452E+04</pdfrwt>
<pdfrwt beam="2">  1       -2 0.38363155E-01 0.13700452E+04</pdfrwt>
<totfact> 0.48658844E+01</totfact>
</mgrwt>
</event>
<event>
12    2  0.3555611E-008  0.1525231E+04  0.7818608E-02  0.8867846E-01
          2   -1    0    0  501    0  0.00000000000E+00  0.00000000000E+00  0.26523284502E+04  0.26523284502E+04  0.00000000000E+00 0. -1.
         -2   -1    0    0    0  501 -0.00000000000E+00 -0.00000000000E+00 -0.21927239152E+03  0.21927239152E+03  0.00000000000E+00 0.  1.
         23    2    1    2    0    0  0.26985591826E+03 -0.46362458107E+03  0.90580206780E+03  0.10567814123E+04  0.92409947921E+02 0.  0.
        254    2    1    2    0    0 -0.26985591826E+03  0.46362458107E+03  0.15272539909E+04  0.18148194295E+04  0.82054545283E+03 0.  0.
         23    2    4    4    0    0 -0.30543987845E+01  0.11190330990E+03 -0.65637387962E+02  0.15989545890E+03  0.93416331328E+02 0.  0.
         23    2    4    4    0    0 -0.26680151947E+03  0.35172127117E+03  0.15928913789E+04  0.16549239706E+04  0.81114118478E+02 0.  0.
          1    1    3    3  502    0  0.25641576582E+03 -0.37246832153E+03  0.75416306625E+03  0.87934272386E+03  0.00000000000E+00 0. -1.
         -1    1    3    3    0  502  0.13440152436E+02 -0.91156259534E+02  0.15163900155E+03  0.17743868840E+03  0.00000000000E+00 0.  1.
         11    1    5    5    0    0 -0.43233200975E+01 -0.76770818176E+01  0.13768491777E+02  0.16346254852E+02  0.00000000000E+00 0. -1.
        -11    1    5    5    0    0  0.12689213130E+01  0.11958039172E+03 -0.79405879738E+02  0.14354920404E+03  0.00000000000E+00 0.  1.
          4    1    6    6  503    0 -0.34251225993E+02  0.63350151006E+02  0.37828111424E+03  0.38507530368E+03  0.00000000000E+00 0. -1.
         -4    1    6    6    0  503 -0.23255029348E+03  0.28837112016E+03  0.12146102646E+04  0.12698486669E+04  0.00000000000E+00 0.  1.
<mgrwt>
<rscale>  0 0.15252310E+04</rscale>
<asrwt>0</asrwt>
<pdfrwt beam="1">  1        2 0.40805051E+00 0.15252310E+04</pdfrwt>
<pdfrwt beam="2">  1       -2 0.33734216E-01 0.15252310E+04</pdfrwt>
<totfact> 0.22549887E+01</totfact>
</mgrwt>
</event>
<event>
12    2  0.3555611E-008  0.1896845E+04  0.7818608E-02  0.8656429E-01
         -2   -1    0    0    0  501 -0.00000000000E+00  0.00000000000E+00  0.70353457368E+03  0.70353457368E+03  0.00000000000E+00 0.  1.
          2   -1    0    0  501    0  0.00000000000E+00 -0.00000000000E+00 -0.12785510930E+04  0.12785510930E+04  0.00000000000E+00 0. -1.
         23    2    1    2    0    0  0.64108521240E+03  0.25946170654E+03 -0.47631560067E+03  0.84485300440E+03  0.92679128631E+02 0.  0.
        254    2    1    2    0    0 -0.64108521240E+03 -0.25946170654E+03 -0.98700918693E+02  0.11372326623E+04  0.89735479615E+03 0.  0.
         23    2    4    4    0    0 -0.66967940440E+03 -0.45629768262E+03  0.12397191321E+03  0.82484749117E+03  0.91248389529E+02 0.  0.
         23    2    4    4    0    0  0.28594191998E+02  0.19683597608E+03 -0.22267283190E+03  0.31238517115E+03  0.91865531026E+02 0.  0.
          3    1    3    3  502    0  0.64264854921E+03  0.26182858111E+03 -0.47056446331E+03  0.83844038418E+03  0.00000000000E+00 0. -1.
         -3    1    3    3    0  502 -0.15633368099E+01 -0.23668745701E+01 -0.57511373574E+01  0.64126202223E+01  0.00000000000E+00 0.  1.
         11    1    5    5    0    0 -0.27740786927E+03 -0.23989476321E+03  0.73124175107E+02  0.37396760332E+03  0.00000000000E+00 0. -1.
        -11    1    5    5    0    0 -0.39227153512E+03 -0.21640291941E+03  0.50847738104E+02  0.45087988785E+03  0.00000000000E+00 0.  1.
          2    1    6    6  503    0 -0.19548609423E+02  0.13878719539E+03 -0.17034863931E+03  0.22059622084E+03  0.00000000000E+00 0. -1.
         -2    1    6    6    0  503  0.48142801421E+02  0.58048780683E+02 -0.52324192596E+02  0.91788950306E+02  0.00000000000E+00 0.  1.
<mgrwt>
<rscale>  0 0.18968446E+04</rscale>
<asrwt>0</asrwt>
<pdfrwt beam="1">  1        2 0.19670016E+00 0.18968446E+04</pdfrwt>
<pdfrwt beam="2">  1       -2 0.10823609E+00 0.18968446E+04</pdfrwt>
<totfact> 0.10893244E+01</totfact>
</mgrwt>
</event>
<event>
12    2  0.3555611E-008  0.1185004E+04  0.7818608E-02  0.9126085E-01
          2   -1    0    0  501    0  0.00000000000E+00  0.00000000000E+00  0.92550969086E+03  0.92550969086E+03  0.00000000000E+00 0. -1.
         -2   -1    0    0    0  501 -0.00000000000E+00 -0.00000000000E+00 -0.37931384800E+03  0.37931384800E+03  0.00000000000E+00 0.  1.
         23    2    1    2    0    0 -0.16437388474E+03  0.17614748621E+02  0.32493174582E+03  0.37553227570E+03  0.90082169711E+02 0.  0.
        254    2    1    2    0    0  0.16437388474E+03 -0.17614748621E+02  0.22126409704E+03  0.92929126316E+03  0.88729667969E+03 0.  0.
         23    2    4    4    0    0 -0.83847510481E+02  0.20477966308E+03  0.45379412787E+03  0.51307928091E+03  0.91411829588E+02 0.  0.
         23    2    4    4    0    0  0.24822139522E+03 -0.22239441170E+03 -0.23253003083E+03  0.41621198225E+03  0.89939221302E+02 0.  0.
          1    1    3    3  502    0 -0.81360393912E+02  0.32167276627E+02  0.24184599715E+03  0.25718424081E+03  0.00000000000E+00 0. -1.
         -1    1    3    3    0  502 -0.83013490832E+02 -0.14552528006E+02  0.83085748665E+02  0.11834803489E+03  0.00000000000E+00 0.  1.
         11    1    5    5    0    0 -0.85601207271E+02  0.90486315150E+02  0.21921108744E+03  0.25212861950E+03  0.00000000000E+00 0.  1.
        -11    1    5    5    0    0  0.17536967896E+01  0.11429334793E+03  0.23458304043E+03  0.26095066141E+03  0.00000000000E+00 0. -1.
          3    1    6    6  503    0  0.13010330805E+03 -0.16438342480E+03 -0.11161445556E+03  0.23750066906E+03  0.00000000000E+00 0. -1.
         -3    1    6    6    0  503  0.11811808718E+03 -0.58010986900E+02 -0.12091557527E+03  0.17871131319E+03  0.00000000000E+00 0.  1.
<mgrwt>
<rscale>  0 0.11850040E+04</rscale>
<asrwt>0</asrwt>
<pdfrwt beam="1">  1        2 0.14238611E+00 0.11850040E+04</pdfrwt>
<pdfrwt beam="2">  1       -2 0.58355977E-01 0.11850040E+04</pdfrwt>
<totfact> 0.76467225E+01</totfact>
</mgrwt>
</event>
<event>
12    2  0.3555611E-008  0.1325903E+04  0.7818608E-02  0.9009272E-01
          1   -1    0    0  501    0  0.00000000000E+00  0.00000000000E+00  0.52136743884E+03  0.52136743884E+03  0.00000000000E+00 0. -1.
         -1   -1    0    0    0  501 -0.00000000000E+00 -0.00000000000E+00 -0.84298473336E+03  0.84298473336E+03  0.00000000000E+00 0.  1.
         23    2    1    2    0    0 -0.29818642057E-01 -0.34655706742E+03 -0.11929701269E+03  0.37779884635E+03  0.91642725844E+02 0.  0.
        254    2    1    2    0    0  0.29818642057E-01  0.34655706742E+03 -0.20232028183E+03  0.98655332585E+03  0.90125033505E+03 0.  0.
         23    2    4    4    0    0  0.15975784237E+02  0.24024515615E+03 -0.55238674310E+03  0.60923822488E+03  0.89817258748E+02 0.  0.
         23    2    4    4    0    0 -0.15945965595E+02  0.10631191127E+03  0.35006646127E+03  0.37731510097E+03  0.90904685319E+02 0.  0.
          3    1    3    3  502    0  0.39029946956E+02 -0.22835771947E+03 -0.56919170925E+02  0.23855895879E+03  0.00000000000E+00 0. -1.
         -3    1    3    3    0  502 -0.39059765598E+02 -0.11819934794E+03 -0.62377841764E+02  0.13923988755E+03  0.00000000000E+00 0.  1.
         11    1    5    5    0    0 -0.28688688381E+02  0.75246018930E+02 -0.12235193376E+03  0.14647525354E+03  0.00000000000E+00 0. -1.
        -11    1    5    5    0    0  0.44664472618E+02  0.16499913722E+03 -0.43003480934E+03  0.46276297134E+03  0.00000000000E+00 0.  1.
          2    1    6    6  503    0  0.57116966467E+00  0.21390626313E+02  0.22040709999E+03  0.22144338973E+03  0.00000000000E+00 0. -1.
         -2    1    6    6    0  503 -0.16517135259E+02  0.84921284957E+02  0.12965936128E+03  0.15587171124E+03  0.00000000000E+00 0.  1.
<mgrwt>
<rscale>  0 0.13259032E+04</rscale>
<asrwt>0</asrwt>
<pdfrwt beam="1">  1        1 0.80210375E-01 0.13259032E+04</pdfrwt>
<pdfrwt beam="2">  1       -1 0.12968996E+00 0.13259032E+04</pdfrwt>
<totfact> 0.20928653E+01</totfact>
</mgrwt>
</event>
<event>
12    2  0.3555611E-008  0.1474360E+04  0.7818608E-02  0.8901685E-01
          1   -1    0    0  501    0  0.00000000000E+00  0.00000000000E+00  0.20402831979E+04  0.20402831979E+04  0.00000000000E+00 0. -1.
         -1   -1    0    0    0  501 -0.00000000000E+00 -0.00000000000E+00 -0.26635233187E+03  0.26635233187E+03  0.00000000000E+00 0.  1.
         23    2    1    2    0    0 -0.35738282319E+03 -0.17692564739E+03  0.92643860050E+03  0.10115266329E+04  0.76632118144E+02 0.  0.
        254    2    1    2    0    0  0.35738282319E+03  0.17692564739E+03  0.84749226553E+03  0.12951088969E+04  0.89444885132E+03 0.  0.
         23    2    4    4    0    0  0.32467837063E+03 -0.19463498642E+03  0.28746231465E+02  0.39074714688E+03  0.92510349026E+02 0.  0.
         23    2    4    4    0    0  0.32704452564E+02  0.37156063381E+03  0.81874603407E+03  0.90436175000E+03  0.91641806806E+02 0.  0.
          3    1    3    3  502    0 -0.31268450447E+03 -0.16612767664E+03  0.86596072883E+03  0.93555223701E+03  0.00000000000E+00 0. -1.
         -3    1    3    3    0  502 -0.44698318718E+02 -0.10797970745E+02  0.60477871662E+02  0.75974395879E+02  0.00000000000E+00 0.  1.
         11    1    5    5    0    0  0.30164605022E+02 -0.57231990545E+02  0.40754062945E+01  0.64822936329E+02  0.00000000000E+00 0. -1.
        -11    1    5    5    0    0  0.29451376561E+03 -0.13740299587E+03  0.24670825171E+02  0.32592421055E+03  0.00000000000E+00 0.  1.
          3    1    6    6  503    0 -0.10543557524E+02  0.13971735296E+03  0.21986561832E+03  0.26071631219E+03  0.00000000000E+00 0. -1.
         -3    1    6    6    0  503  0.43248010088E+02  0.23184328085E+03  0.59888041575E+03  0.64364543782E+03  0.00000000000E+00 0.  1.
<mgrwt>
<rscale>  0 0.14743598E+04</rscale>
<asrwt>0</asrwt>
<pdfrwt beam="1">  1        1 0.31388971E+00 0.14743598E+04</pdfrwt>
<pdfrwt beam="2">  1       -1 0.40977283E-01 0.14743598E+04</pdfrwt>
<totfact> 0.15816887E+01</totfact>
</mgrwt>
</event>
<event>
12    2  0.3555611E-008  0.1104637E+04  0.7818608E-02  0.9200684E-01
         -2   -1    0    0    0  501 -0.00000000000E+00  0.00000000000E+00  0.29113124084E+03  0.29113124084E+03  0.00000000000E+00 0.  1.
          2   -1    0    0  501    0  0.00000000000E+00 -0.00000000000E+00 -0.10478295211E+04  0.10478295211E+04  0.00000000000E+00 0. -1.
         23    2    1    2    0    0  0.12680645867E+02  0.14141861871E+03 -0.29617205125E+03  0.34469765847E+03  0.10458760595E+03 0.  0.
        254    2    1    2    0    0 -0.12680645867E+02 -0.14141861871E+03 -0.46052622905E+03  0.99426310350E+03  0.86966354807E+03 0.  0.
         23    2    4    4    0    0  0.61587918474E+02  0.19771957799E+03 -0.57501369276E+03  0.61786358688E+03  0.90711421014E+02 0.  0.
         23    2    4    4    0    0 -0.74268564342E+02 -0.33913819670E+03  0.11448746371E+03  0.37639951663E+03  0.89658689817E+02 0.  0.
          3    1    3    3  502    0  0.30558667105E+02 -0.11085989084E+01 -0.33813810286E+02  0.45589855153E+02  0.00000000000E+00 0. -1.
         -3    1    3    3    0  502 -0.17878021238E+02  0.14252721762E+03 -0.26235824096E+03  0.29910780332E+03  0.00000000000E+00 0.  1.
         11    1    5    5    0    0  0.22394105169E+02  0.73719019933E+02 -0.10527993879E+03  0.13046016771E+03  0.00000000000E+00 0. -1.
        -11    1    5    5    0    0  0.39193813305E+02  0.12400055806E+03 -0.46973375397E+03  0.48740341917E+03  0.00000000000E+00 0.  1.
          4    1    6    6  503    0 -0.60551396944E+02 -0.17027368601E+03  0.99542530364E+02  0.20632090337E+03  0.00000000000E+00 0.  1.
         -4    1    6    6    0  503 -0.13717167397E+02 -0.16886451069E+03  0.14944933349E+02  0.17007861325E+03  0.00000000000E+00 0. -1.
<mgrwt>
<rscale>  0 0.11046373E+04</rscale>
<asrwt>0</asrwt>
<pdfrwt beam="1">  1        2 0.16120454E+00 0.11046373E+04</pdfrwt>
<pdfrwt beam="2">  1       -2 0.44789422E-01 0.11046373E+04</pdfrwt>
<totfact> 0.11013253E+02</totfact>
</mgrwt>
</event>
<event>
12    2  0.3555611E-008  0.2035379E+04  0.7818608E-02  0.8590256E-01
          1   -1    0    0  501    0  0.00000000000E+00  0.00000000000E+00  0.22684945872E+04  0.22684945872E+04  0.00000000000E+00 0. -1.
         -1   -1    0    0    0  501 -0.00000000000E+00 -0.00000000000E+00 -0.45655455192E+03  0.45655455192E+03  0.00000000000E+00 0.  1.
         23    2    1    2    0    0  0.10419340189E+02 -0.56145014668E+03 -0.60919623756E+02  0.57306697963E+03  0.96745711629E+02 0.  0.
        254    2    1    2    0    0 -0.10419340189E+02  0.56145014668E+03  0.18728596591E+04  0.21519821595E+04  0.89893775229E+03 0.  0.
         23    2    4    4    0    0  0.36608238708E+03  0.50776448243E+02  0.43478742064E+03  0.57749583978E+03  0.88694881431E+02 0.  0.
         23    2    4    4    0    0 -0.37650172727E+03  0.51067369844E+03  0.14380722384E+04  0.15744863197E+04  0.91729118659E+02 0.  0.
          2    1    3    3  502    0  0.15873209651E+02 -0.56368244462E+03 -0.59791173312E+02  0.56706687574E+03  0.00000000000E+00 0.  1.
         -2    1    3    3    0  502 -0.54538694622E+01  0.22322979385E+01 -0.11284504440E+01  0.60001038826E+01  0.00000000000E+00 0. -1.
         11    1    5    5    0    0  0.27686297155E+03  0.30455020227E+02  0.37894501245E+03  0.47029770968E+03  0.00000000000E+00 0.  1.
        -11    1    5    5    0    0  0.89219415530E+02  0.20321428016E+02  0.55842408189E+02  0.10719813010E+03  0.00000000000E+00 0. -1.
          2    1    6    6  503    0 -0.29171214756E+02  0.22847828523E+02  0.14200800310E+03  0.14676258373E+03  0.00000000000E+00 0. -1.
         -2    1    6    6    0  503 -0.34733051251E+03  0.48782586992E+03  0.12960642353E+04  0.14277237360E+04  0.00000000000E+00 0.  1.
<mgrwt>
<rscale>  0 0.20353786E+04</rscale>
<asrwt>0</asrwt>
<pdfrwt beam="1">  1        1 0.34899916E+00 0.20353786E+04</pdfrwt>
<pdfrwt beam="2">  1       -1 0.70239163E-01 0.20353786E+04</pdfrwt>
<totfact> 0.37064465E+00</totfact>
</mgrwt>
</event>
<event>
12    2  0.3555611E-008  0.1542865E+04  0.7818608E-02  0.8856438E-01
          2   -1    0    0  501    0  0.00000000000E+00  0.00000000000E+00  0.38158627012E+03  0.38158627012E+03  0.00000000000E+00 0. -1.
         -2   -1    0    0    0  501 -0.00000000000E+00 -0.00000000000E+00 -0.15595647260E+04  0.15595647260E+04  0.00000000000E+00 0.  1.
         23    2    1    2    0    0 -0.15210252710E+03  0.13316733251E+02  0.21222430962E+03  0.27538459264E+03  0.86515906829E+02 0.  0.
        254    2    1    2    0    0  0.15210252710E+03 -0.13316733251E+02 -0.13902027655E+04  0.16657664035E+04  0.90487649301E+03 0.  0.
         23    2    4    4    0    0 -0.73060810198E+02  0.40893593356E+03 -0.75350859774E+03  0.86526772767E+03  0.91359476509E+02 0.  0.
         23    2    4    4    0    0  0.22516333730E+03 -0.42225266681E+03 -0.63669416777E+03  0.80049867580E+03  0.80142520585E+02 0.  0.
          3    1    3    3  502    0 -0.15738107197E+03  0.27699849821E+02  0.18820822976E+03  0.24689759262E+03  0.00000000000E+00 0. -1.
         -3    1    3    3    0  502  0.52785448635E+01 -0.14383116570E+02  0.24016079865E+02  0.28487000022E+02  0.00000000000E+00 0.  1.
         11    1    5    5    0    0 -0.58266600198E+02  0.21448815363E+03 -0.31674510053E+03  0.38694653824E+03  0.00000000000E+00 0. -1.
        -11    1    5    5    0    0 -0.14794210000E+02  0.19444777993E+03 -0.43676349721E+03  0.47832118944E+03  0.00000000000E+00 0.  1.
          1    1    6    6  503    0 -0.17750316833E+01  0.28237744702E+01 -0.41775291249E+01  0.53456701474E+01  0.00000000000E+00 0. -1.
         -1    1    6    6    0  503  0.22693836899E+03 -0.42507644128E+03 -0.63251663864E+03  0.79515300566E+03  0.00000000000E+00 0.  1.
<mgrwt>
<rscale>  0 0.15428655E+04</rscale>
<asrwt>0</asrwt>
<pdfrwt beam="1">  1        2 0.58705581E-01 0.15428655E+04</pdfrwt>
<pdfrwt beam="2">  1       -2 0.23993303E+00 0.15428655E+04</pdfrwt>
<totfact> 0.59885886E+00</totfact>
</mgrwt>
</event>
<event>
12    2  0.3555611E-008  0.1452244E+04  0.7818608E-02  0.8916846E-01
         -2   -1    0    0    0  501 -0.00000000000E+00  0.00000000000E+00  0.35539912003E+03  0.35539912003E+03  0.00000000000E+00 0.  1.
          2   -1    0    0  501    0  0.00000000000E+00 -0.00000000000E+00 -0.14835522000E+04  0.14835522000E+04  0.00000000000E+00 0. -1.
         23    2    1    2    0    0 -0.10421917952E+03 -0.40807882726E+03 -0.19705917130E+03  0.47371362880E+03  0.90456168830E+02 0.  0.
        254    2    1    2    0    0  0.10421917952E+03  0.40807882726E+03 -0.93109390871E+03  0.13652376913E+04  0.90528897054E+03 0.  0.
         23    2    4    4    0    0  0.19883221822E+03  0.26535880922E+03  0.65724428374E+02  0.34975334363E+03  0.89767211517E+02 0.  0.
         23    2    4    4    0    0 -0.94613038696E+02  0.14272001804E+03 -0.99681833708E+03  0.10154843476E+04  0.90780132816E+02 0.  0.
          3    1    3    3  502    0  0.12059446536E+02 -0.88817578357E+01 -0.76208698848E+01  0.16804568748E+02  0.00000000000E+00 0. -1.
         -3    1    3    3    0  502 -0.11627862606E+03 -0.39919706942E+03 -0.18943830142E+03  0.45690906005E+03  0.00000000000E+00 0.  1.
         11    1    5    5    0    0  0.20750423946E+03  0.25470534130E+03  0.56889069086E+02  0.33342043498E+03  0.00000000000E+00 0.  1.
        -11    1    5    5    0    0 -0.86720212440E+01  0.10653467915E+02  0.88353592883E+01  0.16332908645E+02  0.00000000000E+00 0. -1.
          3    1    6    6  503    0  0.49656494167E+00  0.50585637364E+02 -0.14818520662E+03  0.15658227469E+03  0.00000000000E+00 0. -1.
         -3    1    6    6    0  503 -0.95109603637E+02  0.92134380678E+02 -0.84863313046E+03  0.85890207295E+03  0.00000000000E+00 0.  1.
<mgrwt>
<rscale>  0 0.14522440E+04</rscale>
<asrwt>0</asrwt>
<pdfrwt beam="1">  1        2 0.22823880E+00 0.14522440E+04</pdfrwt>
<pdfrwt beam="2">  1       -2 0.54676787E-01 0.14522440E+04</pdfrwt>
<totfact> 0.39570021E+01</totfact>
</mgrwt>
</event>
<event>
12    2  0.3555611E-008  0.1018703E+04  0.7818608E-02  0.9288266E-01
          2   -1    0    0  501    0  0.00000000000E+00  0.00000000000E+00  0.92874953454E+03  0.92874953454E+03  0.00000000000E+00 0. -1.
         -2   -1    0    0    0  501 -0.00000000000E+00 -0.00000000000E+00 -0.27934223497E+03  0.27934223497E+03  0.00000000000E+00 0.  1.
         23    2    1    2    0    0 -0.48968127670E+02  0.13426312273E+02  0.14217662472E+03  0.17633061015E+03  0.91105148429E+02 0.  0.
        254    2    1    2    0    0  0.48968127670E+02 -0.13426312273E+02  0.50723067485E+03  0.10317611594E+04  0.89703399550E+03 0.  0.
         23    2    4    4    0    0 -0.21909695158E+03  0.33630523408E+03  0.97321098745E+02  0.42323863246E+03  0.92492481211E+02 0.  0.
         23    2    4    4    0    0  0.26806507925E+03 -0.34973154636E+03  0.40990957611E+03  0.60852252691E+03  0.90015353934E+02 0.  0.
          1    1    3    3  502    0 -0.80268541494E+01 -0.37490122134E+02  0.62101929149E+02  0.72983486140E+02  0.00000000000E+00 0. -1.
         -1    1    3    3    0  502 -0.40941273520E+02  0.50916434407E+02  0.80074695571E+02  0.10334712401E+03  0.00000000000E+00 0.  1.
         11    1    5    5    0    0 -0.19478499748E+03  0.27547411364E+03  0.11313671396E+03  0.35584701569E+03  0.00000000000E+00 0. -1.
        -11    1    5    5    0    0 -0.24311954103E+02  0.60831120440E+02 -0.15815615211E+02  0.67391616769E+02  0.00000000000E+00 0.  1.
          3    1    6    6  503    0  0.14269117031E+03 -0.13813645292E+03  0.13775854491E+03  0.24170201986E+03  0.00000000000E+00 0. -1.
         -3    1    6    6    0  503  0.12537390894E+03 -0.21159509344E+03  0.27215103120E+03  0.36682050705E+03  0.00000000000E+00 0.  1.
<mgrwt>
<rscale>  0 0.10187030E+04</rscale>
<asrwt>0</asrwt>
<pdfrwt beam="1">  1        2 0.14288454E+00 0.10187030E+04</pdfrwt>
<pdfrwt beam="2">  1       -2 0.42975729E-01 0.10187030E+04</pdfrwt>
<totfact> 0.14351082E+02</totfact>
</mgrwt>
</event>
<event>
12    2  0.3555611E-008  0.3820098E+04  0.7818608E-02  0.8041856E-01
          1   -1    0    0  501    0  0.00000000000E+00  0.00000000000E+00  0.13274512946E+04  0.13274512946E+04  0.00000000000E+00 0. -1.
         -1   -1    0    0    0  501 -0.00000000000E+00 -0.00000000000E+00 -0.27483399380E+04  0.27483399380E+04  0.00000000000E+00 0.  1.
         23    2    1    2    0    0 -0.17636418634E+04  0.29848803723E+03 -0.42127038029E+03  0.18399299889E+04  0.91355896943E+02 0.  0.
        254    2    1    2    0    0  0.17636418634E+04 -0.29848803723E+03 -0.99961826312E+03  0.22358612436E+04  0.89460108314E+03 0.  0.
         23    2    4    4    0    0  0.11413261614E+04 -0.47342487398E+03 -0.29191142812E+03  0.12728838055E+04  0.90908649302E+02 0.  0.
         23    2    4    4    0    0  0.62231570204E+03  0.17493683674E+03 -0.70770683501E+03  0.96297743810E+03  0.92719211205E+02 0.  0.
          3    1    3    3  502    0 -0.12663116014E+03  0.39852872582E+02 -0.15440463675E+02  0.13364920535E+03  0.00000000000E+00 0. -1.
         -3    1    3    3    0  502 -0.16370107033E+04  0.25863516465E+03 -0.40582991661E+03  0.17062807836E+04  0.00000000000E+00 0.  1.
         11    1    5    5    0    0  0.26766809004E+03 -0.15283517452E+03 -0.79965027647E+02  0.31843241457E+03  0.00000000000E+00 0.  1.
        -11    1    5    5    0    0  0.87365807136E+03 -0.32058969945E+03 -0.21194640047E+03  0.95445139096E+03  0.00000000000E+00 0. -1.
          4    1    6    6  503    0  0.39493504253E+03  0.11648219937E+03 -0.51413499226E+03  0.65869308548E+03  0.00000000000E+00 0. -1.
         -4    1    6    6    0  503  0.22738065951E+03  0.58454637369E+02 -0.19357184275E+03  0.30428435263E+03  0.00000000000E+00 0.  1.
<mgrwt>
<rscale>  0 0.38200981E+04</rscale>
<asrwt>0</asrwt>
<pdfrwt beam="1">  1        1 0.20422328E+00 0.38200981E+04</pdfrwt>
<pdfrwt beam="2">  1       -1 0.42282152E+00 0.38200981E+04</pdfrwt>
<totfact> 0.34215404E-02</totfact>
</mgrwt>
</event>
<event>
12    2  0.3555611E-008  0.2619438E+04  0.7818608E-02  0.8361628E-01
          1   -1    0    0  501    0  0.00000000000E+00  0.00000000000E+00  0.11027809754E+04  0.11027809754E+04  0.00000000000E+00 0. -1.
         -1   -1    0    0    0  501 -0.00000000000E+00 -0.00000000000E+00 -0.15554894287E+04  0.15554894287E+04  0.00000000000E+00 0.  1.
         23    2    1    2    0    0  0.15000455141E+03  0.39034909603E+03 -0.12918173667E+04  0.13610578712E+04  0.93875650197E+02 0.  0.
        254    2    1    2    0    0 -0.15000455141E+03 -0.39034909603E+03  0.83910891343E+03  0.12972125329E+04  0.89653934921E+03 0.  0.
         23    2    4    4    0    0 -0.48180480139E+01 -0.56841706263E+03  0.87540887247E+03  0.10476850846E+04  0.90455357999E+02 0.  0.
         23    2    4    4    0    0 -0.14518650340E+03  0.17806796660E+03 -0.36299959045E+02  0.24952744831E+03  0.90326845041E+02 0.  0.
          2    1    3    3  502    0  0.15667729316E+03  0.39149768450E+03 -0.12752322240E+04  0.13431438628E+04  0.00000000000E+00 0.  1.
         -2    1    3    3    0  502 -0.66727417533E+01 -0.11485884692E+01 -0.16585142710E+02  0.17914008392E+02  0.00000000000E+00 0. -1.
         11    1    5    5    0    0  0.26271958095E+02 -0.22533169198E+03  0.41103869871E+03  0.46948631399E+03  0.00000000000E+00 0. -1.
        -11    1    5    5    0    0 -0.31090006109E+02 -0.34308537066E+03  0.46437017377E+03  0.57819877060E+03  0.00000000000E+00 0.  1.
          1    1    6    6  503    0 -0.53224222088E+01  0.33577234611E+01 -0.24634319302E+02  0.25425423742E+02  0.00000000000E+00 0. -1.
         -1    1    6    6    0  503 -0.13986408119E+03  0.17471024314E+03 -0.11665639743E+02  0.22410202456E+03  0.00000000000E+00 0.  1.
<mgrwt>
<rscale>  0 0.26194382E+04</rscale>
<asrwt>0</asrwt>
<pdfrwt beam="1">  1        1 0.16965861E+00 0.26194382E+04</pdfrwt>
<pdfrwt beam="2">  1       -1 0.23930607E+00 0.26194382E+04</pdfrwt>
<totfact> 0.90892025E-01</totfact>
</mgrwt>
</event>
<event>
12    2  0.3555611E-008  0.2288965E+04  0.7818608E-02  0.8482285E-01
          1   -1    0    0  501    0  0.00000000000E+00  0.00000000000E+00  0.16378533400E+04  0.16378533400E+04  0.00000000000E+00 0. -1.
         -1   -1    0    0    0  501 -0.00000000000E+00 -0.00000000000E+00 -0.79973000554E+03  0.79973000554E+03  0.00000000000E+00 0.  1.
         23    2    1    2    0    0 -0.45261285177E+03 -0.17624807902E+03  0.12425381415E+04  0.13369975999E+04  0.87975962837E+02 0.  0.
        254    2    1    2    0    0  0.45261285177E+03  0.17624807902E+03 -0.40441480710E+03  0.11005857456E+04  0.90100825095E+03 0.  0.
         23    2    4    4    0    0  0.37477007378E+03  0.43455312405E+03 -0.53277703455E+03  0.78843200795E+03  0.92112088225E+02 0.  0.
         23    2    4    4    0    0  0.77842777986E+02 -0.25830504503E+03  0.12836222744E+03  0.31215373765E+03  0.90454961844E+02 0.  0.
          3    1    3    3  502    0 -0.43547970820E+03 -0.18624040833E+03  0.11856714392E+04  0.12767712511E+04  0.00000000000E+00 0. -1.
         -3    1    3    3    0  502 -0.17133143572E+02  0.99923293128E+01  0.56866702309E+02  0.60226348763E+02  0.00000000000E+00 0.  1.
         11    1    5    5    0    0  0.16982711874E+03  0.19945565883E+03 -0.18158650709E+03  0.31874357979E+03  0.00000000000E+00 0. -1.
        -11    1    5    5    0    0  0.20494295505E+03  0.23509746522E+03 -0.35119052746E+03  0.46968842817E+03  0.00000000000E+00 0.  1.
          4    1    6    6  503    0  0.69844693987E+02 -0.21208928298E+03  0.14035546593E+03  0.26374192320E+03  0.00000000000E+00 0.  1.
         -4    1    6    6    0  503  0.79980839986E+01 -0.46215762051E+02 -0.11993238488E+02  0.48411814457E+02  0.00000000000E+00 0. -1.
<mgrwt>
<rscale>  0 0.22889652E+04</rscale>
<asrwt>0</asrwt>
<pdfrwt beam="1">  1        1 0.25197744E+00 0.22889652E+04</pdfrwt>
<pdfrwt beam="2">  1       -1 0.12303539E+00 0.22889652E+04</pdfrwt>
<totfact> 0.27680126E+00</totfact>
</mgrwt>
</event>
<event>
12    2  0.3555611E-008  0.2017604E+04  0.7818608E-02  0.8598434E-01
         -1   -1    0    0    0  501 -0.00000000000E+00  0.00000000000E+00  0.11548811927E+04  0.11548811927E+04  0.00000000000E+00 0.  1.
          1   -1    0    0  501    0  0.00000000000E+00 -0.00000000000E+00 -0.88119991752E+03  0.88119991752E+03  0.00000000000E+00 0. -1.
         23    2    1    2    0    0  0.35145755064E+03  0.72554930353E+03  0.22030705443E+03  0.84105608673E+03  0.94318296450E+02 0.  0.
        254    2    1    2    0    0 -0.35145755064E+03 -0.72554930353E+03  0.53374220790E+02  0.11950250235E+04  0.88050655743E+03 0.  0.
         23    2    4    4    0    0 -0.18649923321E+03  0.14386772519E+03  0.16044811026E+03  0.29911488839E+03  0.90808777277E+02 0.  0.
         23    2    4    4    0    0 -0.16495831743E+03 -0.86941702872E+03 -0.10707388947E+03  0.89591013514E+03  0.89960747665E+02 0.  0.
          3    1    3    3  502    0  0.33290377281E+03  0.67839324219E+03  0.18132858993E+03  0.77712442410E+03  0.00000000000E+00 0. -1.
         -3    1    3    3    0  502  0.18553777828E+02  0.47156061334E+02  0.38978464497E+02  0.63931662631E+02  0.00000000000E+00 0.  1.
         11    1    5    5    0    0 -0.14929631910E+02  0.22332564854E+02 -0.97802869468E+01  0.28588308357E+02  0.00000000000E+00 0.  1.
        -11    1    5    5    0    0 -0.17156960130E+03  0.12153516034E+03  0.17022839721E+03  0.27052658003E+03  0.00000000000E+00 0. -1.
          3    1    6    6  503    0 -0.96228475432E+02 -0.32861014330E+03 -0.12702618702E+02  0.34264544691E+03  0.00000000000E+00 0.  1.
         -3    1    6    6    0  503 -0.68729842002E+02 -0.54080688542E+03 -0.94371270773E+02  0.55326468823E+03  0.00000000000E+00 0. -1.
<mgrwt>
<rscale>  0 0.20176037E+04</rscale>
<asrwt>0</asrwt>
<pdfrwt beam="1">  1        1 0.13556922E+00 0.20176037E+04</pdfrwt>
<pdfrwt beam="2">  1       -1 0.17767403E+00 0.20176037E+04</pdfrwt>
<totfact> 0.37782711E+00</totfact>
</mgrwt>
</event>
<event>
12    2  0.3555611E-008  0.1868028E+04  0.7818608E-02  0.8670937E-01
         -1   -1    0    0    0  501 -0.00000000000E+00  0.00000000000E+00  0.63016582016E+03  0.63016582016E+03  0.00000000000E+00 0.  1.
          1   -1    0    0  501    0  0.00000000000E+00 -0.00000000000E+00 -0.13843686345E+04  0.13843686345E+04  0.00000000000E+00 0. -1.
         23    2    1    2    0    0 -0.36915545108E+03  0.21274570454E+03 -0.90069847845E+03  0.10004300149E+04  0.89810822050E+02 0.  0.
        254    2    1    2    0    0  0.36915545108E+03 -0.21274570454E+03  0.14649566411E+03  0.10141044398E+04  0.90852097019E+03 0.  0.
         23    2    4    4    0    0 -0.46344249001E+02 -0.28653850408E+03 -0.27565914550E+03  0.41041856328E+03  0.90572230022E+02 0.  0.
         23    2    4    4    0    0  0.41549970008E+03  0.73792799542E+02  0.42215480961E+03  0.60368587647E+03  0.90202971902E+02 0.  0.
          3    1    3    3  502    0 -0.29521851056E+03  0.15069550366E+03 -0.76676170904E+03  0.83533623305E+03  0.00000000000E+00 0. -1.
         -3    1    3    3    0  502 -0.73936940524E+02  0.62050200880E+02 -0.13393676941E+03  0.16509378184E+03  0.00000000000E+00 0.  1.
         11    1    5    5    0    0 -0.14929350962E+01 -0.22618099073E+03 -0.22927063199E+03  0.32206380131E+03  0.00000000000E+00 0. -1.
        -11    1    5    5    0    0 -0.44851313905E+02 -0.60357513349E+02 -0.46388513515E+02  0.88354761970E+02  0.00000000000E+00 0.  1.
          3    1    6    6  503    0  0.29041778327E+03  0.37196819161E+02  0.34395946923E+03  0.45170145967E+03  0.00000000000E+00 0. -1.
         -3    1    6    6    0  503  0.12508191681E+03  0.36595980381E+02  0.78195340388E+02  0.15198441681E+03  0.00000000000E+00 0.  1.
<mgrwt>
<rscale>  0 0.18680276E+04</rscale>
<asrwt>0</asrwt>
<pdfrwt beam="1">  1        1 0.21297979E+00 0.18680276E+04</pdfrwt>
<pdfrwt beam="2">  1       -1 0.96948589E-01 0.18680276E+04</pdfrwt>
<totfact> 0.75613715E+00</totfact>
</mgrwt>
</event>
<event>
12    2  0.3555611E-008  0.2541811E+04  0.7818608E-02  0.8388240E-01
          2   -1    0    0  501    0  0.00000000000E+00  0.00000000000E+00  0.17938647935E+04  0.17938647935E+04  0.00000000000E+00 0. -1.
         -2   -1    0    0    0  501 -0.00000000000E+00 -0.00000000000E+00 -0.90040252519E+03  0.90040252519E+03  0.00000000000E+00 0.  1.
         23    2    1    2    0    0  0.52437059455E+03 -0.84297801111E+03  0.91621449895E+03  0.13536467356E+04  0.85638946737E+02 0.  0.
        254    2    1    2    0    0 -0.52437059455E+03  0.84297801111E+03 -0.22752230622E+02  0.13406205831E+04  0.90064945240E+03 0.  0.
         23    2    4    4    0    0 -0.33051332101E+03  0.53937601509E+03  0.41830003224E+03  0.76396612411E+03  0.92215946508E+02 0.  0.
         23    2    4    4    0    0 -0.19385727353E+03  0.30360199602E+03 -0.44105226286E+03  0.57665445896E+03  0.90820988639E+02 0.  0.
          3    1    3    3  502    0  0.36563564024E+03 -0.55503289950E+03  0.66150021569E+03  0.93772782634E+03  0.00000000000E+00 0. -1.
         -3    1    3    3    0  502  0.15873495431E+03 -0.28794511161E+03  0.25471428326E+03  0.41591890930E+03  0.00000000000E+00 0.  1.
         11    1    5    5    0    0 -0.32389883207E+03  0.49721330582E+03  0.36908819413E+03  0.69882588672E+03  0.00000000000E+00 0. -1.
        -11    1    5    5    0    0 -0.66144889391E+01  0.42162709275E+02  0.49211838107E+02  0.65140237390E+02  0.00000000000E+00 0.  1.
          1    1    6    6  503    0  0.41364479407E+01  0.37649564548E+02 -0.65679980973E+02  0.75818598067E+02  0.00000000000E+00 0. -1.
         -1    1    6    6    0  503 -0.19799372147E+03  0.26595243147E+03 -0.37537228189E+03  0.50083586090E+03  0.00000000000E+00 0.  1.
<mgrwt>
<rscale>  0 0.25418107E+04</rscale>
<asrwt>0</asrwt>
<pdfrwt beam="1">  1        2 0.27597920E+00 0.25418107E+04</pdfrwt>
<pdfrwt beam="2">  1       -2 0.13852347E+00 0.25418107E+04</pdfrwt>
<totfact> 0.28541094E+00</totfact>
</mgrwt>
</event>
<event>
12    2  0.3555611E-008  0.1706522E+04  0.7818608E-02  0.8757653E-01
          1   -1    0    0  501    0  0.00000000000E+00  0.00000000000E+00  0.12904007176E+04  0.12904007176E+04  0.00000000000E+00 0. -1.
         -1   -1    0    0    0  501 -0.00000000000E+00 -0.00000000000E+00 -0.56420792246E+03  0.56420792246E+03  0.00000000000E+00 0.  1.
         23    2    1    2    0    0 -0.52310945348E+03  0.31992274516E+03  0.24507852190E+03  0.66672285744E+03  0.91988170650E+02 0.  0.
        254    2    1    2    0    0  0.52310945348E+03 -0.31992274516E+03  0.48111427325E+03  0.11878857826E+04  0.89644164645E+03 0.  0.
         23    2    4    4    0    0  0.33434710299E+03 -0.59139335321E+03  0.13088474647E+03  0.69797385065E+03  0.92209521311E+02 0.  0.
         23    2    4    4    0    0  0.18876235049E+03  0.27147060805E+03  0.35022952678E+03  0.48991193200E+03  0.89584952370E+02 0.  0.
          3    1    3    3  502    0 -0.37935945779E+03  0.25640801690E+03  0.14453160399E+03  0.48015419804E+03  0.00000000000E+00 0. -1.
         -3    1    3    3    0  502 -0.14374999569E+03  0.63514728262E+02  0.10054691791E+03  0.18656865940E+03  0.00000000000E+00 0.  1.
         11    1    5    5    0    0  0.14558058773E+03 -0.17254178405E+03  0.31718507922E+02  0.22797025795E+03  0.00000000000E+00 0. -1.
        -11    1    5    5    0    0  0.18876651527E+03 -0.41885156916E+03  0.99166238553E+02  0.47000359269E+03  0.00000000000E+00 0.  1.
          4    1    6    6  503    0  0.68398785995E+01  0.59992779226E+02  0.38606685735E+02  0.71668638064E+02  0.00000000000E+00 0. -1.
         -4    1    6    6    0  503  0.18192247189E+03  0.21147782882E+03  0.31162284104E+03  0.41824329393E+03  0.00000000000E+00 0.  1.
<mgrwt>
<rscale>  0 0.17065220E+04</rscale>
<asrwt>0</asrwt>
<pdfrwt beam="1">  1        1 0.19852319E+00 0.17065220E+04</pdfrwt>
<pdfrwt beam="2">  1       -1 0.86801219E-01 0.17065220E+04</pdfrwt>
<totfact> 0.11432790E+01</totfact>
</mgrwt>
</event>
<event>
12    2  0.3555611E-008  0.2193751E+04  0.7818608E-02  0.8521033E-01
         -2   -1    0    0    0  501 -0.00000000000E+00  0.00000000000E+00  0.11578209479E+04  0.11578209479E+04  0.00000000000E+00 0.  1.
          2   -1    0    0  501    0  0.00000000000E+00 -0.00000000000E+00 -0.10391384928E+04  0.10391384928E+04  0.00000000000E+00 0. -1.
         23    2    1    2    0    0 -0.36029036196E+02  0.49523347662E+03 -0.71083233818E+03  0.87154632078E+03  0.88068657641E+02 0.  0.
        254    2    1    2    0    0  0.36029036196E+02 -0.49523347662E+03  0.82951479328E+03  0.13254131200E+04  0.90668123317E+03 0.  0.
         23    2    4    4    0    0 -0.36091972373E+03 -0.58788100808E+01  0.17147392773E+03  0.40968806314E+03  0.90240754664E+02 0.  0.
         23    2    4    4    0    0  0.39694875993E+03 -0.48935466654E+03  0.65804086555E+03  0.91572505686E+03  0.92186177684E+02 0.  0.
          4    1    3    3  502    0 -0.64508067360E+02  0.38666671485E+03 -0.55721674998E+03  0.68129505031E+03  0.00000000000E+00 0. -1.
         -4    1    3    3    0  502  0.28479031164E+02  0.10856676177E+03 -0.15361558820E+03  0.19025127047E+03  0.00000000000E+00 0.  1.
         11    1    5    5    0    0 -0.34635149589E+03 -0.25888700633E+02  0.16071492789E+03  0.38269945332E+03  0.00000000000E+00 0. -1.
        -11    1    5    5    0    0 -0.14568227837E+02  0.20009890552E+02  0.10758999843E+02  0.26988609817E+02  0.00000000000E+00 0.  1.
          4    1    6    6  503    0  0.38554095347E+03 -0.47557171585E+03  0.60905019783E+03  0.86356958446E+03  0.00000000000E+00 0. -1.
         -4    1    6    6    0  503  0.11407806456E+02 -0.13782950681E+02  0.48990667720E+02  0.52155472400E+02  0.00000000000E+00 0.  1.
<mgrwt>
<rscale>  0 0.21937514E+04</rscale>
<asrwt>0</asrwt>
<pdfrwt beam="1">  1        2 0.15986746E+00 0.21937514E+04</pdfrwt>
<pdfrwt beam="2">  1       -2 0.17812630E+00 0.21937514E+04</pdfrwt>
<totfact> 0.40626532E+00</totfact>
</mgrwt>
</event>
<event>
12    2  0.3555611E-008  0.2038952E+04  0.7818608E-02  0.8588623E-01
          2   -1    0    0  501    0  0.00000000000E+00  0.00000000000E+00  0.83110577483E+03  0.83110577483E+03  0.00000000000E+00 0.  1.
         -2   -1    0    0    0  501 -0.00000000000E+00 -0.00000000000E+00 -0.12505404710E+04  0.12505404710E+04  0.00000000000E+00 0. -1.
         23    2    1    2    0    0  0.26868334538E+03 -0.72818819356E+03  0.92184601015E+02  0.78697213336E+03  0.91533341964E+02 0.  0.
        254    2    1    2    0    0 -0.26868334538E+03  0.72818819356E+03 -0.51161929716E+03  0.12946741125E+04  0.90109820048E+03 0.  0.
         23    2    4    4    0    0 -0.13475303027E+03  0.87065926414E+03 -0.59083699532E+03  0.10646103483E+04  0.90005028678E+02 0.  0.
         23    2    4    4    0    0 -0.13393031511E+03 -0.14247107058E+03  0.79217698158E+02  0.23006376420E+03  0.91752692818E+02 0.  0.
          3    1    3    3  502    0  0.31733741803E+01 -0.17826958501E+02  0.17099246334E+02  0.24904918757E+02  0.00000000000E+00 0. -1.
         -3    1    3    3    0  502  0.26550997120E+03 -0.71036123506E+03  0.75085354681E+02  0.76206721460E+03  0.00000000000E+00 0.  1.
         11    1    5    5    0    0 -0.87478997544E+01  0.23297768497E+02 -0.36667525359E+02  0.44314999526E+02  0.00000000000E+00 0.  1.
        -11    1    5    5    0    0 -0.12600513051E+03  0.84736149564E+03 -0.55416946996E+03  0.10202953487E+04  0.00000000000E+00 0. -1.
          1    1    6    6  503    0 -0.12372561843E+03 -0.15326856170E+03  0.84446191719E+02  0.21431388186E+03  0.00000000000E+00 0. -1.
         -1    1    6    6    0  503 -0.10204696675E+02  0.10797491123E+02 -0.52284935604E+01  0.15749882339E+02  0.00000000000E+00 0.  1.
<mgrwt>
<rscale>  0 0.20389521E+04</rscale>
<asrwt>0</asrwt>
<pdfrwt beam="1">  1        2 0.12786243E+00 0.20389521E+04</pdfrwt>
<pdfrwt beam="2">  1       -2 0.19239084E+00 0.20389521E+04</pdfrwt>
<totfact> 0.45254784E+00</totfact>
</mgrwt>
</event>
<event>
12    2  0.3555611E-008  0.2633025E+04  0.7818608E-02  0.8357069E-01
         -1   -1    0    0    0  501 -0.00000000000E+00  0.00000000000E+00  0.11863164072E+04  0.11863164072E+04  0.00000000000E+00 0.  1.
          1   -1    0    0  501    0  0.00000000000E+00 -0.00000000000E+00 -0.14609973632E+04  0.14609973632E+04  0.00000000000E+00 0. -1.
         23    2    1    2    0    0  0.10119173593E+04 -0.10498067646E+01 -0.69416724616E+03  0.12303706751E+04  0.89252385887E+02 0.  0.
        254    2    1    2    0    0 -0.10119173593E+04  0.10498067646E+01  0.41948629018E+03  0.14169430952E+04  0.89876645652E+03 0.  0.
         23    2    4    4    0    0 -0.20566255900E+03 -0.89102561765E+02  0.53983479755E+03  0.59178925844E+03  0.92501692266E+02 0.  0.
         23    2    4    4    0    0 -0.80625480031E+03  0.90152368530E+02 -0.12034850737E+03  0.82515383681E+03  0.90668840279E+02 0.  0.
          4    1    3    3  502    0  0.21648423732E+03 -0.10398385266E+02 -0.19271692487E+03  0.29002304142E+03  0.00000000000E+00 0. -1.
         -4    1    3    3    0  502  0.79543312199E+03  0.93485785011E+01 -0.50145032128E+03  0.94034763370E+03  0.00000000000E+00 0.  1.
         11    1    5    5    0    0 -0.21605235047E+02  0.19177840851E+02  0.67779626961E+02  0.73679397338E+02  0.00000000000E+00 0. -1.
        -11    1    5    5    0    0 -0.18405732395E+03 -0.10828040262E+03  0.47205517059E+03  0.51810986110E+03  0.00000000000E+00 0.  1.
          1    1    6    6  503    0 -0.11849710981E+03 -0.16738627197E+02 -0.61366294920E+01  0.11983073436E+03  0.00000000000E+00 0. -1.
         -1    1    6    6    0  503 -0.68775769050E+03  0.10689099573E+03 -0.11421187788E+03  0.70532310245E+03  0.00000000000E+00 0.  1.
<mgrwt>
<rscale>  0 0.26330250E+04</rscale>
<asrwt>0</asrwt>
<pdfrwt beam="1">  1        1 0.22476883E+00 0.26330250E+04</pdfrwt>
<pdfrwt beam="2">  1       -1 0.18251022E+00 0.26330250E+04</pdfrwt>
<totfact> 0.12210861E+00</totfact>
</mgrwt>
</event>
<event>
12    2  0.3555611E-008  0.2418575E+04  0.7818608E-02  0.8432582E-01
         -1   -1    0    0    0  501 -0.00000000000E+00  0.00000000000E+00  0.21129474791E+04  0.21129474791E+04  0.00000000000E+00 0.  1.
          1   -1    0    0  501    0  0.00000000000E+00 -0.00000000000E+00 -0.69210224043E+03  0.69210224043E+03  0.00000000000E+00 0. -1.
         23    2    1    2    0    0 -0.60055977392E+03 -0.31422591666E+03  0.14053519805E+04  0.15630602007E+04  0.93450698890E+02 0.  0.
        254    2    1    2    0    0  0.60055977392E+03  0.31422591666E+03  0.15493258199E+02  0.12419895189E+04  0.10406190250E+04 0.  0.
         23    2    4    4    0    0 -0.65619940631E+02  0.92056625399E+02 -0.39613775962E+03  0.42269807706E+03  0.94700268550E+02 0.  0.
         23    2    4    4    0    0  0.66617971455E+03  0.22216929126E+03  0.41163101782E+03  0.81929144181E+03  0.92971854458E+02 0.  0.
          3    1    3    3  502    0 -0.23597694625E+03 -0.16069775318E+03  0.66373073468E+03  0.72252845978E+03  0.00000000000E+00 0. -1.
         -3    1    3    3    0  502 -0.36458282767E+03 -0.15352816348E+03  0.74162124584E+03  0.84053174092E+03  0.00000000000E+00 0.  1.
         11    1    5    5    0    0 -0.43566058414E+02  0.18859239667E+02 -0.27771658238E+03  0.28174487128E+03  0.00000000000E+00 0. -1.
        -11    1    5    5    0    0 -0.22053882217E+02  0.73197385732E+02 -0.11842117724E+03  0.14095320578E+03  0.00000000000E+00 0.  1.
          1    1    6    6  503    0  0.66789537219E+03  0.21709206472E+03  0.41141897295E+03  0.81392798457E+03  0.00000000000E+00 0. -1.
         -1    1    6    6    0  503 -0.17156576403E+01  0.50772265397E+01  0.21204486781E+00  0.53634572339E+01  0.00000000000E+00 0.  1.
<mgrwt>
<rscale>  0 0.24185745E+04</rscale>
<asrwt>0</asrwt>
<pdfrwt beam="1">  1        1 0.10647727E+00 0.24185745E+04</pdfrwt>
<pdfrwt beam="2">  1       -1 0.32506884E+00 0.24185745E+04</pdfrwt>
<totfact> 0.56254843E-01</totfact>
</mgrwt>
</event>
<event>
12    2  0.3555611E-008  0.1565498E+04  0.7818608E-02  0.8842029E-01
          1   -1    0    0  501    0  0.00000000000E+00  0.00000000000E+00  0.67510019085E+03  0.67510019085E+03  0.00000000000E+00 0. -1.
         -1   -1    0    0    0  501 -0.00000000000E+00 -0.00000000000E+00 -0.90756256048E+03  0.90756256048E+03  0.00000000000E+00 0.  1.
         23    2    1    2    0    0 -0.21394457220E+03 -0.35119118930E+03 -0.40568233317E+03  0.58311209070E+03  0.79586578391E+02 0.  0.
        254    2    1    2    0    0  0.21394457220E+03  0.35119118930E+03  0.17321996353E+03  0.99955066063E+03  0.89442095011E+03 0.  0.
         23    2    4    4    0    0  0.26323443757E+03 -0.23636819371E+03 -0.36571003075E+02  0.36716824394E+03  0.91174497356E+02 0.  0.
         23    2    4    4    0    0 -0.49289865379E+02  0.58755938300E+03  0.20979096661E+03  0.63238241670E+03  0.90773079123E+02 0.  0.
          4    1    3    3  502    0 -0.15530214268E+03 -0.18875689137E+03 -0.21137506468E+03  0.32315218942E+03  0.00000000000E+00 0. -1.
         -4    1    3    3    0  502 -0.58642429516E+02 -0.16243429793E+03 -0.19430726849E+03  0.25995990128E+03  0.00000000000E+00 0.  1.
         11    1    5    5    0    0  0.25646069114E+03 -0.19862058027E+03 -0.46132408692E+02  0.32764373966E+03  0.00000000000E+00 0.  1.
        -11    1    5    5    0    0  0.67737464313E+01 -0.37747613431E+02  0.95614056166E+01  0.39524504270E+02  0.00000000000E+00 0. -1.
          2    1    6    6  503    0  0.26639308323E+02  0.12366289222E+03  0.44125545310E+02  0.13397472676E+03  0.00000000000E+00 0. -1.
         -2    1    6    6    0  503 -0.75929173701E+02  0.46389649078E+03  0.16566542130E+03  0.49840768994E+03  0.00000000000E+00 0.  1.
<mgrwt>
<rscale>  0 0.15654976E+04</rscale>
<asrwt>0</asrwt>
<pdfrwt beam="1">  1        1 0.10386157E+00 0.15654976E+04</pdfrwt>
<pdfrwt beam="2">  1       -1 0.13962501E+00 0.15654976E+04</pdfrwt>
<totfact> 0.11691339E+01</totfact>
</mgrwt>
</event>
<event>
12    2  0.3555611E-008  0.1619549E+04  0.7818608E-02  0.8808628E-01
          4   -1    0    0  501    0  0.00000000000E+00  0.00000000000E+00  0.79137379344E+03  0.79137379344E+03  0.00000000000E+00 0.  1.
         -4   -1    0    0    0  501 -0.00000000000E+00 -0.00000000000E+00 -0.82860295268E+03  0.82860295268E+03  0.00000000000E+00 0. -1.
         23    2    1    2    0    0 -0.50228156169E+03  0.22587891430E+03 -0.49538928224E+01  0.55809177906E+03  0.90187813257E+02 0.  0.
        254    2    1    2    0    0  0.50228156169E+03 -0.22587891430E+03 -0.32275266413E+02  0.10618849671E+04  0.90733121808E+03 0.  0.
         23    2    4    4    0    0  0.40855278283E+03 -0.53247834077E+03  0.13223988419E+03  0.68996094296E+03  0.90056405101E+02 0.  0.
         23    2    4    4    0    0  0.93728778865E+02  0.30659942646E+03 -0.16451515060E+03  0.37192402409E+03  0.92054074467E+02 0.  0.
          3    1    3    3  502    0  0.11297772716E+01  0.24662711334E+01 -0.68084900360E+01  0.73290126591E+01  0.00000000000E+00 0. -1.
         -3    1    3    3    0  502 -0.50341133896E+03  0.22341264317E+03  0.18545972135E+01  0.55076276640E+03  0.00000000000E+00 0.  1.
         11    1    5    5    0    0  0.38849902608E+02 -0.10523198846E+03  0.21912041216E+02  0.11429446127E+03  0.00000000000E+00 0.  1.
        -11    1    5    5    0    0  0.36970288022E+03 -0.42724635231E+03  0.11032784297E+03  0.57566648169E+03  0.00000000000E+00 0. -1.
          2    1    6    6  503    0  0.69391727046E+02  0.29937216031E+03 -0.14445471226E+03  0.33956746906E+03  0.00000000000E+00 0. -1.
         -2    1    6    6    0  503  0.24337051819E+02  0.72272661574E+01 -0.20060438340E+02  0.32356555035E+02  0.00000000000E+00 0.  1.
<mgrwt>
<rscale>  0 0.16195489E+04</rscale>
<asrwt>0</asrwt>
<pdfrwt beam="1">  1        4 0.12174982E+00 0.16195489E+04</pdfrwt>
<pdfrwt beam="2">  1       -4 0.12747738E+00 0.16195489E+04</pdfrwt>
<totfact> 0.44461904E-01</totfact>
</mgrwt>
</event>
<event>
12    2  0.3555611E-008  0.1755064E+04  0.7818608E-02  0.8730568E-01
         -2   -1    0    0    0  501 -0.00000000000E+00  0.00000000000E+00  0.63139636091E+03  0.63139636091E+03  0.00000000000E+00 0.  1.
          2   -1    0    0  501    0  0.00000000000E+00 -0.00000000000E+00 -0.12196183765E+04  0.12196183765E+04  0.00000000000E+00 0. -1.
         23    2    1    2    0    0 -0.72879751763E+02 -0.64610576434E+02 -0.81531959851E+03  0.82609139717E+03  0.90526040178E+02 0.  0.
        254    2    1    2    0    0  0.72879751763E+02  0.64610576434E+02  0.22709758293E+03  0.10249233402E+04  0.99469018110E+03 0.  0.
         23    2    4    4    0    0 -0.40933283607E+03  0.12596779614E+03  0.28917347770E+03  0.52478818874E+03  0.91433508524E+02 0.  0.
         23    2    4    4    0    0  0.48221258784E+03 -0.61357219702E+02 -0.62075894777E+02  0.50013515150E+03  0.99940306052E+02 0.  0.
          3    1    3    3  502    0 -0.88597395121E+02 -0.56892971910E+02 -0.77518897656E+03  0.78230701010E+03  0.00000000000E+00 0. -1.
         -3    1    3    3    0  502  0.15717643358E+02 -0.77176045236E+01 -0.40130621952E+02  0.43784387065E+02  0.00000000000E+00 0.  1.
         11    1    5    5    0    0 -0.14917274593E+03  0.18402361520E+01  0.11048208725E+03  0.18563993698E+03  0.00000000000E+00 0.  1.
        -11    1    5    5    0    0 -0.26016009015E+03  0.12412755998E+03  0.17869139045E+03  0.33914825176E+03  0.00000000000E+00 0. -1.
          1    1    6    6  503    0  0.42707912612E+03 -0.66078979898E+02 -0.23729690291E+02  0.43281186415E+03  0.00000000000E+00 0. -1.
         -1    1    6    6    0  503  0.55133461718E+02  0.47217601962E+01 -0.38346204486E+02  0.67323287344E+02  0.00000000000E+00 0.  1.
<mgrwt>
<rscale>  0 0.17550642E+04</rscale>
<asrwt>0</asrwt>
<pdfrwt beam="1">  1        2 0.18763359E+00 0.17550642E+04</pdfrwt>
<pdfrwt beam="2">  1       -2 0.97137904E-01 0.17550642E+04</pdfrwt>
<totfact> 0.15454813E+01</totfact>
</mgrwt>
</event>
<event>
12    2  0.3555611E-008  0.3856165E+04  0.7818608E-02  0.8034208E-01
         -1   -1    0    0    0  501 -0.00000000000E+00  0.00000000000E+00  0.21339068847E+04  0.21339068847E+04  0.00000000000E+00 0.  1.
          1   -1    0    0  501    0  0.00000000000E+00 -0.00000000000E+00 -0.17421103272E+04  0.17421103272E+04  0.00000000000E+00 0. -1.
         23    2    1    2    0    0 -0.10980899890E+03  0.99531304994E+03  0.17156117023E+04  0.19885799304E+04  0.91763515476E+02 0.  0.
        254    2    1    2    0    0  0.10980899890E+03 -0.99531304994E+03 -0.13238151449E+04  0.18874372815E+04  0.89845805147E+03 0.  0.
         23    2    4    4    0    0 -0.27549931494E+03 -0.39477492181E+03 -0.96786816011E+03  0.10848762606E+04  0.91872814440E+02 0.  0.
         23    2    4    4    0    0  0.38530831384E+03 -0.60053812813E+03 -0.35594698479E+03  0.80256102093E+03  0.91090044986E+02 0.  0.
          4    1    3    3  502    0 -0.18176120456E+02  0.54191691219E+03  0.88710019997E+03  0.10396879704E+04  0.00000000000E+00 0. -1.
         -4    1    3    3    0  502 -0.91632878443E+02  0.45339613774E+03  0.82851150235E+03  0.94889195995E+03  0.00000000000E+00 0.  1.
         11    1    5    5    0    0 -0.27182408175E+03 -0.38020856178E+03 -0.88679713947E+03  0.10024250837E+04  0.00000000000E+00 0.  1.
        -11    1    5    5    0    0 -0.36752331929E+01 -0.14566360029E+02 -0.81071020637E+02  0.82451176891E+02  0.00000000000E+00 0. -1.
          3    1    6    6  503    0  0.28488157176E+02 -0.92718519065E+02 -0.67430171210E+02  0.11813181987E+03  0.00000000000E+00 0. -1.
         -3    1    6    6    0  503  0.35682015667E+03 -0.50781960906E+03 -0.28851681358E+03  0.68442920106E+03  0.00000000000E+00 0.  1.
<mgrwt>
<rscale>  0 0.38561645E+04</rscale>
<asrwt>0</asrwt>
<pdfrwt beam="1">  1        1 0.26801697E+00 0.38561645E+04</pdfrwt>
<pdfrwt beam="2">  1       -1 0.32829337E+00 0.38561645E+04</pdfrwt>
<totfact> 0.76295486E-02</totfact>
</mgrwt>
</event>
<event>
12    2  0.3555611E-008  0.2937431E+04  0.7818608E-02  0.8261827E-01
          1   -1    0    0  501    0  0.00000000000E+00  0.00000000000E+00  0.47168746556E+04  0.47168746556E+04  0.00000000000E+00 0. -1.
         -1   -1    0    0    0  501 -0.00000000000E+00 -0.00000000000E+00 -0.45732087769E+03  0.45732087769E+03  0.00000000000E+00 0.  1.
         23    2    1    2    0    0 -0.64205776121E+02  0.49189203410E+03  0.41052495376E+04  0.41361450232E+04  0.92421489459E+02 0.  0.
        254    2    1    2    0    0  0.64205776121E+02 -0.49189203410E+03  0.15430424028E+03  0.10380505101E+04  0.89869845222E+03 0.  0.
         23    2    4    4    0    0  0.32930698545E+03 -0.19026100693E+03 -0.24765453982E+03  0.46281102642E+03  0.90658334726E+02 0.  0.
         23    2    4    4    0    0 -0.26510120933E+03 -0.30163102717E+03  0.40195878010E+03  0.57523948367E+03  0.89831369468E+02 0.  0.
          2    1    3    3  502    0 -0.21058662982E+02  0.38852660104E+03  0.29689034749E+04  0.29942919414E+04  0.00000000000E+00 0. -1.
         -2    1    3    3    0  502 -0.43147113139E+02  0.10336543307E+03  0.11363460627E+04  0.11418530818E+04  0.00000000000E+00 0.  1.
         11    1    5    5    0    0  0.21325760392E+03 -0.11803713778E+03 -0.10548690315E+03  0.26559190173E+03  0.00000000000E+00 0. -1.
        -11    1    5    5    0    0  0.11604938152E+03 -0.72223869152E+02 -0.14216763667E+03  0.19721912469E+03  0.00000000000E+00 0.  1.
          4    1    6    6  503    0 -0.21369694561E+03 -0.22274762968E+03  0.35364873454E+03  0.46941486825E+03  0.00000000000E+00 0. -1.
         -4    1    6    6    0  503 -0.51404263715E+02 -0.78883397492E+02  0.48310045557E+02  0.10582461542E+03  0.00000000000E+00 0.  1.
<mgrwt>
<rscale>  0 0.29374310E+04</rscale>
<asrwt>0</asrwt>
<pdfrwt beam="1">  1        1 0.72567299E+00 0.29374310E+04</pdfrwt>
<pdfrwt beam="2">  1       -1 0.70357061E-01 0.29374310E+04</pdfrwt>
<totfact> 0.32960951E-02</totfact>
</mgrwt>
</event>
<event>
12    2  0.3555611E-008  0.1784712E+04  0.7818608E-02  0.8714472E-01
         -1   -1    0    0    0  501 -0.00000000000E+00  0.00000000000E+00  0.75796791758E+03  0.75796791758E+03  0.00000000000E+00 0.  1.
          1   -1    0    0  501    0  0.00000000000E+00 -0.00000000000E+00 -0.10505713550E+04  0.10505713550E+04  0.00000000000E+00 0. -1.
         23    2    1    2    0    0 -0.29231210638E+03  0.17008830568E+03 -0.68407860135E+03  0.76867451730E+03  0.92306995694E+02 0.  0.
        254    2    1    2    0    0  0.29231210638E+03 -0.17008830568E+03  0.39147516394E+03  0.10398647553E+04  0.90204739676E+03 0.  0.
         23    2    4    4    0    0 -0.27710817740E+03  0.35355022824E+02  0.30077689673E+03  0.42085197081E+03  0.92793965881E+02 0.  0.
         23    2    4    4    0    0  0.56942028378E+03 -0.20544332851E+03  0.90698267209E+02  0.61901278446E+03  0.92218386697E+02 0.  0.
          1    1    3    3  502    0 -0.23339243270E+03  0.16347005054E+03 -0.61387254737E+03  0.67678208419E+03  0.00000000000E+00 0. -1.
         -1    1    3    3    0  502 -0.58919673677E+02  0.66182551450E+01 -0.70206053982E+02  0.91892433111E+02  0.00000000000E+00 0.  1.
         11    1    5    5    0    0 -0.26959420273E+03  0.18723505470E+02  0.25495245741E+03  0.37152706408E+03  0.00000000000E+00 0. -1.
        -11    1    5    5    0    0 -0.75139746706E+01  0.16631517354E+02  0.45824439318E+02  0.49324906727E+02  0.00000000000E+00 0.  1.
          3    1    6    6  503    0  0.50207732597E+03 -0.20529681245E+03  0.62547122964E+02  0.54602249500E+03  0.00000000000E+00 0. -1.
         -3    1    6    6    0  503  0.67342957806E+02 -0.14651605884E+00  0.28151144245E+02  0.72990289460E+02  0.00000000000E+00 0.  1.
<mgrwt>
<rscale>  0 0.17847122E+04</rscale>
<asrwt>0</asrwt>
<pdfrwt beam="1">  1        1 0.16162636E+00 0.17847122E+04</pdfrwt>
<pdfrwt beam="2">  1       -1 0.11661045E+00 0.17847122E+04</pdfrwt>
<totfact> 0.86723065E+00</totfact>
</mgrwt>
</event>
<event>
12    2  0.3555611E-008  0.1748692E+04  0.7818608E-02  0.8734071E-01
          2   -1    0    0  501    0  0.00000000000E+00  0.00000000000E+00  0.10705039195E+04  0.10705039195E+04  0.00000000000E+00 0. -1.
         -2   -1    0    0    0  501 -0.00000000000E+00 -0.00000000000E+00 -0.71413182130E+03  0.71413182130E+03  0.00000000000E+00 0.  1.
         23    2    1    2    0    0 -0.68024157062E+02 -0.40664654255E+03 -0.35930824876E+03  0.55494914346E+03  0.94220155419E+02 0.  0.
        254    2    1    2    0    0  0.68024157062E+02  0.40664654255E+03  0.71568034692E+03  0.12296865973E+04  0.91101156529E+03 0.  0.
         23    2    4    4    0    0  0.76577185136E+02 -0.50810213807E+02 -0.17908432561E+03  0.22052547125E+03  0.90080767527E+02 0.  0.
         23    2    4    4    0    0 -0.85530280739E+01  0.45745675635E+03  0.89476467253E+03  0.10091611260E+04  0.91991961012E+02 0.  0.
          1    1    3    3  502    0 -0.46961997722E+01 -0.39197310243E+02 -0.36254150855E+01  0.39643751804E+02  0.00000000000E+00 0. -1.
         -1    1    3    3    0  502 -0.63327957290E+02 -0.36744923230E+03 -0.35568283368E+03  0.51530539165E+03  0.00000000000E+00 0.  1.
         11    1    5    5    0    0  0.57410327249E+02 -0.76330504360E+02 -0.14673872159E+03  0.17508439104E+03  0.00000000000E+00 0. -1.
        -11    1    5    5    0    0  0.19166857887E+02  0.25520290553E+02 -0.32345604023E+02  0.45441080212E+02  0.00000000000E+00 0.  1.
          1    1    6    6  503    0  0.15560994136E+02  0.39392407326E+03  0.70712129729E+03  0.80959177931E+03  0.00000000000E+00 0. -1.
         -1    1    6    6    0  503 -0.24114022210E+02  0.63532683093E+02  0.18764337524E+03  0.19956934674E+03  0.00000000000E+00 0.  1.
<mgrwt>
<rscale>  0 0.17486920E+04</rscale>
<asrwt>0</asrwt>
<pdfrwt beam="1">  1        2 0.16469291E+00 0.17486920E+04</pdfrwt>
<pdfrwt beam="2">  1       -2 0.10986643E+00 0.17486920E+04</pdfrwt>
<totfact> 0.14197163E+01</totfact>
</mgrwt>
</event>
<event>
12    2  0.3555611E-008  0.1999130E+04  0.7818608E-02  0.8607028E-01
         -2   -1    0    0    0  501 -0.00000000000E+00  0.00000000000E+00  0.67435201845E+03  0.67435201845E+03  0.00000000000E+00 0.  1.
          2   -1    0    0  501    0  0.00000000000E+00 -0.00000000000E+00 -0.14816145293E+04  0.14816145293E+04  0.00000000000E+00 0. -1.
         23    2    1    2    0    0 -0.30351387514E+03 -0.20866152079E+03 -0.10843166385E+04  0.11488483731E+04  0.91922298873E+02 0.  0.
        254    2    1    2    0    0  0.30351387514E+03  0.20866152079E+03  0.27705412773E+03  0.10071181746E+04  0.89547067253E+03 0.  0.
         23    2    4    4    0    0 -0.56142569929E+02 -0.27398777753E+03  0.26836892448E+03  0.39837003538E+03  0.91953874686E+02 0.  0.
         23    2    4    4    0    0  0.35965644507E+03  0.48264929832E+03  0.86852032467E+01  0.60874813927E+03  0.90530440521E+02 0.  0.
          1    1    3    3  502    0 -0.25667744952E+03 -0.14085953028E+03 -0.76632972363E+03  0.82035721834E+03  0.00000000000E+00 0. -1.
         -1    1    3    3    0  502 -0.46836425618E+02 -0.67801990513E+02 -0.31798691492E+03  0.32849115474E+03  0.00000000000E+00 0.  1.
         11    1    5    5    0    0 -0.11674633627E+02 -0.76196740701E+02  0.23745022464E+02  0.80660191269E+02  0.00000000000E+00 0.  1.
        -11    1    5    5    0    0 -0.44467936302E+02 -0.19779103683E+03  0.24462390201E+03  0.31770984411E+03  0.00000000000E+00 0. -1.
          1    1    6    6  503    0  0.26917460452E+03  0.29594452119E+03 -0.12135036100E+02  0.40023166597E+03  0.00000000000E+00 0. -1.
         -1    1    6    6    0  503  0.90481840543E+02  0.18670477713E+03  0.20820239347E+02  0.20851647330E+03  0.00000000000E+00 0.  1.
<mgrwt>
<rscale>  0 0.19991296E+04</rscale>
<asrwt>0</asrwt>
<pdfrwt beam="1">  1        2 0.22794069E+00 0.19991296E+04</pdfrwt>
<pdfrwt beam="2">  1       -2 0.10374647E+00 0.19991296E+04</pdfrwt>
<totfact> 0.91407184E+00</totfact>
</mgrwt>
</event>
<event>
12    2  0.3555611E-008  0.1638741E+04  0.7818608E-02  0.8797095E-01
          1   -1    0    0  501    0  0.00000000000E+00  0.00000000000E+00  0.13138949407E+04  0.13138949407E+04  0.00000000000E+00 0. -1.
         -1   -1    0    0    0  501 -0.00000000000E+00 -0.00000000000E+00 -0.51097520830E+03  0.51097520830E+03  0.00000000000E+00 0.  1.
         23    2    1    2    0    0 -0.13838140883E+03  0.54379929319E+03  0.35944872137E+03  0.67376942286E+03  0.99472439898E+02 0.  0.
        254    2    1    2    0    0  0.13838140883E+03 -0.54379929319E+03  0.44347101099E+03  0.11511007261E+04  0.90194193741E+03 0.  0.
         23    2    4    4    0    0  0.12590570200E+03 -0.66194199240E+02 -0.25152326837E+03  0.30267413580E+03  0.90076412795E+02 0.  0.
         23    2    4    4    0    0  0.12475706838E+02 -0.47760509395E+03  0.69499427936E+03  0.84842659030E+03  0.92457350984E+02 0.  0.
          4    1    3    3  502    0 -0.76323858330E+02  0.32929133481E+03  0.27231884480E+03  0.43406873623E+03  0.00000000000E+00 0. -1.
         -4    1    3    3    0  502 -0.62057550505E+02  0.21450795838E+03  0.87129876567E+02  0.23970068664E+03  0.00000000000E+00 0.  1.
         11    1    5    5    0    0  0.13274787774E+03 -0.41030335037E+02 -0.18611483557E+03  0.23225894914E+03  0.00000000000E+00 0. -1.
        -11    1    5    5    0    0 -0.68421757415E+01 -0.25163864204E+02 -0.65408432807E+02  0.70415186663E+02  0.00000000000E+00 0.  1.
          2    1    6    6  503    0 -0.40003535474E+02 -0.17548578566E+03  0.25624537094E+03  0.31314091708E+03  0.00000000000E+00 0. -1.
         -2    1    6    6    0  503  0.52479242312E+02 -0.30211930829E+03  0.43874890842E+03  0.53528567322E+03  0.00000000000E+00 0.  1.
<mgrwt>
<rscale>  0 0.16387407E+04</rscale>
<asrwt>0</asrwt>
<pdfrwt beam="1">  1        1 0.20213768E+00 0.16387407E+04</pdfrwt>
<pdfrwt beam="2">  1       -1 0.78611571E-01 0.16387407E+04</pdfrwt>
<totfact> 0.13692049E+01</totfact>
</mgrwt>
</event>
<event>
12    2  0.3555611E-008  0.2087714E+04  0.7818608E-02  0.8566675E-01
         -2   -1    0    0    0  501 -0.00000000000E+00  0.00000000000E+00  0.94704569637E+03  0.94704569637E+03  0.00000000000E+00 0.  1.
          2   -1    0    0  501    0  0.00000000000E+00 -0.00000000000E+00 -0.11505647167E+04  0.11505647167E+04  0.00000000000E+00 0. -1.
         23    2    1    2    0    0 -0.23756206420E+03  0.73710500071E+03  0.94002939697E+02  0.78526474981E+03  0.89692018594E+02 0.  0.
        254    2    1    2    0    0  0.23756206420E+03 -0.73710500071E+03 -0.29752195999E+03  0.13123456632E+04  0.10168442883E+04 0.  0.
         23    2    4    4    0    0  0.52541895371E+03 -0.41580613379E+03 -0.48545558190E+03  0.83290147443E+03  0.95383050309E+02 0.  0.
         23    2    4    4    0    0 -0.28785688951E+03 -0.32129886692E+03  0.18793362192E+03  0.47944418880E+03  0.91940922350E+02 0.  0.
          1    1    3    3  502    0 -0.38955137333E+02  0.47239569072E+02  0.15041166314E+02  0.63050109396E+02  0.00000000000E+00 0. -1.
         -1    1    3    3    0  502 -0.19860692687E+03  0.68986543164E+03  0.78961773383E+02  0.72221464041E+03  0.00000000000E+00 0.  1.
         11    1    5    5    0    0  0.34079219967E+03 -0.29632869027E+03 -0.37394651899E+03  0.58633268295E+03  0.00000000000E+00 0.  1.
        -11    1    5    5    0    0  0.18462675404E+03 -0.11947744352E+03 -0.11150906292E+03  0.24656879148E+03  0.00000000000E+00 0. -1.
          1    1    6    6  503    0 -0.94645396827E+02 -0.17123631713E+03  0.97731688947E+02  0.21870324751E+03  0.00000000000E+00 0. -1.
         -1    1    6    6    0  503 -0.19321149268E+03 -0.15006254979E+03  0.90201932970E+02  0.26074094129E+03  0.00000000000E+00 0.  1.
<mgrwt>
<rscale>  0 0.20877139E+04</rscale>
<asrwt>0</asrwt>
<pdfrwt beam="1">  1        2 0.17700996E+00 0.20877139E+04</pdfrwt>
<pdfrwt beam="2">  1       -2 0.14569934E+00 0.20877139E+04</pdfrwt>
<totfact> 0.60552957E+00</totfact>
</mgrwt>
</event>
<event>
12    2  0.3555611E-008  0.2362081E+04  0.7818608E-02  0.8453838E-01
         -1   -1    0    0    0  501 -0.00000000000E+00  0.00000000000E+00  0.10245275559E+04  0.10245275559E+04  0.00000000000E+00 0.  1.
          1   -1    0    0  501    0  0.00000000000E+00 -0.00000000000E+00 -0.13614631730E+04  0.13614631730E+04  0.00000000000E+00 0. -1.
         23    2    1    2    0    0  0.17283197959E+03  0.79142562326E+03  0.46034880806E+03  0.93624968839E+03  0.91744447296E+02 0.  0.
        254    2    1    2    0    0 -0.17283197959E+03 -0.79142562326E+03 -0.79728442514E+03  0.14497410405E+04  0.89992289642E+03 0.  0.
         23    2    4    4    0    0 -0.26961819841E+03 -0.89505580527E+03 -0.85632372853E+03  0.12710580711E+04  0.92083791628E+02 0.  0.
         23    2    4    4    0    0  0.96786218825E+02  0.10363018201E+03  0.59039303389E+02  0.17868296933E+03  0.91297192753E+02 0.  0.
          2    1    3    3  502    0  0.10405129326E+03  0.41114354891E+03  0.29087487402E+03  0.51427024197E+03  0.00000000000E+00 0.  1.
         -2    1    3    3    0  502  0.68780686331E+02  0.38028207435E+03  0.16947393404E+03  0.42197944642E+03  0.00000000000E+00 0. -1.
         11    1    5    5    0    0  0.16358256609E+01 -0.60487550700E+02 -0.72428882273E+02  0.94378825499E+02  0.00000000000E+00 0.  1.
        -11    1    5    5    0    0 -0.27125402408E+03 -0.83456825457E+03 -0.78389484626E+03  0.11766792456E+04  0.00000000000E+00 0. -1.
          2    1    6    6  503    0  0.94263173525E+02  0.48702323578E+02  0.12859548589E+02  0.10687764123E+03  0.00000000000E+00 0. -1.
         -2    1    6    6    0  503  0.25230453000E+01  0.54927858435E+02  0.46179754800E+02  0.71805328098E+02  0.00000000000E+00 0.  1.
<mgrwt>
<rscale>  0 0.23620809E+04</rscale>
<asrwt>0</asrwt>
<pdfrwt beam="1">  1        1 0.20945587E+00 0.23620809E+04</pdfrwt>
<pdfrwt beam="2">  1       -1 0.15761962E+00 0.23620809E+04</pdfrwt>
<totfact> 0.22407019E+00</totfact>
</mgrwt>
</event>
<event>
12    2  0.3555611E-008  0.2058724E+04  0.7818608E-02  0.8579647E-01
         -2   -1    0    0    0  501 -0.00000000000E+00  0.00000000000E+00  0.69598282223E+03  0.69598282223E+03  0.00000000000E+00 0. -1.
          2   -1    0    0  501    0  0.00000000000E+00 -0.00000000000E+00 -0.15224320704E+04  0.15224320704E+04  0.00000000000E+00 0.  1.
         23    2    1    2    0    0  0.32855603320E+03  0.16919430668E+03 -0.11434736684E+04  0.12052041408E+04  0.91701745788E+02 0.  0.
        254    2    1    2    0    0 -0.32855603320E+03 -0.16919430668E+03  0.31702442025E+03  0.10132107519E+04  0.88854699612E+03 0.  0.
         23    2    4    4    0    0 -0.53461123574E+03  0.93889314699E+02  0.36913311300E+03  0.66313167601E+03  0.94127508334E+02 0.  0.
         23    2    4    4    0    0  0.20605520253E+03 -0.26308362138E+03 -0.52108692755E+02  0.35007907586E+03  0.90378676507E+02 0.  0.
          1    1    3    3  502    0  0.12485678719E+03  0.50714256484E+02 -0.28977834346E+03  0.31958197925E+03  0.00000000000E+00 0. -1.
         -1    1    3    3    0  502  0.20369924601E+03  0.11848005019E+03 -0.85369532496E+03  0.88562216153E+03  0.00000000000E+00 0.  1.
         11    1    5    5    0    0 -0.16911318970E+03 -0.11676597858E+02  0.13191178661E+03  0.21479369943E+03  0.00000000000E+00 0.  1.
        -11    1    5    5    0    0 -0.36549804604E+03  0.10556591256E+03  0.23722132639E+03  0.44833797659E+03  0.00000000000E+00 0. -1.
          3    1    6    6  503    0  0.97475058910E+02 -0.18142905947E+03 -0.41250534117E+01  0.20599734658E+03  0.00000000000E+00 0. -1.
         -3    1    6    6    0  503  0.10858014362E+03 -0.81654561903E+02 -0.47983639343E+02  0.14408172928E+03  0.00000000000E+00 0.  1.
<mgrwt>
<rscale>  0 0.20587244E+04</rscale>
<asrwt>0</asrwt>
<pdfrwt beam="1">  1        2 0.23422032E+00 0.20587244E+04</pdfrwt>
<pdfrwt beam="2">  1       -2 0.10707428E+00 0.20587244E+04</pdfrwt>
<totfact> 0.79955038E+00</totfact>
</mgrwt>
</event>
<event>
12    2  0.3555611E-008  0.1400283E+04  0.7818608E-02  0.8953614E-01
         -2   -1    0    0    0  501 -0.00000000000E+00  0.00000000000E+00  0.18744319946E+03  0.18744319946E+03  0.00000000000E+00 0.  1.
          2   -1    0    0  501    0  0.00000000000E+00 -0.00000000000E+00 -0.26151803783E+04  0.26151803783E+04  0.00000000000E+00 0. -1.
         23    2    1    2    0    0 -0.70164306439E+02 -0.40000611427E+03 -0.72882137061E+03  0.83932570832E+03  0.91428294458E+02 0.  0.
        254    2    1    2    0    0  0.70164306439E+02  0.40000611427E+03 -0.16989158082E+04  0.19632978694E+04  0.89626763826E+03 0.  0.
         23    2    4    4    0    0 -0.32166321006E+03 -0.53891491711E+02 -0.88776924611E+03  0.95048971549E+03  0.94471960552E+02 0.  0.
         23    2    4    4    0    0  0.39182751650E+03  0.45389760598E+03 -0.81114656210E+03  0.10128081539E+04  0.90938287284E+02 0.  0.
          3    1    3    3  502    0 -0.69413739256E+02 -0.23213038333E+03 -0.35808669860E+03  0.43235270993E+03  0.00000000000E+00 0. -1.
         -3    1    3    3    0  502 -0.75056718305E+00 -0.16787573094E+03 -0.37073467201E+03  0.40697299839E+03  0.00000000000E+00 0.  1.
         11    1    5    5    0    0 -0.90027781100E+01 -0.77437162179E+01 -0.11468092001E+03  0.11529409599E+03  0.00000000000E+00 0.  1.
        -11    1    5    5    0    0 -0.31266043195E+03 -0.46147775493E+02 -0.77308832609E+03  0.83519561950E+03  0.00000000000E+00 0. -1.
          3    1    6    6  503    0  0.25234645050E+03  0.22719052154E+03 -0.47964043592E+03  0.58766419997E+03  0.00000000000E+00 0. -1.
         -3    1    6    6    0  503  0.13948106600E+03  0.22670708444E+03 -0.33150612619E+03  0.42514395398E+03  0.00000000000E+00 0.  1.
<mgrwt>
<rscale>  0 0.14002825E+04</rscale>
<asrwt>0</asrwt>
<pdfrwt beam="1">  1        2 0.40233542E+00 0.14002825E+04</pdfrwt>
<pdfrwt beam="2">  1       -2 0.28837417E-01 0.14002825E+04</pdfrwt>
<totfact> 0.32179287E+01</totfact>
</mgrwt>
</event>
<event>
12    2  0.3555611E-008  0.1702623E+04  0.7818608E-02  0.8759870E-01
         -2   -1    0    0    0  501 -0.00000000000E+00  0.00000000000E+00  0.46235618633E+03  0.46235618633E+03  0.00000000000E+00 0.  1.
          2   -1    0    0  501    0  0.00000000000E+00 -0.00000000000E+00 -0.15674747878E+04  0.15674747878E+04  0.00000000000E+00 0. -1.
         23    2    1    2    0    0  0.35059292713E+03 -0.19569071853E+03  0.10245156189E+03  0.42407682039E+03  0.90191846582E+02 0.  0.
        254    2    1    2    0    0 -0.35059292713E+03  0.19569071853E+03 -0.12075701634E+04  0.16057541538E+04  0.97929078673E+03 0.  0.
         23    2    4    4    0    0 -0.67834887685E+02  0.36739080484E+03 -0.37406907707E+02  0.38629027475E+03  0.90792753865E+02 0.  0.
         23    2    4    4    0    0 -0.28275803944E+03 -0.17170008631E+03 -0.11701632557E+04  0.12194638790E+04  0.91526382991E+02 0.  0.
          2    1    3    3  502    0  0.68530081538E+02 -0.81270653505E+02  0.14884744747E+02  0.10734452395E+03  0.00000000000E+00 0. -1.
         -2    1    3    3    0  502  0.28206284559E+03 -0.11442006502E+03  0.87566817144E+02  0.31673229644E+03  0.00000000000E+00 0.  1.
         11    1    5    5    0    0 -0.37746650060E+02  0.23317281046E+03 -0.67138430261E+02  0.24556452909E+03  0.00000000000E+00 0.  1.
        -11    1    5    5    0    0 -0.30088237624E+02  0.13421799438E+03  0.29731522554E+02  0.14072574566E+03  0.00000000000E+00 0. -1.
          1    1    6    6  503    0 -0.18161032653E+03 -0.12008517440E+03 -0.60444770879E+03  0.64246384527E+03  0.00000000000E+00 0. -1.
         -1    1    6    6    0  503 -0.10114771291E+03 -0.51614911907E+02 -0.56571554689E+03  0.57700003376E+03  0.00000000000E+00 0.  1.
<mgrwt>
<rscale>  0 0.17026235E+04</rscale>
<asrwt>0</asrwt>
<pdfrwt beam="1">  1        2 0.24114996E+00 0.17026235E+04</pdfrwt>
<pdfrwt beam="2">  1       -2 0.71131723E-01 0.17026235E+04</pdfrwt>
<totfact> 0.19856302E+01</totfact>
</mgrwt>
</event>
<event>
12    2  0.3555611E-008  0.2274322E+04  0.7818608E-02  0.8488115E-01
          2   -1    0    0  501    0  0.00000000000E+00  0.00000000000E+00  0.18320546149E+04  0.18320546149E+04  0.00000000000E+00 0. -1.
         -2   -1    0    0    0  501 -0.00000000000E+00 -0.00000000000E+00 -0.70583869332E+03  0.70583869332E+03  0.00000000000E+00 0.  1.
         23    2    1    2    0    0 -0.71490123495E+03 -0.70709849755E+01 -0.23455812725E+03  0.75767667349E+03  0.89009280031E+02 0.  0.
        254    2    1    2    0    0  0.71490123495E+03  0.70709849755E+01  0.13607740488E+04  0.17802166347E+04  0.89795962048E+03 0.  0.
         23    2    4    4    0    0  0.19748006568E+03  0.42444172901E+03  0.55652823379E+03  0.73301960255E+03  0.91896164601E+02 0.  0.
         23    2    4    4    0    0  0.51742116927E+03 -0.41737074403E+03  0.80424581503E+03  0.10471970322E+04  0.88810409194E+02 0.  0.
          1    1    3    3  502    0 -0.20633238743E+02  0.11774447572E+02  0.23177217672E+01  0.23869226858E+02  0.00000000000E+00 0. -1.
         -1    1    3    3    0  502 -0.69426799621E+03 -0.18845432547E+02 -0.23687584902E+03  0.73380744663E+03  0.00000000000E+00 0.  1.
         11    1    5    5    0    0  0.29546019298E+02  0.10093191852E+03  0.18332140807E+03  0.21134558923E+03  0.00000000000E+00 0. -1.
        -11    1    5    5    0    0  0.16793404638E+03  0.32350981048E+03  0.37320682572E+03  0.52167401332E+03  0.00000000000E+00 0.  1.
          2    1    6    6  503    0  0.16495179403E+03 -0.13144652796E+03  0.19314854607E+03  0.28599588269E+03  0.00000000000E+00 0. -1.
         -2    1    6    6    0  503  0.35246937524E+03 -0.28592421607E+03  0.61109726897E+03  0.76120114947E+03  0.00000000000E+00 0.  1.
<mgrwt>
<rscale>  0 0.22743219E+04</rscale>
<asrwt>0</asrwt>
<pdfrwt beam="1">  1        2 0.28185455E+00 0.22743219E+04</pdfrwt>
<pdfrwt beam="2">  1       -2 0.10859057E+00 0.22743219E+04</pdfrwt>
<totfact> 0.51007488E+00</totfact>
</mgrwt>
</event>
<event>
12    2  0.3555611E-008  0.1751781E+04  0.7818608E-02  0.8732371E-01
          2   -1    0    0  501    0  0.00000000000E+00  0.00000000000E+00  0.20304238045E+04  0.20304238045E+04  0.00000000000E+00 0. -1.
         -2   -1    0    0    0  501 -0.00000000000E+00 -0.00000000000E+00 -0.37784432391E+03  0.37784432391E+03  0.00000000000E+00 0.  1.
         23    2    1    2    0    0  0.46579864876E+03 -0.24754228614E+03  0.11046037396E+04  0.12274591608E+04  0.90890071907E+02 0.  0.
        254    2    1    2    0    0 -0.46579864876E+03  0.24754228614E+03  0.54797574099E+03  0.11808089676E+04  0.90320918992E+03 0.  0.
         23    2    4    4    0    0 -0.42354536652E+03  0.52160798974E+03  0.57388250870E+03  0.88766979127E+03  0.84563302274E+02 0.  0.
         23    2    4    4    0    0 -0.42253282244E+02 -0.27406570360E+03 -0.25906767705E+02  0.29313917638E+03  0.91444334789E+02 0.  0.
          2    1    3    3  502    0  0.12280969249E+03 -0.64148085651E+02  0.20561343733E+03  0.24793967628E+03  0.00000000000E+00 0.  1.
         -2    1    3    3    0  502  0.34298895627E+03 -0.18339420049E+03  0.89899030230E+03  0.97951948450E+03  0.00000000000E+00 0. -1.
         11    1    5    5    0    0 -0.36265650141E+03  0.40108982975E+03  0.43521157937E+03  0.69411952022E+03  0.00000000000E+00 0. -1.
        -11    1    5    5    0    0 -0.60888865113E+02  0.12051815999E+03  0.13867092933E+03  0.19355027105E+03  0.00000000000E+00 0.  1.
          3    1    6    6  503    0 -0.60130599240E+02 -0.14146320665E+03 -0.39332934979E+02  0.15866507988E+03  0.00000000000E+00 0. -1.
         -3    1    6    6    0  503  0.17877316996E+02 -0.13260249695E+03  0.13426167274E+02  0.13447409649E+03  0.00000000000E+00 0.  1.
<mgrwt>
<rscale>  0 0.17517809E+04</rscale>
<asrwt>0</asrwt>
<pdfrwt beam="1">  1        2 0.31237289E+00 0.17517809E+04</pdfrwt>
<pdfrwt beam="2">  1       -2 0.58129897E-01 0.17517809E+04</pdfrwt>
<totfact> 0.16862594E+01</totfact>
</mgrwt>
</event>
<event>
12    2  0.3555611E-008  0.1506271E+04  0.7818608E-02  0.8880293E-01
          2   -1    0    0  501    0  0.00000000000E+00  0.00000000000E+00  0.69941079525E+03  0.69941079525E+03  0.00000000000E+00 0. -1.
         -2   -1    0    0    0  501 -0.00000000000E+00 -0.00000000000E+00 -0.81098734570E+03  0.81098734570E+03  0.00000000000E+00 0.  1.
         23    2    1    2    0    0  0.34642930403E+03 -0.16969094492E+03  0.24497390829E+03  0.46581702474E+03  0.90360419015E+02 0.  0.
        254    2    1    2    0    0 -0.34642930403E+03  0.16969094492E+03 -0.35655045874E+03  0.10445811162E+04  0.90289157668E+03 0.  0.
         23    2    4    4    0    0 -0.57883947729E+03  0.15295518278E+03  0.41960443642E+01  0.60585652805E+03  0.92704354699E+02 0.  0.
         23    2    4    4    0    0  0.23241017326E+03  0.16735762134E+02 -0.36074650311E+03  0.43872458816E+03  0.89703123600E+02 0.  0.
          4    1    3    3  502    0  0.30591184672E+03 -0.11739857266E+03  0.22200143538E+03  0.39578923701E+03  0.00000000000E+00 0. -1.
         -4    1    3    3    0  502  0.40517457312E+02 -0.52292372259E+02  0.22972472911E+02  0.70027787735E+02  0.00000000000E+00 0.  1.
         11    1    5    5    0    0 -0.78820006341E+02  0.28791325515E+02  0.32227365270E+02  0.89889581692E+02  0.00000000000E+00 0. -1.
        -11    1    5    5    0    0 -0.50001947095E+03  0.12416385727E+03 -0.28031320906E+02  0.51596694636E+03  0.00000000000E+00 0.  1.
          4    1    6    6  503    0  0.19307056886E+03 -0.20305107995E+02 -0.26101031944E+03  0.32529206695E+03  0.00000000000E+00 0.  1.
         -4    1    6    6    0  503  0.39339604402E+02  0.37040870129E+02 -0.99736183669E+02  0.11343252121E+03  0.00000000000E+00 0. -1.
<mgrwt>
<rscale>  0 0.15062713E+04</rscale>
<asrwt>0</asrwt>
<pdfrwt beam="1">  1        2 0.10760166E+00 0.15062713E+04</pdfrwt>
<pdfrwt beam="2">  1       -2 0.12476728E+00 0.15062713E+04</pdfrwt>
<totfact> 0.19078146E+01</totfact>
</mgrwt>
</event>
<event>
12    2  0.3555611E-008  0.2715662E+04  0.7818608E-02  0.8329941E-01
         -2   -1    0    0    0  501 -0.00000000000E+00  0.00000000000E+00  0.86970907584E+03  0.86970907584E+03  0.00000000000E+00 0.  1.
          2   -1    0    0  501    0  0.00000000000E+00 -0.00000000000E+00 -0.21199104847E+04  0.21199104847E+04  0.00000000000E+00 0. -1.
         23    2    1    2    0    0 -0.21015142733E+03  0.45392714395E+03 -0.17621627958E+04  0.18340713949E+04  0.91578863028E+02 0.  0.
        254    2    1    2    0    0  0.21015142733E+03 -0.45392714395E+03  0.51196138692E+03  0.11555481657E+04  0.90717893886E+03 0.  0.
         23    2    4    4    0    0  0.46001054293E+03 -0.21057100303E+03 -0.17707990558E+02  0.51426311380E+03  0.90571134254E+02 0.  0.
         23    2    4    4    0    0 -0.24985911560E+03 -0.24335614092E+03  0.52966937748E+03  0.64128505189E+03  0.95105622158E+02 0.  0.
          4    1    3    3  502    0 -0.17934444882E+03  0.28451678363E+03 -0.11589765315E+04  0.12067894730E+04  0.00000000000E+00 0. -1.
         -4    1    3    3    0  502 -0.30806978508E+02  0.16941036032E+03 -0.60318626429E+03  0.62728192190E+03  0.00000000000E+00 0.  1.
         11    1    5    5    0    0  0.26270979570E+03 -0.16829452805E+03 -0.39942391018E+01  0.31201833099E+03  0.00000000000E+00 0. -1.
        -11    1    5    5    0    0  0.19730074723E+03 -0.42276474985E+02 -0.13713751457E+02  0.20224478281E+03  0.00000000000E+00 0.  1.
          3    1    6    6  503    0  0.62036643641E+01 -0.17367403114E+01  0.25880743146E+02  0.26670481515E+02  0.00000000000E+00 0. -1.
         -3    1    6    6    0  503 -0.25606277997E+03 -0.24161940060E+03  0.50378863433E+03  0.61461457037E+03  0.00000000000E+00 0.  1.
<mgrwt>
<rscale>  0 0.27156623E+04</rscale>
<asrwt>0</asrwt>
<pdfrwt beam="1">  1        2 0.32614007E+00 0.27156623E+04</pdfrwt>
<pdfrwt beam="2">  1       -2 0.13380140E+00 0.27156623E+04</pdfrwt>
<totfact> 0.20252232E+00</totfact>
</mgrwt>
</event>
<event>
12    2  0.3555611E-008  0.1477290E+04  0.7818608E-02  0.8899697E-01
          2   -1    0    0  501    0  0.00000000000E+00  0.00000000000E+00  0.92971824789E+03  0.92971824789E+03  0.00000000000E+00 0.  1.
         -2   -1    0    0    0  501 -0.00000000000E+00 -0.00000000000E+00 -0.58684089757E+03  0.58684089757E+03  0.00000000000E+00 0. -1.
         23    2    1    2    0    0 -0.43281693218E+03  0.33771595937E+02  0.26321525477E+03  0.51600505778E+03  0.92238450989E+02 0.  0.
        254    2    1    2    0    0  0.43281693218E+03 -0.33771595937E+02  0.79662095554E+02  0.10005540877E+04  0.89793731153E+03 0.  0.
         23    2    4    4    0    0 -0.22128728596E+02  0.23002199845E+03 -0.26672807912E+03  0.36461959383E+03  0.91672131060E+02 0.  0.
         23    2    4    4    0    0  0.45494566077E+03 -0.26379359439E+03  0.34639017468E+03  0.63593449386E+03  0.88678704705E+02 0.  0.
          1    1    3    3  502    0 -0.28909958054E+02  0.16128600154E+02 -0.84944842348E+00  0.33115539860E+02  0.00000000000E+00 0. -1.
         -1    1    3    3    0  502 -0.40390697412E+03  0.17642995784E+02  0.26406470319E+03  0.48288951792E+03  0.00000000000E+00 0.  1.
         11    1    5    5    0    0 -0.17190928495E+02  0.20125477826E+03 -0.17135538027E+03  0.26488050163E+03  0.00000000000E+00 0. -1.
        -11    1    5    5    0    0 -0.49378001014E+01  0.28767220188E+02 -0.95372698849E+02  0.99739092200E+02  0.00000000000E+00 0.  1.
          4    1    6    6  503    0  0.38839745012E+03 -0.25847739412E+03  0.30446270279E+03  0.55710024225E+03  0.00000000000E+00 0. -1.
         -4    1    6    6    0  503  0.66548210654E+02 -0.53162002627E+01  0.41927471888E+02  0.78834251601E+02  0.00000000000E+00 0.  1.
<mgrwt>
<rscale>  0 0.14772903E+04</rscale>
<asrwt>0</asrwt>
<pdfrwt beam="1">  1        2 0.14303358E+00 0.14772903E+04</pdfrwt>
<pdfrwt beam="2">  1       -2 0.90283215E-01 0.14772903E+04</pdfrwt>
<totfact> 0.28442839E+01</totfact>
</mgrwt>
</event>
<event>
12    2  0.3555611E-008  0.2807855E+04  0.7818608E-02  0.8300834E-01
          2   -1    0    0  501    0  0.00000000000E+00  0.00000000000E+00  0.18589876592E+04  0.18589876592E+04  0.00000000000E+00 0. -1.
         -2   -1    0    0    0  501 -0.00000000000E+00 -0.00000000000E+00 -0.10602609267E+04  0.10602609267E+04  0.00000000000E+00 0.  1.
         23    2    1    2    0    0 -0.32699737775E+03  0.31732098376E+03 -0.86144779787E+03  0.97930702213E+03  0.96592149581E+02 0.  0.
        254    2    1    2    0    0  0.32699737775E+03 -0.31732098376E+03  0.16601745304E+04  0.19399415638E+04  0.89418896633E+03 0.  0.
         23    2    4    4    0    0 -0.11112041823E+03  0.43473399395E+02 -0.32777885209E+02  0.15233018455E+03  0.88839245632E+02 0.  0.
         23    2    4    4    0    0  0.43811779598E+03 -0.36079438315E+03  0.16929524156E+04  0.17876113792E+04  0.85713309183E+02 0.  0.
          3    1    3    3  502    0  0.69058729645E+01  0.85653463010E+01 -0.20422185027E+02  0.23197454169E+02  0.00000000000E+00 0. -1.
         -3    1    3    3    0  502 -0.33390325071E+03  0.30875563746E+03 -0.84102561284E+03  0.95610956796E+03  0.00000000000E+00 0.  1.
         11    1    5    5    0    0 -0.11178128088E+03  0.72929153423E+01 -0.30374208243E+02  0.11606392160E+03  0.00000000000E+00 0.  1.
        -11    1    5    5    0    0  0.66086265415E+00  0.36180484053E+02 -0.24036769664E+01  0.36266262955E+02  0.00000000000E+00 0. -1.
          1    1    6    6  503    0  0.22751193276E+03 -0.23748301825E+03  0.10251607048E+04  0.10766217229E+04  0.00000000000E+00 0.  1.
         -1    1    6    6    0  503  0.21060586322E+03 -0.12331136490E+03  0.66779171081E+03  0.71098965630E+03  0.00000000000E+00 0. -1.
<mgrwt>
<rscale>  0 0.28078547E+04</rscale>
<asrwt>0</asrwt>
<pdfrwt beam="1">  1        2 0.28599810E+00 0.28078547E+04</pdfrwt>
<pdfrwt beam="2">  1       -2 0.16311707E+00 0.28078547E+04</pdfrwt>
<totfact> 0.16629329E+00</totfact>
</mgrwt>
</event>
<event>
12    2  0.3555611E-008  0.2197644E+04  0.7818608E-02  0.8519409E-01
          2   -1    0    0  501    0  0.00000000000E+00  0.00000000000E+00  0.98559049923E+03  0.98559049923E+03  0.00000000000E+00 0. -1.
         -2   -1    0    0    0  501 -0.00000000000E+00 -0.00000000000E+00 -0.12250628356E+04  0.12250628356E+04  0.00000000000E+00 0.  1.
         23    2    1    2    0    0 -0.30414630529E+03  0.46488991328E+03  0.62590586339E+03  0.84183563055E+03  0.91112417070E+02 0.  0.
        254    2    1    2    0    0  0.30414630529E+03 -0.46488991328E+03 -0.86537819978E+03  0.13688177043E+04  0.90341290254E+03 0.  0.
         23    2    4    4    0    0  0.51071680341E+03 -0.22488828222E+03 -0.87280010027E+03  0.10398725906E+04  0.90269578732E+02 0.  0.
         23    2    4    4    0    0 -0.20657049812E+03 -0.24000163107E+03  0.74219004892E+01  0.32894511372E+03  0.88756124468E+02 0.  0.
          1    1    3    3  502    0 -0.28366856820E+03  0.39448557918E+03  0.50774622595E+03  0.70277518364E+03  0.00000000000E+00 0. -1.
         -1    1    3    3    0  502 -0.20477737092E+02  0.70404334105E+02  0.11815963744E+03  0.13906044692E+03  0.00000000000E+00 0.  1.
         11    1    5    5    0    0  0.38169284322E+03 -0.14836634137E+03 -0.70051041759E+03  0.81142888966E+03  0.00000000000E+00 0.  1.
        -11    1    5    5    0    0  0.12902396019E+03 -0.76521940844E+02 -0.17228968268E+03  0.22844370093E+03  0.00000000000E+00 0. -1.
          1    1    6    6  503    0 -0.35931632468E+02 -0.46379065848E+02  0.36705038455E+02  0.69205200734E+02  0.00000000000E+00 0. -1.
         -1    1    6    6    0  503 -0.17063886565E+03 -0.19362256522E+03 -0.29283137965E+02  0.25973991299E+03  0.00000000000E+00 0.  1.
<mgrwt>
<rscale>  0 0.21976445E+04</rscale>
<asrwt>0</asrwt>
<pdfrwt beam="1">  1        2 0.15162931E+00 0.21976445E+04</pdfrwt>
<pdfrwt beam="2">  1       -2 0.18847121E+00 0.21976445E+04</pdfrwt>
<totfact> 0.37331512E+00</totfact>
</mgrwt>
</event>
<event>
12    2  0.3555611E-008  0.2204651E+04  0.7818608E-02  0.8516495E-01
          2   -1    0    0  501    0  0.00000000000E+00  0.00000000000E+00  0.17554850466E+04  0.17554850466E+04  0.00000000000E+00 0. -1.
         -2   -1    0    0    0  501 -0.00000000000E+00 -0.00000000000E+00 -0.69218542183E+03  0.69218542183E+03  0.00000000000E+00 0.  1.
         23    2    1    2    0    0 -0.40749378550E+03 -0.60959950909E+03  0.10485078746E+04  0.12851527792E+04  0.12077315877E+03 0.  0.
        254    2    1    2    0    0  0.40749378550E+03  0.60959950909E+03  0.14791750119E+02  0.11625176893E+04  0.90197884415E+03 0.  0.
         23    2    4    4    0    0  0.17046789783E+03  0.72110947685E+02 -0.39145315003E+03  0.44248593406E+03  0.91098519208E+02 0.  0.
         23    2    4    4    0    0  0.23702588767E+03  0.53748856141E+03  0.40624490015E+03  0.72003175522E+03  0.91299422506E+02 0.  0.
          3    1    3    3  502    0 -0.27738588014E+03 -0.33873421861E+03  0.69234368892E+03  0.81916029014E+03  0.00000000000E+00 0. -1.
         -3    1    3    3    0  502 -0.13010790536E+03 -0.27086529049E+03  0.35616418573E+03  0.46599248902E+03  0.00000000000E+00 0.  1.
         11    1    5    5    0    0  0.89268381461E+02  0.72829185192E+02 -0.29318451250E+03  0.31500808325E+03  0.00000000000E+00 0.  1.
        -11    1    5    5    0    0  0.81199516365E+02 -0.71823750728E+00 -0.98268637531E+02  0.12747785080E+03  0.00000000000E+00 0. -1.
          2    1    6    6  503    0  0.62270403031E+02  0.16366843258E+03  0.73402031981E+02  0.18987579418E+03  0.00000000000E+00 0. -1.
         -2    1    6    6    0  503  0.17475548464E+03  0.37382012883E+03  0.33284286817E+03  0.53015596103E+03  0.00000000000E+00 0.  1.
<mgrwt>
<rscale>  0 0.22046507E+04</rscale>
<asrwt>0</asrwt>
<pdfrwt beam="1">  1        2 0.27007462E+00 0.22046507E+04</pdfrwt>
<pdfrwt beam="2">  1       -2 0.10649007E+00 0.22046507E+04</pdfrwt>
<totfact> 0.59307077E+00</totfact>
</mgrwt>
</event>
<event>
12    2  0.3555611E-008  0.1349158E+04  0.7818608E-02  0.8991465E-01
         -2   -1    0    0    0  501 -0.00000000000E+00  0.00000000000E+00  0.15977346559E+03  0.15977346559E+03  0.00000000000E+00 0.  1.
          2   -1    0    0  501    0  0.00000000000E+00 -0.00000000000E+00 -0.28481392903E+04  0.28481392903E+04  0.00000000000E+00 0. -1.
         23    2    1    2    0    0  0.14943959894E+03  0.98674278266E+02 -0.36422274045E+02  0.20315745546E+03  0.88755634976E+02 0.  0.
        254    2    1    2    0    0 -0.14943959894E+03 -0.98674278266E+02 -0.26519435506E+04  0.28047553004E+04  0.89542106992E+03 0.  0.
         23    2    4    4    0    0  0.54477465766E+02 -0.36683746391E+03 -0.22041442929E+04  0.22369321236E+04  0.89865135923E+02 0.  0.
         23    2    4    4    0    0 -0.20391706471E+03  0.26816318564E+03 -0.44779925776E+03  0.56782317678E+03  0.91680540093E+02 0.  0.
          4    1    3    3  502    0  0.98018232006E+02  0.78997719727E+02 -0.64392883314E+02  0.14140246444E+03  0.00000000000E+00 0. -1.
         -4    1    3    3    0  502  0.51421366935E+02  0.19676558540E+02  0.27970609269E+02  0.61754991024E+02  0.00000000000E+00 0.  1.
         11    1    5    5    0    0  0.92675433593E+01 -0.28578479065E+03 -0.17733335693E+04  0.17962379525E+04  0.00000000000E+00 0.  1.
        -11    1    5    5    0    0  0.45209922406E+02 -0.81052673259E+02 -0.43081072358E+03  0.44069417114E+03  0.00000000000E+00 0. -1.
          2    1    6    6  503    0 -0.67402126058E+02  0.29399550713E+02 -0.10813622390E+03  0.13077011546E+03  0.00000000000E+00 0. -1.
         -2    1    6    6    0  503 -0.13651493865E+03  0.23876363493E+03 -0.33966303386E+03  0.43705306132E+03  0.00000000000E+00 0.  1.
<mgrwt>
<rscale>  0 0.13491584E+04</rscale>
<asrwt>0</asrwt>
<pdfrwt beam="1">  1        2 0.43817531E+00 0.13491584E+04</pdfrwt>
<pdfrwt beam="2">  1       -2 0.24580531E-01 0.13491584E+04</pdfrwt>
<totfact> 0.31492523E+01</totfact>
</mgrwt>
</event>
<event>
12    2  0.3555611E-008  0.1580303E+04  0.7818608E-02  0.8832741E-01
         -2   -1    0    0    0  501 -0.00000000000E+00  0.00000000000E+00  0.90082710822E+03  0.90082710822E+03  0.00000000000E+00 0.  1.
          2   -1    0    0  501    0  0.00000000000E+00 -0.00000000000E+00 -0.69307369632E+03  0.69307369632E+03  0.00000000000E+00 0. -1.
         23    2    1    2    0    0  0.33762090239E+03  0.40973460150E+03  0.10258027500E+03  0.54829176295E+03  0.90723905933E+02 0.  0.
        254    2    1    2    0    0 -0.33762090239E+03 -0.40973460150E+03  0.10517313690E+03  0.10456090416E+04  0.89463208176E+03 0.  0.
         23    2    4    4    0    0  0.44071503819E+02 -0.28646561009E+03  0.42608127550E+03  0.52395643197E+03  0.94764160206E+02 0.  0.
         23    2    4    4    0    0 -0.38169240621E+03 -0.12326899140E+03 -0.32090813860E+03  0.52165260961E+03  0.90857440507E+02 0.  0.
          2    1    3    3  502    0  0.49474728838E+02  0.60757537702E+02 -0.17044537029E+02  0.80185680914E+02  0.00000000000E+00 0. -1.
         -2    1    3    3    0  502  0.28814617355E+03  0.34897706380E+03  0.11962481203E+03  0.46810608204E+03  0.00000000000E+00 0.  1.
         11    1    5    5    0    0  0.47712929383E+02 -0.68275392338E+02  0.84750030022E+02  0.11883021677E+03  0.00000000000E+00 0.  1.
        -11    1    5    5    0    0 -0.36414255643E+01 -0.21819021776E+03  0.34133124548E+03  0.40512621520E+03  0.00000000000E+00 0. -1.
          3    1    6    6  503    0 -0.22659943143E+03 -0.11937912674E+03 -0.19917176600E+03  0.32445041315E+03  0.00000000000E+00 0. -1.
         -3    1    6    6    0  503 -0.15509297478E+03 -0.38898646632E+01 -0.12173637260E+03  0.19720219646E+03  0.00000000000E+00 0.  1.
<mgrwt>
<rscale>  0 0.15803032E+04</rscale>
<asrwt>0</asrwt>
<pdfrwt beam="1">  1        2 0.10662672E+00 0.15803032E+04</pdfrwt>
<pdfrwt beam="2">  1       -2 0.13858879E+00 0.15803032E+04</pdfrwt>
<totfact> 0.14687053E+01</totfact>
</mgrwt>
</event>
<event>
12    2  0.3555611E-008  0.2893423E+04  0.7818608E-02  0.8274837E-01
          2   -1    0    0  501    0  0.00000000000E+00  0.00000000000E+00  0.86578782555E+03  0.86578782555E+03  0.00000000000E+00 0.  1.
         -2   -1    0    0    0  501 -0.00000000000E+00 -0.00000000000E+00 -0.24174209873E+04  0.24174209873E+04  0.00000000000E+00 0. -1.
         23    2    1    2    0    0 -0.11274438338E+04 -0.43003235246E+03 -0.12024488225E+03  0.12156893033E+04  0.85931530083E+02 0.  0.
        254    2    1    2    0    0  0.11274438338E+04  0.43003235246E+03 -0.14313882795E+04  0.20675195096E+04  0.87732952379E+03 0.  0.
         23    2    4    4    0    0  0.22285024552E+03 -0.44588815134E+02  0.65069935103E+02  0.25341717220E+03  0.91300450968E+02 0.  0.
         23    2    4    4    0    0  0.90459358827E+03  0.47462116759E+03 -0.14964582146E+04  0.18141023374E+04  0.89583981826E+02 0.  0.
          3    1    3    3  502    0 -0.10117154940E+03 -0.38547252801E+02  0.13769217876E+02  0.10913828140E+03  0.00000000000E+00 0. -1.
         -3    1    3    3    0  502 -0.10262722844E+04 -0.39148509966E+03 -0.13401410013E+03  0.11065510219E+04  0.00000000000E+00 0.  1.
         11    1    5    5    0    0  0.15524522942E+03  0.12181996984E+02  0.30922316495E+02  0.15876294267E+03  0.00000000000E+00 0. -1.
        -11    1    5    5    0    0  0.67605016096E+02 -0.56770812118E+02  0.34147618608E+02  0.94654229522E+02  0.00000000000E+00 0.  1.
          3    1    6    6  503    0  0.14300229042E+03  0.93399602280E+02 -0.30462539951E+03  0.34924171400E+03  0.00000000000E+00 0. -1.
         -3    1    6    6    0  503  0.76159129786E+03  0.38122156531E+03 -0.11918328151E+04  0.14648606234E+04  0.00000000000E+00 0.  1.
<mgrwt>
<rscale>  0 0.28934227E+04</rscale>
<asrwt>0</asrwt>
<pdfrwt beam="1">  1        2 0.13319813E+00 0.28934227E+04</pdfrwt>
<pdfrwt beam="2">  1       -2 0.37191091E+00 0.28934227E+04</pdfrwt>
<totfact> 0.30153894E-01</totfact>
</mgrwt>
</event>
<event>
12    2  0.3555611E-008  0.1485953E+04  0.7818608E-02  0.8893848E-01
         -1   -1    0    0    0  501 -0.00000000000E+00  0.00000000000E+00  0.50398166220E+03  0.50398166220E+03  0.00000000000E+00 0.  1.
          1   -1    0    0  501    0  0.00000000000E+00 -0.00000000000E+00 -0.10953064347E+04  0.10953064347E+04  0.00000000000E+00 0. -1.
         23    2    1    2    0    0  0.90829985039E+02  0.90709038804E+02 -0.66446004408E+03  0.68293252119E+03  0.91714025171E+02 0.  0.
        254    2    1    2    0    0 -0.90829985039E+02 -0.90709038804E+02  0.73135271538E+02  0.91635557576E+03  0.90436749023E+03 0.  0.
         23    2    4    4    0    0  0.47870591906E+02  0.27057038974E+03 -0.26620090059E+03  0.39338766156E+03  0.91602420401E+02 0.  0.
         23    2    4    4    0    0 -0.13870057694E+03 -0.36127942854E+03  0.33933617213E+03  0.52296791420E+03  0.92659192919E+02 0.  0.
          3    1    3    3  502    0  0.78980405068E+02  0.15901620206E+02 -0.29598325904E+03  0.30675210764E+03  0.00000000000E+00 0. -1.
         -3    1    3    3    0  502  0.11849579971E+02  0.74807418598E+02 -0.36847678504E+03  0.37618041354E+03  0.00000000000E+00 0.  1.
         11    1    5    5    0    0  0.70962817200E+02  0.24402054561E+03 -0.23967699334E+03  0.34932335914E+03  0.00000000000E+00 0. -1.
        -11    1    5    5    0    0 -0.23092225294E+02  0.26549844124E+02 -0.26523907255E+02  0.44064302424E+02  0.00000000000E+00 0.  1.
          1    1    6    6  503    0 -0.56331358124E+02 -0.86402264230E+02  0.47054743476E+02  0.11336984632E+03  0.00000000000E+00 0. -1.
         -1    1    6    6    0  503 -0.82369218821E+02 -0.27487716431E+03  0.29228142866E+03  0.40959806787E+03  0.00000000000E+00 0.  1.
<mgrwt>
<rscale>  0 0.14859534E+04</rscale>
<asrwt>0</asrwt>
<pdfrwt beam="1">  1        1 0.16850868E+00 0.14859534E+04</pdfrwt>
<pdfrwt beam="2">  1       -1 0.77535641E-01 0.14859534E+04</pdfrwt>
<totfact> 0.20640157E+01</totfact>
</mgrwt>
</event>
<event>
12    2  0.3555611E-008  0.1460193E+04  0.7818608E-02  0.8911365E-01
         -2   -1    0    0    0  501 -0.00000000000E+00  0.00000000000E+00  0.28709047302E+03  0.28709047302E+03  0.00000000000E+00 0. -1.
          2   -1    0    0  501    0  0.00000000000E+00 -0.00000000000E+00 -0.18566989989E+04  0.18566989989E+04  0.00000000000E+00 0.  1.
         23    2    1    2    0    0  0.39452160446E+03 -0.19031547412E+03 -0.51997472510E+03  0.68617257859E+03  0.92692053569E+02 0.  0.
        254    2    1    2    0    0 -0.39452160446E+03  0.19031547412E+03 -0.10496338007E+04  0.14576168933E+04  0.91161867898E+03 0.  0.
         23    2    4    4    0    0 -0.84697586765E+02 -0.28811372429E+03 -0.71954126904E+02  0.32236512649E+03  0.92513129168E+02 0.  0.
         23    2    4    4    0    0 -0.30982401769E+03  0.47842919841E+03 -0.97767967384E+03  0.11352517668E+04  0.89741905223E+02 0.  0.
          2    1    3    3  502    0  0.94388354204E+02 -0.38149520618E+02 -0.66961270995E+02  0.12185384338E+03  0.00000000000E+00 0. -1.
         -2    1    3    3    0  502  0.30013325025E+03 -0.15216595350E+03 -0.45301345411E+03  0.56431873522E+03  0.00000000000E+00 0.  1.
         11    1    5    5    0    0 -0.19531393075E+02 -0.12567613868E+02  0.13169327460E+02  0.26699277510E+02  0.00000000000E+00 0.  1.
        -11    1    5    5    0    0 -0.65166193690E+02 -0.27554611042E+03 -0.85123454364E+02  0.29566584898E+03  0.00000000000E+00 0. -1.
          4    1    6    6  503    0 -0.19977684520E+03  0.25585195107E+03 -0.48605032376E+03  0.58447919207E+03  0.00000000000E+00 0. -1.
         -4    1    6    6    0  503 -0.11004717249E+03  0.22257724735E+03 -0.49162935008E+03  0.55077257472E+03  0.00000000000E+00 0.  1.
<mgrwt>
<rscale>  0 0.14601926E+04</rscale>
<asrwt>0</asrwt>
<pdfrwt beam="1">  1        2 0.28564600E+00 0.14601926E+04</pdfrwt>
<pdfrwt beam="2">  1       -2 0.44167765E-01 0.14601926E+04</pdfrwt>
<totfact> 0.37810940E+01</totfact>
</mgrwt>
</event>
<event>
12    2  0.3555611E-008  0.1364237E+04  0.7818608E-02  0.8980120E-01
          2   -1    0    0  501    0  0.00000000000E+00  0.00000000000E+00  0.22937790505E+04  0.22937790505E+04  0.00000000000E+00 0.  1.
         -2   -1    0    0    0  501 -0.00000000000E+00 -0.00000000000E+00 -0.20284690427E+03  0.20284690427E+03  0.00000000000E+00 0. -1.
         23    2    1    2    0    0  0.23445616920E+03 -0.12631680781E+03  0.10985926191E+04  0.11343565193E+04  0.94516342593E+02 0.  0.
        254    2    1    2    0    0 -0.23445616920E+03  0.12631680781E+03  0.99233952710E+03  0.13622694354E+04  0.89449127798E+03 0.  0.
         23    2    4    4    0    0 -0.19161315045E+03 -0.15657765635E+03  0.10267325600E+04  0.10599897645E+04  0.90368076837E+02 0.  0.
         23    2    4    4    0    0 -0.42843018745E+02  0.28289446415E+03 -0.34393032847E+02  0.30227967090E+03  0.91243173031E+02 0.  0.
          2    1    3    3  502    0  0.68555816193E+02 -0.11530858678E+02  0.16205286958E+03  0.17633488927E+03  0.00000000000E+00 0. -1.
         -2    1    3    3    0  502  0.16590035300E+03 -0.11478594913E+03  0.93653974951E+03  0.95802163005E+03  0.00000000000E+00 0.  1.
         11    1    5    5    0    0 -0.70428687255E+02 -0.53207981259E+02  0.20877530783E+03  0.22666807984E+03  0.00000000000E+00 0. -1.
        -11    1    5    5    0    0 -0.12118446320E+03 -0.10336967509E+03  0.81795725212E+03  0.83332168467E+03  0.00000000000E+00 0.  1.
          3    1    6    6  503    0  0.27023821457E+02  0.49745373399E+02 -0.11143568765E+01  0.56622706505E+02  0.00000000000E+00 0. -1.
         -3    1    6    6    0  503 -0.69866840202E+02  0.23314909076E+03 -0.33278675970E+02  0.24565696439E+03  0.00000000000E+00 0.  1.
<mgrwt>
<rscale>  0 0.13642375E+04</rscale>
<asrwt>0</asrwt>
<pdfrwt beam="1">  1        2 0.35288907E+00 0.13642375E+04</pdfrwt>
<pdfrwt beam="2">  1       -2 0.31207218E-01 0.13642375E+04</pdfrwt>
<totfact> 0.42575375E+01</totfact>
</mgrwt>
</event>
<event>
12    2  0.3555611E-008  0.1954762E+04  0.7818608E-02  0.8628068E-01
         -2   -1    0    0    0  501 -0.00000000000E+00  0.00000000000E+00  0.72378923596E+03  0.72378923596E+03  0.00000000000E+00 0.  1.
          2   -1    0    0  501    0  0.00000000000E+00 -0.00000000000E+00 -0.13198225566E+04  0.13198225566E+04  0.00000000000E+00 0. -1.
         23    2    1    2    0    0 -0.10718021542E+03 -0.27136087689E+03 -0.96369917379E+03  0.10113329424E+04  0.94625043075E+02 0.  0.
        254    2    1    2    0    0  0.10718021542E+03  0.27136087689E+03  0.36766585316E+03  0.10322788501E+04  0.91940041372E+03 0.  0.
         23    2    4    4    0    0  0.23569609115E+03  0.24335648811E+03 -0.22611524775E+03  0.41718941716E+03  0.90243430973E+02 0.  0.
         23    2    4    4    0    0 -0.12851587573E+03  0.28004388781E+02  0.59378110091E+03  0.61508943297E+03  0.91969770326E+02 0.  0.
          3    1    3    3  502    0 -0.94791341235E+02 -0.27429906043E+03 -0.94609691148E+03  0.98960837650E+03  0.00000000000E+00 0. -1.
         -3    1    3    3    0  502 -0.12388874184E+02  0.29381835366E+01 -0.17602262307E+02  0.21724565919E+02  0.00000000000E+00 0.  1.
         11    1    5    5    0    0  0.13827776108E+03  0.80161397052E+02 -0.90161991038E+02  0.18350960034E+03  0.00000000000E+00 0.  1.
        -11    1    5    5    0    0  0.97418330065E+02  0.16319509106E+03 -0.13595325671E+03  0.23367981682E+03  0.00000000000E+00 0. -1.
          4    1    6    6  503    0 -0.23242583156E+02 -0.58201576793E+01  0.21399508382E+02  0.32125237216E+02  0.00000000000E+00 0. -1.
         -4    1    6    6    0  503 -0.10527329258E+03  0.33824546460E+02  0.57238159252E+03  0.58296419575E+03  0.00000000000E+00 0.  1.
<mgrwt>
<rscale>  0 0.19547617E+04</rscale>
<asrwt>0</asrwt>
<pdfrwt beam="1">  1        2 0.20304962E+00 0.19547617E+04</pdfrwt>
<pdfrwt beam="2">  1       -2 0.11135219E+00 0.19547617E+04</pdfrwt>
<totfact> 0.95756227E+00</totfact>
</mgrwt>
</event>
<event>
12    2  0.3555611E-008  0.2140887E+04  0.7818608E-02  0.8543443E-01
          1   -1    0    0  501    0  0.00000000000E+00  0.00000000000E+00  0.13564509678E+04  0.13564509678E+04  0.00000000000E+00 0. -1.
         -1   -1    0    0    0  501 -0.00000000000E+00 -0.00000000000E+00 -0.84474076901E+03  0.84474076901E+03  0.00000000000E+00 0.  1.
         23    2    1    2    0    0 -0.36679986789E+03 -0.27840700801E+03 -0.57771012036E+03  0.74441389994E+03  0.91380884509E+02 0.  0.
        254    2    1    2    0    0  0.36679986789E+03  0.27840700801E+03  0.10894203192E+04  0.14567778369E+04  0.85047776517E+03 0.  0.
         23    2    4    4    0    0  0.14419218314E+03 -0.12403168899E+03  0.94194811092E+03  0.96534075807E+03  0.91876492999E+02 0.  0.
         23    2    4    4    0    0  0.22260768475E+03  0.40243869700E+03  0.14747220828E+03  0.49143707885E+03  0.90836468995E+02 0.  0.
          4    1    3    3  502    0 -0.10267126730E+03 -0.11913246606E+03 -0.24113458163E+03  0.28788855492E+03  0.00000000000E+00 0. -1.
         -4    1    3    3    0  502 -0.26412860060E+03 -0.15927454195E+03 -0.33657553873E+03  0.45652534501E+03  0.00000000000E+00 0.  1.
         11    1    5    5    0    0  0.25694679392E+02 -0.74580384319E+02  0.27239603984E+03  0.28358782201E+03  0.00000000000E+00 0.  1.
        -11    1    5    5    0    0  0.11849750375E+03 -0.49451304672E+02  0.66955207108E+03  0.68175293606E+03  0.00000000000E+00 0. -1.
          3    1    6    6  503    0  0.17022494025E+03  0.33171896760E+03  0.82023945243E+02  0.38176161586E+03  0.00000000000E+00 0. -1.
         -3    1    6    6    0  503  0.52382744500E+02  0.70719729400E+02  0.65448263038E+02  0.10967546299E+03  0.00000000000E+00 0.  1.
<mgrwt>
<rscale>  0 0.21408871E+04</rscale>
<asrwt>0</asrwt>
<pdfrwt beam="1">  1        1 0.20868476E+00 0.21408871E+04</pdfrwt>
<pdfrwt beam="2">  1       -1 0.12996012E+00 0.21408871E+04</pdfrwt>
<totfact> 0.38356638E+00</totfact>
</mgrwt>
</event>
<event>
12    2  0.5011434E-008  0.2579154E+04  0.7818608E-02  0.8375317E-01
         -1   -1    0    0    0  501 -0.00000000000E+00  0.00000000000E+00  0.18192107177E+04  0.18192107177E+04  0.00000000000E+00 0.  1.
          1   -1    0    0  501    0  0.00000000000E+00 -0.00000000000E+00 -0.91413754844E+03  0.91413754844E+03  0.00000000000E+00 0. -1.
         23    2    1    2    0    0 -0.70578037035E+03  0.50278966294E+03  0.11659191273E+04  0.14573043916E+04  0.11595387870E+03 0.  0.
        254    2    1    2    0    0  0.70578037035E+03 -0.50278966294E+03 -0.26084595802E+03  0.12760438746E+04  0.89962435477E+03 0.  0.
         23    2    4    4    0    0  0.86881786051E+03 -0.38599862993E+03 -0.37449998138E+03  0.10259087703E+04  0.91646886802E+02 0.  0.
         23    2    4    4    0    0 -0.16303749017E+03 -0.11679103301E+03  0.11365402336E+03  0.25013510428E+03  0.97102856682E+02 0.  0.
          3    1    3    3  502    0 -0.42121883595E+02  0.78854974842E+00  0.54196119075E+02  0.68644695433E+02  0.00000000000E+00 0. -1.
         -3    1    3    3    0  502 -0.66365848675E+03  0.50200111319E+03  0.11117230082E+04  0.13886596962E+04  0.00000000000E+00 0.  1.
         11    1    5    5    0    0  0.85976724348E+03 -0.37309685821E+03 -0.35851416754E+03  0.10034607052E+04  0.00000000000E+00 0. -1.
        -11    1    5    5    0    0  0.90506170380E+01 -0.12901771719E+02 -0.15985813840E+02  0.22448065092E+02  0.00000000000E+00 0.  1.
          1    1    6    6  503    0 -0.17544452128E+03 -0.11190761099E+03  0.11297189082E+03  0.23678416661E+03  0.00000000000E+00 0. -1.
         -1    1    6    6    0  503  0.12407031114E+02 -0.48834220197E+01  0.68213253849E+00  0.13350937663E+02  0.00000000000E+00 0.  1.
<mgrwt>
<rscale>  0 0.25791540E+04</rscale>
<asrwt>0</asrwt>
<pdfrwt beam="1">  1        1 0.14063655E+00 0.25791540E+04</pdfrwt>
<pdfrwt beam="2">  1       -1 0.27987857E+00 0.25791540E+04</pdfrwt>
<totfact> 0.69704418E-01</totfact>
</mgrwt>
</event>
<event>
12    2  0.3555611E-008  0.3146282E+04  0.7818608E-02  0.8203150E-01
          2   -1    0    0  501    0  0.00000000000E+00  0.00000000000E+00  0.21260007582E+04  0.21260007582E+04  0.00000000000E+00 0. -1.
         -2   -1    0    0    0  501 -0.00000000000E+00 -0.00000000000E+00 -0.11640504456E+04  0.11640504456E+04  0.00000000000E+00 0.  1.
         23    2    1    2    0    0  0.79962916759E+03 -0.84532510269E+03  0.13352259925E+04  0.17735716376E+04  0.93523086297E+02 0.  0.
        254    2    1    2    0    0 -0.79962916759E+03  0.84532510269E+03 -0.37327567986E+03  0.15164795662E+04  0.89799454715E+03 0.  0.
         23    2    4    4    0    0  0.13324900868E+03  0.23802358310E+03 -0.27056376625E+03  0.39495547440E+03  0.91512571396E+02 0.  0.
         23    2    4    4    0    0 -0.93287817627E+03  0.60730151959E+03 -0.10271191361E+03  0.11215240918E+04  0.90497093408E+02 0.  0.
          1    1    3    3  502    0  0.64553098248E+03 -0.64175645612E+03  0.10822269013E+04  0.14141345990E+04  0.00000000000E+00 0. -1.
         -1    1    3    3    0  502  0.15409818511E+03 -0.20356864658E+03  0.25299909118E+03  0.35943703852E+03  0.00000000000E+00 0.  1.
         11    1    5    5    0    0  0.14164793644E+03  0.20395313659E+03 -0.21114959555E+03  0.32595271363E+03  0.00000000000E+00 0. -1.
        -11    1    5    5    0    0 -0.83989277679E+01  0.34070446509E+02 -0.59414170698E+02  0.69002760761E+02  0.00000000000E+00 0.  1.
          1    1    6    6  503    0 -0.78627627482E+03  0.54925262869E+03 -0.86126499508E+02  0.96297798749E+03  0.00000000000E+00 0. -1.
         -1    1    6    6    0  503 -0.14660190145E+03  0.58048890900E+02 -0.16585414107E+02  0.15854610435E+03  0.00000000000E+00 0.  1.
<mgrwt>
<rscale>  0 0.31462817E+04</rscale>
<asrwt>0</asrwt>
<pdfrwt beam="1">  1        2 0.32707704E+00 0.31462817E+04</pdfrwt>
<pdfrwt beam="2">  1       -2 0.17908468E+00 0.31462817E+04</pdfrwt>
<totfact> 0.88430536E-01</totfact>
</mgrwt>
</event>
<event>
12    2  0.3555611E-008  0.1710708E+04  0.7818608E-02  0.8755281E-01
          2   -1    0    0  501    0  0.00000000000E+00  0.00000000000E+00  0.14282943918E+04  0.14282943918E+04  0.00000000000E+00 0. -1.
         -2   -1    0    0    0  501 -0.00000000000E+00 -0.00000000000E+00 -0.51224082294E+03  0.51224082294E+03  0.00000000000E+00 0.  1.
         23    2    1    2    0    0 -0.52738607897E+03  0.82429938605E+02 -0.50785775288E+00  0.54180363246E+03  0.92844747622E+02 0.  0.
        254    2    1    2    0    0  0.52738607897E+03 -0.82429938605E+02  0.91656142664E+03  0.13987315823E+04  0.91183025804E+03 0.  0.
         23    2    4    4    0    0  0.16741021043E+03 -0.44841377265E+03  0.65210137502E+03  0.81412368974E+03  0.91978741224E+02 0.  0.
         23    2    4    4    0    0  0.35997586854E+03  0.36598383405E+03  0.26446005162E+03  0.58460789257E+03  0.91106950525E+02 0.  0.
          4    1    3    3  502    0 -0.50597528937E+02  0.11773166545E+02  0.27908447597E+02  0.58971169501E+02  0.00000000000E+00 0. -1.
         -4    1    3    3    0  502 -0.47678855003E+03  0.70656772060E+02 -0.28416305350E+02  0.48283246296E+03  0.00000000000E+00 0.  1.
         11    1    5    5    0    0  0.13053098546E+03 -0.25817704518E+03  0.33632185384E+03  0.44362835143E+03  0.00000000000E+00 0.  1.
        -11    1    5    5    0    0  0.36879224967E+02 -0.19023672747E+03  0.31577952118E+03  0.37049533831E+03  0.00000000000E+00 0. -1.
          3    1    6    6  503    0  0.10227720736E+03  0.54399200537E+02  0.42835367343E+02  0.12351019740E+03  0.00000000000E+00 0. -1.
         -3    1    6    6    0  503  0.25769866118E+03  0.31158463351E+03  0.22162468427E+03  0.46109769517E+03  0.00000000000E+00 0.  1.
<mgrwt>
<rscale>  0 0.17107083E+04</rscale>
<asrwt>0</asrwt>
<pdfrwt beam="1">  1        2 0.21973760E+00 0.17107083E+04</pdfrwt>
<pdfrwt beam="2">  1       -2 0.78806281E-01 0.17107083E+04</pdfrwt>
<totfact> 0.18952069E+01</totfact>
</mgrwt>
</event>
<event>
12    2  0.3555611E-008  0.1201721E+04  0.7818608E-02  0.9111351E-01
         -1   -1    0    0    0  501 -0.00000000000E+00  0.00000000000E+00  0.38354596775E+03  0.38354596775E+03  0.00000000000E+00 0.  1.
          1   -1    0    0  501    0  0.00000000000E+00 -0.00000000000E+00 -0.94130452732E+03  0.94130452732E+03  0.00000000000E+00 0. -1.
         23    2    1    2    0    0 -0.55327726648E+02 -0.85518060892E+02 -0.37253687995E+03  0.39675752123E+03  0.90875231221E+02 0.  0.
        254    2    1    2    0    0  0.55327726648E+02  0.85518060892E+02 -0.18522167961E+03  0.92809297384E+03  0.90370072559E+03 0.  0.
         23    2    4    4    0    0 -0.23107887598E+03 -0.92869040678E+02 -0.42756210519E+03  0.50298576438E+03  0.90350538114E+02 0.  0.
         23    2    4    4    0    0  0.28640660263E+03  0.17838710157E+03  0.24234042558E+03  0.42510720946E+03  0.90202869280E+02 0.  0.
          1    1    3    3  502    0 -0.52619346964E+02 -0.63016131818E+02 -0.36300114233E+03  0.37216885667E+03  0.00000000000E+00 0. -1.
         -1    1    3    3    0  502 -0.27083796839E+01 -0.22501929074E+02 -0.95357376257E+01  0.24588664556E+02  0.00000000000E+00 0.  1.
         11    1    5    5    0    0 -0.14449373368E+03 -0.42357916229E+02 -0.33173773349E+03  0.36431107032E+03  0.00000000000E+00 0.  1.
        -11    1    5    5    0    0 -0.86585142306E+02 -0.50511124449E+02 -0.95824371697E+02  0.13867469406E+03  0.00000000000E+00 0. -1.
          2    1    6    6  503    0  0.23016362512E+03  0.10717428483E+03  0.20751889163E+03  0.32791113436E+03  0.00000000000E+00 0.  1.
         -2    1    6    6    0  503  0.56242977513E+02  0.71212816738E+02  0.34821533953E+02  0.97196075097E+02  0.00000000000E+00 0. -1.
<mgrwt>
<rscale>  0 0.12017214E+04</rscale>
<asrwt>0</asrwt>
<pdfrwt beam="1">  1        1 0.14481608E+00 0.12017214E+04</pdfrwt>
<pdfrwt beam="2">  1       -1 0.59007073E-01 0.12017214E+04</pdfrwt>
<totfact> 0.48522009E+01</totfact>
</mgrwt>
</event>
<event>
12    2  0.3555611E-008  0.1043394E+04  0.7818608E-02  0.9262191E-01
         -2   -1    0    0    0  501 -0.00000000000E+00  0.00000000000E+00  0.16317459081E+04  0.16317459081E+04  0.00000000000E+00 0.  1.
          2   -1    0    0  501    0  0.00000000000E+00 -0.00000000000E+00 -0.16679553313E+03  0.16679553313E+03  0.00000000000E+00 0. -1.
         23    2    1    2    0    0 -0.10937725696E+03 -0.63392285892E+02  0.18685954175E+03  0.24279083864E+03  0.89715866675E+02 0.  0.
        254    2    1    2    0    0  0.10937725696E+03  0.63392285892E+02  0.12780908332E+04  0.15557506026E+04  0.87798735371E+03 0.  0.
         23    2    4    4    0    0 -0.10672120600E+03 -0.16523275913E+03  0.11995870774E+04  0.12190009899E+04  0.90900916615E+02 0.  0.
         23    2    4    4    0    0  0.21609846296E+03  0.22862504503E+03  0.78503755805E+02  0.33674961267E+03  0.90936819010E+02 0.  0.
          1    1    3    3  502    0 -0.11030662750E+03 -0.55324920817E+02  0.10942301067E+03  0.16492966440E+03  0.00000000000E+00 0. -1.
         -1    1    3    3    0  502  0.92937054200E+00 -0.80673650755E+01  0.77436531072E+02  0.77861174235E+02  0.00000000000E+00 0.  1.
         11    1    5    5    0    0 -0.73318833053E+02 -0.99780688175E+02  0.48158084386E+03  0.49724435259E+03  0.00000000000E+00 0.  1.
        -11    1    5    5    0    0 -0.33402372942E+02 -0.65452070959E+02  0.71800623358E+03  0.72175663736E+03  0.00000000000E+00 0. -1.
          1    1    6    6  503    0  0.14216547278E+03  0.15051933859E+03  0.61624905814E+01  0.20713538865E+03  0.00000000000E+00 0. -1.
         -1    1    6    6    0  503  0.73932990179E+02  0.78105706436E+02  0.72341265224E+02  0.12961422402E+03  0.00000000000E+00 0.  1.
<mgrwt>
<rscale>  0 0.10433943E+04</rscale>
<asrwt>0</asrwt>
<pdfrwt beam="1">  1        2 0.25660852E-01 0.10433943E+04</pdfrwt>
<pdfrwt beam="2">  1       -2 0.25103782E+00 0.10433943E+04</pdfrwt>
<totfact> 0.13505400E+01</totfact>
</mgrwt>
</event>
<event>
12    2  0.3555611E-008  0.1327273E+04  0.7818608E-02  0.9008213E-01
         -2   -1    0    0    0  501 -0.00000000000E+00  0.00000000000E+00  0.25464931754E+03  0.25464931754E+03  0.00000000000E+00 0.  1.
          2   -1    0    0  501    0  0.00000000000E+00 -0.00000000000E+00 -0.17294901584E+04  0.17294901584E+04  0.00000000000E+00 0. -1.
         23    2    1    2    0    0  0.25430271721E+03  0.13036506381E+03 -0.70780524379E+03  0.76872943999E+03  0.91059139719E+02 0.  0.
        254    2    1    2    0    0 -0.25430271721E+03 -0.13036506381E+03 -0.76703559712E+03  0.12154100360E+04  0.89845034726E+03 0.  0.
         23    2    4    4    0    0  0.19686709574E+03 -0.23946725677E+03 -0.11610694188E+02  0.32377915809E+03  0.92719547787E+02 0.  0.
         23    2    4    4    0    0 -0.45116981296E+03  0.10910219296E+03 -0.75542490293E+03  0.89163087790E+03  0.94240913767E+02 0.  0.
          3    1    3    3  502    0  0.13753562700E+03  0.11882177399E+03 -0.45772899380E+03  0.49249415675E+03  0.00000000000E+00 0. -1.
         -3    1    3    3    0  502  0.11676709022E+03  0.11543289820E+02 -0.25007624999E+03  0.27623528324E+03  0.00000000000E+00 0.  1.
         11    1    5    5    0    0  0.16291449923E+03 -0.13281747254E+03  0.70393555825E+01  0.21031207193E+03  0.00000000000E+00 0.  1.
        -11    1    5    5    0    0  0.33952596518E+02 -0.10664978423E+03 -0.18650049771E+02  0.11346708616E+03  0.00000000000E+00 0. -1.
          1    1    6    6  503    0 -0.18784384629E+03  0.73573561087E+02 -0.39856680472E+03  0.44671453671E+03  0.00000000000E+00 0. -1.
         -1    1    6    6    0  503 -0.26332596667E+03  0.35528631874E+02 -0.35685809821E+03  0.44491634120E+03  0.00000000000E+00 0.  1.
<mgrwt>
<rscale>  0 0.13272731E+04</rscale>
<asrwt>0</asrwt>
<pdfrwt beam="1">  1        2 0.26607541E+00 0.13272731E+04</pdfrwt>
<pdfrwt beam="2">  1       -2 0.39176817E-01 0.13272731E+04</pdfrwt>
<totfact> 0.56904022E+01</totfact>
</mgrwt>
</event>
<event>
12    2  0.3555611E-008  0.1284171E+04  0.7818608E-02  0.9042213E-01
          2   -1    0    0  501    0  0.00000000000E+00  0.00000000000E+00  0.15453909114E+04  0.15453909114E+04  0.00000000000E+00 0. -1.
         -2   -1    0    0    0  501 -0.00000000000E+00 -0.00000000000E+00 -0.26677636031E+03  0.26677636031E+03  0.00000000000E+00 0.  1.
         23    2    1    2    0    0 -0.46015415198E+02  0.26009860860E+02  0.69287171341E+03  0.70058916040E+03  0.89218995288E+02 0.  0.
        254    2    1    2    0    0  0.46015415198E+02 -0.26009860860E+02  0.58574283772E+03  0.11115781114E+04  0.94324826764E+03 0.  0.
         23    2    4    4    0    0  0.40006284347E+03  0.18908312817E+03  0.50923349020E+03  0.68139309044E+03  0.95786680047E+02 0.  0.
         23    2    4    4    0    0 -0.35404742827E+03 -0.21509298903E+03  0.76509347519E+02  0.43018502091E+03  0.87125751459E+02 0.  0.
          3    1    3    3  502    0 -0.42123935553E+02 -0.20085700759E+02  0.50313272951E+03  0.50529239537E+03  0.00000000000E+00 0. -1.
         -3    1    3    3    0  502 -0.38914796455E+01  0.46095561619E+02  0.18973898390E+03  0.19529676502E+03  0.00000000000E+00 0.  1.
         11    1    5    5    0    0  0.35608028435E+03  0.19059023807E+03  0.42462762659E+03  0.58602596275E+03  0.00000000000E+00 0.  1.
        -11    1    5    5    0    0  0.43982559114E+02 -0.15071098978E+01  0.84605863617E+02  0.95367127695E+02  0.00000000000E+00 0. -1.
          3    1    6    6  503    0 -0.33220536581E+02 -0.10679219254E+01 -0.10444540296E+02  0.34840105194E+02  0.00000000000E+00 0. -1.
         -3    1    6    6    0  503 -0.32082689169E+03 -0.21402506710E+03  0.86953887814E+02  0.39534491572E+03  0.00000000000E+00 0.  1.
<mgrwt>
<rscale>  0 0.12841710E+04</rscale>
<asrwt>0</asrwt>
<pdfrwt beam="1">  1        2 0.23775244E+00 0.12841710E+04</pdfrwt>
<pdfrwt beam="2">  1       -2 0.41042518E-01 0.12841710E+04</pdfrwt>
<totfact> 0.66000475E+01</totfact>
</mgrwt>
</event>
<event>
12    2  0.3555611E-008  0.1646371E+04  0.7818608E-02  0.8792556E-01
         -1   -1    0    0    0  501 -0.00000000000E+00  0.00000000000E+00  0.10773978888E+04  0.10773978888E+04  0.00000000000E+00 0.  1.
          1   -1    0    0  501    0  0.00000000000E+00 -0.00000000000E+00 -0.62895494126E+03  0.62895494126E+03  0.00000000000E+00 0. -1.
         23    2    1    2    0    0  0.37230766172E+03 -0.40502363794E+03 -0.29540433343E+02  0.55793330802E+03  0.88089708389E+02 0.  0.
        254    2    1    2    0    0 -0.37230766172E+03  0.40502363794E+03  0.47798338093E+03  0.11484195221E+04  0.88754838967E+03 0.  0.
         23    2    4    4    0    0  0.22762250239E+03  0.18459540618E+03  0.38912294652E+03  0.49646322649E+03  0.95768471677E+02 0.  0.
         23    2    4    4    0    0 -0.59993016411E+03  0.22042823177E+03  0.88860434409E+02  0.65195629561E+03  0.92984016967E+02 0.  0.
          1    1    3    3  502    0  0.34135394425E+03 -0.33476278486E+03 -0.79392494415E+01  0.47817535389E+03  0.00000000000E+00 0. -1.
         -1    1    3    3    0  502  0.30953717468E+02 -0.70260853079E+02 -0.21601183901E+02  0.79757954126E+02  0.00000000000E+00 0.  1.
         11    1    5    5    0    0  0.20685164075E+03  0.11815512776E+03  0.28912483395E+03  0.37462168264E+03  0.00000000000E+00 0. -1.
        -11    1    5    5    0    0  0.20770861640E+02  0.66440278412E+02  0.99998112573E+02  0.12184154385E+03  0.00000000000E+00 0.  1.
          3    1    6    6  503    0 -0.47230079246E+03  0.15866847787E+03  0.10521670703E+03  0.50922910352E+03  0.00000000000E+00 0. -1.
         -3    1    6    6    0  503 -0.12762937164E+03  0.61759753892E+02 -0.16356272620E+02  0.14272719209E+03  0.00000000000E+00 0.  1.
<mgrwt>
<rscale>  0 0.16463714E+04</rscale>
<asrwt>0</asrwt>
<pdfrwt beam="1">  1        1 0.96762299E-01 0.16463714E+04</pdfrwt>
<pdfrwt beam="2">  1       -1 0.16575352E+00 0.16463714E+04</pdfrwt>
<totfact> 0.80846217E+00</totfact>
</mgrwt>
</event>
<event>
12    2  0.3555611E-008  0.2727010E+04  0.7818608E-02  0.8326294E-01
         -1   -1    0    0    0  501 -0.00000000000E+00  0.00000000000E+00  0.57901785242E+03  0.57901785242E+03  0.00000000000E+00 0.  1.
          1   -1    0    0  501    0  0.00000000000E+00 -0.00000000000E+00 -0.32108613019E+04  0.32108613019E+04  0.00000000000E+00 0. -1.
         23    2    1    2    0    0 -0.29340836650E+03 -0.41344411097E+03  0.35734236757E+03  0.62684549195E+03  0.90648776515E+02 0.  0.
        254    2    1    2    0    0  0.29340836650E+03  0.41344411097E+03 -0.29891858171E+04  0.31630336624E+04  0.90140201802E+03 0.  0.
         23    2    4    4    0    0  0.38655494456E+03  0.16078612751E+03 -0.50401181604E+03  0.66162628640E+03  0.91894114011E+02 0.  0.
         23    2    4    4    0    0 -0.93146578064E+02  0.25265798346E+03 -0.24851740011E+04  0.25014073760E+04  0.91851530608E+02 0.  0.
          3    1    3    3  502    0 -0.10650669221E+02 -0.66326786603E+02  0.51468397016E+02  0.84626681770E+02  0.00000000000E+00 0. -1.
         -3    1    3    3    0  502 -0.28275769727E+03 -0.34711732437E+03  0.30587397056E+03  0.54221881018E+03  0.00000000000E+00 0.  1.
         11    1    5    5    0    0  0.37845475015E+03  0.13849775495E+03 -0.48854604415E+03  0.63331419003E+03  0.00000000000E+00 0. -1.
        -11    1    5    5    0    0  0.81001944107E+01  0.22288372564E+02 -0.15465771884E+02  0.28312096373E+02  0.00000000000E+00 0.  1.
          1    1    6    6  503    0 -0.11082821475E+03  0.23336611313E+03 -0.22552406543E+04  0.22699896574E+04  0.00000000000E+00 0. -1.
         -1    1    6    6    0  503  0.17681636681E+02  0.19291870330E+02 -0.22993334681E+03  0.23141771866E+03  0.00000000000E+00 0.  1.
<mgrwt>
<rscale>  0 0.27270101E+04</rscale>
<asrwt>0</asrwt>
<pdfrwt beam="1">  1        1 0.49397867E+00 0.27270101E+04</pdfrwt>
<pdfrwt beam="2">  1       -1 0.89079668E-01 0.27270101E+04</pdfrwt>
<totfact> 0.44887246E-01</totfact>
</mgrwt>
</event>
<event>
12    2  0.3555611E-008  0.1833997E+04  0.7818608E-02  0.8688427E-01
          1   -1    0    0  501    0  0.00000000000E+00  0.00000000000E+00  0.12062886406E+04  0.12062886406E+04  0.00000000000E+00 0.  1.
         -1   -1    0    0    0  501 -0.00000000000E+00 -0.00000000000E+00 -0.69708508616E+03  0.69708508616E+03  0.00000000000E+00 0. -1.
         23    2    1    2    0    0 -0.20251247114E+03 -0.58454795187E+03 -0.12701942461E+03  0.63822097479E+03  0.92111179725E+02 0.  0.
        254    2    1    2    0    0  0.20251247114E+03  0.58454795187E+03  0.63622297908E+03  0.12651527520E+04  0.90173399503E+03 0.  0.
         23    2    4    4    0    0  0.20163266206E+03  0.15407577839E+03 -0.18934685500E+03  0.32972516103E+03  0.92040069665E+02 0.  0.
         23    2    4    4    0    0  0.87980907967E+00  0.43047217348E+03  0.82556983407E+03  0.93542759097E+03  0.90289317283E+02 0.  0.
          1    1    3    3  502    0 -0.11681103572E+03 -0.23494406513E+03 -0.22217001620E+02  0.26331943902E+03  0.00000000000E+00 0. -1.
         -1    1    3    3    0  502 -0.85701435422E+02 -0.34960388674E+03 -0.10480242299E+03  0.37490153577E+03  0.00000000000E+00 0.  1.
         11    1    5    5    0    0  0.24518739031E+02  0.61063141089E+02 -0.23514764742E+02  0.69877177420E+02  0.00000000000E+00 0. -1.
        -11    1    5    5    0    0  0.17711392303E+03  0.93012637300E+02 -0.16583209026E+03  0.25984798361E+03  0.00000000000E+00 0.  1.
          3    1    6    6  503    0 -0.14983273959E+02  0.40253381089E+03  0.71931990612E+03  0.82442652477E+03  0.00000000000E+00 0.  1.
         -3    1    6    6    0  503  0.15863083039E+02  0.27938362597E+02  0.10624992795E+03  0.11100106620E+03  0.00000000000E+00 0. -1.
<mgrwt>
<rscale>  0 0.18339965E+04</rscale>
<asrwt>0</asrwt>
<pdfrwt beam="1">  1        1 0.18558287E+00 0.18339965E+04</pdfrwt>
<pdfrwt beam="2">  1       -1 0.10724386E+00 0.18339965E+04</pdfrwt>
<totfact> 0.80610884E+00</totfact>
</mgrwt>
</event>
<event>
12    2  0.3555611E-008  0.1415771E+04  0.7818608E-02  0.8942481E-01
         -2   -1    0    0    0  501 -0.00000000000E+00  0.00000000000E+00  0.49796829675E+03  0.49796829675E+03  0.00000000000E+00 0.  1.
          2   -1    0    0  501    0  0.00000000000E+00 -0.00000000000E+00 -0.10062931559E+04  0.10062931559E+04  0.00000000000E+00 0. -1.
         23    2    1    2    0    0 -0.20648857997E+02 -0.10450965068E+03  0.27493467425E+03  0.30825721163E+03  0.89915465855E+02 0.  0.
        254    2    1    2    0    0  0.20648857997E+02  0.10450965068E+03 -0.78325953342E+03  0.11960042411E+04  0.89754220263E+03 0.  0.
         23    2    4    4    0    0 -0.90227133828E+02 -0.15033881219E+03  0.13074797163E+03  0.23605330349E+03  0.88788714784E+02 0.  0.
         23    2    4    4    0    0  0.11087599182E+03  0.25484846287E+03 -0.91400750505E+03  0.95995093757E+03  0.94100258569E+02 0.  0.
          4    1    3    3  502    0  0.25240778947E+02 -0.23891882355E+02  0.28515675085E+02  0.44956230824E+02  0.00000000000E+00 0. -1.
         -4    1    3    3    0  502 -0.45889636943E+02 -0.80617768321E+02  0.24641899916E+03  0.26330098081E+03  0.00000000000E+00 0.  1.
         11    1    5    5    0    0 -0.97992056123E+02 -0.13021339725E+03  0.81331894795E+02  0.18213415110E+03  0.00000000000E+00 0.  1.
        -11    1    5    5    0    0  0.77649222952E+01 -0.20125414946E+02  0.49416076830E+02  0.53919152388E+02  0.00000000000E+00 0. -1.
          4    1    6    6  503    0  0.30401407840E+02  0.51880203334E+02 -0.95765313824E+02  0.11307871784E+03  0.00000000000E+00 0. -1.
         -4    1    6    6    0  503  0.80474583984E+02  0.20296825953E+03 -0.81824219123E+03  0.84687221973E+03  0.00000000000E+00 0.  1.
<mgrwt>
<rscale>  0 0.14157713E+04</rscale>
<asrwt>0</asrwt>
<pdfrwt beam="1">  1        2 0.15481433E+00 0.14157713E+04</pdfrwt>
<pdfrwt beam="2">  1       -2 0.76610507E-01 0.14157713E+04</pdfrwt>
<totfact> 0.36961314E+01</totfact>
</mgrwt>
</event>
<event>
12    2  0.3555611E-008  0.1788114E+04  0.7818608E-02  0.8712646E-01
          2   -1    0    0  501    0  0.00000000000E+00  0.00000000000E+00  0.10141226682E+04  0.10141226682E+04  0.00000000000E+00 0. -1.
         -2   -1    0    0    0  501 -0.00000000000E+00 -0.00000000000E+00 -0.78820657700E+03  0.78820657700E+03  0.00000000000E+00 0.  1.
         23    2    1    2    0    0 -0.53249019293E+03 -0.28682844834E+03 -0.17990507489E+03  0.63756577796E+03  0.91147797049E+02 0.  0.
        254    2    1    2    0    0  0.53249019293E+03  0.28682844834E+03  0.40582116608E+03  0.11647634672E+04  0.90893715483E+03 0.  0.
         23    2    4    4    0    0  0.26664200100E+03 -0.18273049736E+03  0.50729121526E+03  0.60837767571E+03  0.91052884948E+02 0.  0.
         23    2    4    4    0    0  0.26584819192E+03  0.46955894571E+03 -0.10147004918E+03  0.55638579153E+03  0.90045063692E+02 0.  0.
          2    1    3    3  502    0 -0.26469771607E+01  0.51330446867E+01  0.15494911715E+01  0.59795951983E+01  0.00000000000E+00 0. -1.
         -2    1    3    3    0  502 -0.52984321577E+03 -0.29196149303E+03 -0.18145456606E+03  0.63158618276E+03  0.00000000000E+00 0.  1.
         11    1    5    5    0    0  0.10411202539E+03 -0.75118393654E+02  0.28590149724E+03  0.31340349874E+03  0.00000000000E+00 0. -1.
        -11    1    5    5    0    0  0.16252997561E+03 -0.10761210371E+03  0.22138971802E+03  0.29497417698E+03  0.00000000000E+00 0.  1.
          2    1    6    6  503    0  0.54542741530E+02  0.88650054338E+02 -0.56622362647E+02  0.11848980859E+03  0.00000000000E+00 0. -1.
         -2    1    6    6    0  503  0.21130545039E+03  0.38090889137E+03 -0.44847686530E+02  0.43789598294E+03  0.00000000000E+00 0.  1.
<mgrwt>
<rscale>  0 0.17881143E+04</rscale>
<asrwt>0</asrwt>
<pdfrwt beam="1">  1        2 0.15601887E+00 0.17881143E+04</pdfrwt>
<pdfrwt beam="2">  1       -2 0.12126255E+00 0.17881143E+04</pdfrwt>
<totfact> 0.12060265E+01</totfact>
</mgrwt>
</event>
<event>
12    2  0.3555611E-008  0.2554217E+04  0.7818608E-02  0.8383921E-01
          2   -1    0    0  501    0  0.00000000000E+00  0.00000000000E+00  0.38996364190E+04  0.38996364190E+04  0.00000000000E+00 0. -1.
         -2   -1    0    0    0  501 -0.00000000000E+00 -0.00000000000E+00 -0.41824579507E+03  0.41824579507E+03  0.00000000000E+00 0.  1.
         23    2    1    2    0    0 -0.66915625688E+03 -0.62719408945E+03  0.45276093618E+03  0.10268810235E+04  0.91376414463E+02 0.  0.
        254    2    1    2    0    0  0.66915625688E+03  0.62719408945E+03  0.30286296877E+04  0.32910011905E+04  0.90385205030E+03 0.  0.
         23    2    4    4    0    0  0.82243562153E+03  0.29873950483E+03  0.24257065382E+04  0.25803373547E+04  0.91885857537E+02 0.  0.
         23    2    4    4    0    0 -0.15327936465E+03  0.32845458462E+03  0.60292314947E+03  0.71066383589E+03  0.10074614476E+03 0.  0.
          2    1    3    3  502    0 -0.67153467555E+03 -0.62503881947E+03  0.44752694293E+03  0.10207412556E+04  0.00000000000E+00 0.  1.
         -2    1    3    3    0  502  0.23784186613E+01 -0.21552699753E+01  0.52339932595E+01  0.61397678649E+01  0.00000000000E+00 0. -1.
         11    1    5    5    0    0  0.74746279538E+03  0.29640907179E+03  0.21877618502E+04  0.23308498196E+04  0.00000000000E+00 0. -1.
        -11    1    5    5    0    0  0.74972826146E+02  0.23304330405E+01  0.23794468808E+03  0.24948753509E+03  0.00000000000E+00 0.  1.
          2    1    6    6  503    0 -0.38639001484E+02  0.24100638079E+02  0.12081316133E+03  0.12911093347E+03  0.00000000000E+00 0.  1.
         -2    1    6    6    0  503 -0.11464036316E+03  0.30435394654E+03  0.48210998814E+03  0.58155290241E+03  0.00000000000E+00 0. -1.
<mgrwt>
<rscale>  0 0.25542173E+04</rscale>
<asrwt>0</asrwt>
<pdfrwt beam="1">  1        2 0.59994404E+00 0.25542173E+04</pdfrwt>
<pdfrwt beam="2">  1       -2 0.64345510E-01 0.25542173E+04</pdfrwt>
<totfact> 0.81687509E-01</totfact>
</mgrwt>
</event>
<event>
12    2  0.3555611E-008  0.1237943E+04  0.7818608E-02  0.9080278E-01
          1   -1    0    0  501    0  0.00000000000E+00  0.00000000000E+00  0.51732619612E+03  0.51732619612E+03  0.00000000000E+00 0. -1.
         -1   -1    0    0    0  501 -0.00000000000E+00 -0.00000000000E+00 -0.74058830624E+03  0.74058830624E+03  0.00000000000E+00 0.  1.
         23    2    1    2    0    0  0.24894866347E+03 -0.58464528751E+01  0.77015240888E+02  0.27507372331E+03  0.87889634612E+02 0.  0.
        254    2    1    2    0    0 -0.24894866347E+03  0.58464528751E+01 -0.30027735101E+03  0.98284077905E+03  0.90210858070E+03 0.  0.
         23    2    4    4    0    0 -0.12333220238E+02  0.33318042748E+03 -0.42784693495E+03  0.54939800311E+03  0.87314720987E+02 0.  0.
         23    2    4    4    0    0 -0.23661544323E+03 -0.32733397461E+03  0.12756958394E+03  0.43344277593E+03  0.92001317137E+02 0.  0.
          1    1    3    3  502    0  0.22353808835E+03 -0.12817034889E+01  0.95739775289E+02  0.24318105247E+03  0.00000000000E+00 0. -1.
         -1    1    3    3    0  502  0.25410575116E+02 -0.45647493862E+01 -0.18724534401E+02  0.31892670839E+02  0.00000000000E+00 0.  1.
         11    1    5    5    0    0  0.39573202058E+01  0.18806358008E+03 -0.30608714618E+03  0.35926718691E+03  0.00000000000E+00 0. -1.
        -11    1    5    5    0    0 -0.16290540444E+02  0.14511684740E+03 -0.12175978877E+03  0.19013081620E+03  0.00000000000E+00 0.  1.
          3    1    6    6  503    0 -0.24361171448E+03 -0.32466846964E+03  0.12119263854E+03  0.42360823676E+03  0.00000000000E+00 0. -1.
         -3    1    6    6    0  503  0.69962712503E+01 -0.26655049621E+01  0.63769454028E+01  0.98345391748E+01  0.00000000000E+00 0.  1.
<mgrwt>
<rscale>  0 0.12379430E+04</rscale>
<asrwt>0</asrwt>
<pdfrwt beam="1">  1        1 0.79588646E-01 0.12379430E+04</pdfrwt>
<pdfrwt beam="2">  1       -1 0.11393666E+00 0.12379430E+04</pdfrwt>
<totfact> 0.29299687E+01</totfact>
</mgrwt>
</event>
<event>
12    2  0.3555611E-008  0.1823077E+04  0.7818608E-02  0.8694123E-01
          1   -1    0    0  501    0  0.00000000000E+00  0.00000000000E+00  0.17439481854E+04  0.17439481854E+04  0.00000000000E+00 0. -1.
         -1   -1    0    0    0  501 -0.00000000000E+00 -0.00000000000E+00 -0.47644880004E+03  0.47644880004E+03  0.00000000000E+00 0.  1.
         23    2    1    2    0    0 -0.12969536225E+02 -0.66877721100E+03  0.88925387229E+03  0.11163347392E+04  0.89440672074E+02 0.  0.
        254    2    1    2    0    0  0.12969536225E+02  0.66877721100E+03  0.37824551312E+03  0.11040622462E+04  0.79275002906E+03 0.  0.
         23    2    4    4    0    0  0.34947198952E+03  0.34398644921E+03  0.35156841329E+01  0.49798264228E+03  0.86700653264E+02 0.  0.
         23    2    4    4    0    0 -0.33650245330E+03  0.32479076179E+03  0.37472982898E+03  0.60607960397E+03  0.90482603840E+02 0.  0.
          1    1    3    3  502    0  0.12755235085E+02 -0.18378623293E+03  0.30788465127E+03  0.35879385993E+03  0.00000000000E+00 0. -1.
         -1    1    3    3    0  502 -0.25724771309E+02 -0.48499097807E+03  0.58136922101E+03  0.75754087930E+03  0.00000000000E+00 0.  1.
         11    1    5    5    0    0  0.32605295969E+03  0.30634215474E+03 -0.19927480471E+02  0.44783161207E+03  0.00000000000E+00 0. -1.
        -11    1    5    5    0    0  0.23419029838E+02  0.37644294465E+02  0.23443164604E+02  0.50151030209E+02  0.00000000000E+00 0.  1.
          4    1    6    6  503    0 -0.28177583800E+03  0.30876156645E+03  0.31427082044E+03  0.52296986182E+03  0.00000000000E+00 0. -1.
         -4    1    6    6    0  503 -0.54726615301E+02  0.16029195343E+02  0.60459008548E+02  0.83109742150E+02  0.00000000000E+00 0.  1.
<mgrwt>
<rscale>  0 0.18230765E+04</rscale>
<asrwt>0</asrwt>
<pdfrwt beam="1">  1        1 0.26829972E+00 0.18230765E+04</pdfrwt>
<pdfrwt beam="2">  1       -1 0.73299816E-01 0.18230765E+04</pdfrwt>
<totfact> 0.78564714E+00</totfact>
</mgrwt>
</event>
<event>
12    2  0.3555611E-008  0.1724622E+04  0.7818608E-02  0.8747445E-01
          2   -1    0    0  501    0  0.00000000000E+00  0.00000000000E+00  0.52152696457E+03  0.52152696457E+03  0.00000000000E+00 0.  1.
         -2   -1    0    0    0  501 -0.00000000000E+00 -0.00000000000E+00 -0.14257753180E+04  0.14257753180E+04  0.00000000000E+00 0. -1.
         23    2    1    2    0    0  0.82729909439E+02 -0.39880299738E+03 -0.86573395752E+03  0.96121232768E+03  0.92443415388E+02 0.  0.
        254    2    1    2    0    0 -0.82729909439E+02  0.39880299738E+03 -0.38514395879E+02  0.98608995486E+03  0.89721902106E+03 0.  0.
         23    2    4    4    0    0 -0.40637814718E+03 -0.43117094005E+02 -0.90328244467E+02  0.42837425916E+03  0.91340198523E+02 0.  0.
         23    2    4    4    0    0  0.32364823774E+03  0.44192009138E+03  0.51813848588E+02  0.55771569570E+03  0.91217176943E+02 0.  0.
          1    1    3    3  502    0  0.80266781034E+02 -0.40245323376E+03 -0.86394698643E+03  0.95646001321E+03  0.00000000000E+00 0. -1.
         -1    1    3    3    0  502  0.24631284051E+01  0.36502363793E+01 -0.17869710836E+01  0.47523144696E+01  0.00000000000E+00 0.  1.
         11    1    5    5    0    0 -0.17196474140E+03 -0.49205710031E+02 -0.73174455860E+02  0.19325520737E+03  0.00000000000E+00 0.  1.
        -11    1    5    5    0    0 -0.23441340578E+03  0.60886160266E+01 -0.17153788607E+02  0.23511905180E+03  0.00000000000E+00 0. -1.
          3    1    6    6  503    0  0.22416756809E+03  0.31557654068E+03 -0.51249132998E+01  0.38712519467E+03  0.00000000000E+00 0. -1.
         -3    1    6    6    0  503  0.99480669649E+02  0.12634355070E+03  0.56938761888E+02  0.17059050103E+03  0.00000000000E+00 0.  1.
<mgrwt>
<rscale>  0 0.17246220E+04</rscale>
<asrwt>0</asrwt>
<pdfrwt beam="1">  1        2 0.80234919E-01 0.17246220E+04</pdfrwt>
<pdfrwt beam="2">  1       -2 0.21935004E+00 0.17246220E+04</pdfrwt>
<totfact> 0.55506945E+00</totfact>
</mgrwt>
</event>
<event>
12    2  0.3555611E-008  0.1813813E+04  0.7818608E-02  0.8698988E-01
          2   -1    0    0  501    0  0.00000000000E+00  0.00000000000E+00  0.16135225277E+04  0.16135225277E+04  0.00000000000E+00 0. -1.
         -2   -1    0    0    0  501 -0.00000000000E+00 -0.00000000000E+00 -0.50974135127E+03  0.50974135127E+03  0.00000000000E+00 0.  1.
         23    2    1    2    0    0 -0.51408097624E+03 -0.26364581303E+01  0.93769395657E+03  0.10732372169E+04  0.91005309943E+02 0.  0.
        254    2    1    2    0    0  0.51408097624E+03  0.26364581303E+01  0.16608721989E+03  0.10500266621E+04  0.90038037824E+03 0.  0.
         23    2    4    4    0    0  0.47415475166E+03  0.12493638091E+03 -0.28304586806E+03  0.57464908618E+03  0.98360464755E+02 0.  0.
         23    2    4    4    0    0  0.39926224582E+02 -0.12229992278E+03  0.44913308795E+03  0.47537757595E+03  0.87817620689E+02 0.  0.
          2    1    3    3  502    0 -0.46739836733E+03 -0.26598292224E+02  0.86530948263E+03  0.98383393094E+03  0.00000000000E+00 0. -1.
         -2    1    3    3    0  502 -0.46682608903E+02  0.23961834094E+02  0.72384473942E+02  0.89403285930E+02  0.00000000000E+00 0.  1.
         11    1    5    5    0    0  0.42209951263E+03  0.14187861291E+03 -0.25475661266E+03  0.51302872342E+03  0.00000000000E+00 0. -1.
        -11    1    5    5    0    0  0.52055239027E+02 -0.16942231996E+02 -0.28289255402E+02  0.61620362757E+02  0.00000000000E+00 0.  1.
          4    1    6    6  503    0 -0.68479886490E+01 -0.10467791720E+03  0.32692334153E+03  0.34334127706E+03  0.00000000000E+00 0. -1.
         -4    1    6    6    0  503  0.46774213231E+02 -0.17622005583E+02  0.12220974642E+03  0.13203629889E+03  0.00000000000E+00 0.  1.
<mgrwt>
<rscale>  0 0.18138127E+04</rscale>
<asrwt>0</asrwt>
<pdfrwt beam="1">  1        2 0.24823423E+00 0.18138127E+04</pdfrwt>
<pdfrwt beam="2">  1       -2 0.78421747E-01 0.18138127E+04</pdfrwt>
<totfact> 0.14938958E+01</totfact>
</mgrwt>
</event>
<event>
12    2  0.3555611E-008  0.2172522E+04  0.7818608E-02  0.8529953E-01
          1   -1    0    0  501    0  0.00000000000E+00  0.00000000000E+00  0.20728762094E+04  0.20728762094E+04  0.00000000000E+00 0. -1.
         -1   -1    0    0    0  501 -0.00000000000E+00 -0.00000000000E+00 -0.56923964509E+03  0.56923964509E+03  0.00000000000E+00 0.  1.
         23    2    1    2    0    0  0.16930855664E+03 -0.87818581413E+03  0.55332962127E+03  0.10555272443E+04  0.89935433254E+02 0.  0.
        254    2    1    2    0    0 -0.16930855664E+03  0.87818581413E+03  0.95030694303E+03  0.15865886102E+04  0.90238817621E+03 0.  0.
         23    2    4    4    0    0 -0.16421170616E+03  0.54491701820E+03  0.10746528873E+04  0.12195299246E+04  0.92056328722E+02 0.  0.
         23    2    4    4    0    0 -0.50968504847E+01  0.33326879593E+03 -0.12434594428E+03  0.36705868560E+03  0.90421770524E+02 0.  0.
          1    1    3    3  502    0  0.87650832185E+02 -0.27141706218E+03  0.14863996535E+03  0.32162669250E+03  0.00000000000E+00 0. -1.
         -1    1    3    3    0  502  0.81657724455E+02 -0.60676875195E+03  0.40468965592E+03  0.73390055179E+03  0.00000000000E+00 0.  1.
         11    1    5    5    0    0 -0.48835450860E+02  0.31417933309E+03  0.56571035880E+03  0.64893895295E+03  0.00000000000E+00 0.  1.
        -11    1    5    5    0    0 -0.11537625530E+03  0.23073768510E+03  0.50894252851E+03  0.57059097166E+03  0.00000000000E+00 0. -1.
          2    1    6    6  503    0  0.19828373968E+02  0.22096314834E+03 -0.11933754619E+03  0.25191134804E+03  0.00000000000E+00 0. -1.
         -2    1    6    6    0  503 -0.24925224453E+02  0.11230564759E+03 -0.50083980865E+01  0.11514733756E+03  0.00000000000E+00 0.  1.
<mgrwt>
<rscale>  0 0.21725223E+04</rscale>
<asrwt>0</asrwt>
<pdfrwt beam="1">  1        1 0.31890403E+00 0.21725223E+04</pdfrwt>
<pdfrwt beam="2">  1       -1 0.87575331E-01 0.21725223E+04</pdfrwt>
<totfact> 0.31167464E+00</totfact>
</mgrwt>
</event>
<event>
12    2  0.3555611E-008  0.1799706E+04  0.7818608E-02  0.8706456E-01
         -1   -1    0    0    0  501 -0.00000000000E+00  0.00000000000E+00  0.10446083507E+04  0.10446083507E+04  0.00000000000E+00 0.  1.
          1   -1    0    0  501    0  0.00000000000E+00 -0.00000000000E+00 -0.77515714206E+03  0.77515714206E+03  0.00000000000E+00 0. -1.
         23    2    1    2    0    0 -0.43126268533E+03 -0.59143153348E+02 -0.42378080486E+03  0.61429120505E+03  0.90984051831E+02 0.  0.
        254    2    1    2    0    0  0.43126268533E+03  0.59143153348E+02  0.69323201355E+03  0.12054742878E+04  0.88493627876E+03 0.  0.
         23    2    4    4    0    0  0.58305744960E+03 -0.14916605337E+03  0.19866516010E+03  0.64043618548E+03  0.92109504515E+02 0.  0.
         23    2    4    4    0    0 -0.15179476426E+03  0.20830920672E+03  0.49456685346E+03  0.56503810228E+03  0.90759618916E+02 0.  0.
          1    1    3    3  502    0 -0.26539786702E+03 -0.60937516985E+02 -0.31276578364E+03  0.41469488085E+03  0.00000000000E+00 0. -1.
         -1    1    3    3    0  502 -0.16586481831E+03  0.17943636373E+01 -0.11101502123E+03  0.19959632420E+03  0.00000000000E+00 0.  1.
         11    1    5    5    0    0  0.69224372655E+02  0.93422888828E+01  0.36363375046E+02  0.78750156671E+02  0.00000000000E+00 0.  1.
        -11    1    5    5    0    0  0.51383307694E+03 -0.15850834225E+03  0.16230178505E+03  0.56168602880E+03  0.00000000000E+00 0. -1.
          3    1    6    6  503    0 -0.14829491934E+03  0.13709415224E+03  0.36412534356E+03  0.41638138228E+03  0.00000000000E+00 0. -1.
         -3    1    6    6    0  503 -0.34998449252E+01  0.71215054473E+02  0.13044150989E+03  0.14865672000E+03  0.00000000000E+00 0.  1.
<mgrwt>
<rscale>  0 0.17997062E+04</rscale>
<asrwt>0</asrwt>
<pdfrwt beam="1">  1        1 0.11925494E+00 0.17997062E+04</pdfrwt>
<pdfrwt beam="2">  1       -1 0.16070898E+00 0.17997062E+04</pdfrwt>
<totfact> 0.63335893E+00</totfact>
</mgrwt>
</event>
<event>
12    2  0.3555611E-008  0.1346376E+04  0.7818608E-02  0.8993576E-01
          4   -1    0    0  501    0  0.00000000000E+00  0.00000000000E+00  0.29252240288E+03  0.29252240288E+03  0.00000000000E+00 0. -1.
         -4   -1    0    0    0  501 -0.00000000000E+00 -0.00000000000E+00 -0.15492215938E+04  0.15492215938E+04  0.00000000000E+00 0.  1.
         23    2    1    2    0    0 -0.28843418659E+03  0.19820886735E+03 -0.21056725938E+03  0.41853478472E+03  0.91387965341E+02 0.  0.
        254    2    1    2    0    0  0.28843418659E+03 -0.19820886735E+03 -0.10461319316E+04  0.14232092120E+04  0.89925046998E+03 0.  0.
         23    2    4    4    0    0 -0.12284830078E+03  0.27672578721E+03 -0.23827691477E+03  0.39578717204E+03  0.90568930261E+02 0.  0.
         23    2    4    4    0    0  0.41128248737E+03 -0.47493465456E+03 -0.80785501679E+03  0.10274220399E+04  0.90830113359E+02 0.  0.
          2    1    3    3  502    0 -0.25467231499E+03  0.18559300480E+03 -0.21605617394E+03  0.38207724579E+03  0.00000000000E+00 0. -1.
         -2    1    3    3    0  502 -0.33761871602E+02  0.12615862556E+02  0.54889145618E+01  0.36457538934E+02  0.00000000000E+00 0.  1.
         11    1    5    5    0    0 -0.40104359488E+02  0.30130046006E+02 -0.13331675035E+02  0.51902917852E+02  0.00000000000E+00 0. -1.
        -11    1    5    5    0    0 -0.82743941295E+02  0.24659574120E+03 -0.22494523974E+03  0.34388425419E+03  0.00000000000E+00 0.  1.
          3    1    6    6  503    0  0.79064085483E+01 -0.25136867576E+02 -0.63345777346E+02  0.68608023695E+02  0.00000000000E+00 0. -1.
         -3    1    6    6    0  503  0.40337607882E+03 -0.44979778698E+03 -0.74450923944E+03  0.95881401625E+03  0.00000000000E+00 0.  1.
<mgrwt>
<rscale>  0 0.13463759E+04</rscale>
<asrwt>0</asrwt>
<pdfrwt beam="1">  1        4 0.45003448E-01 0.13463759E+04</pdfrwt>
<pdfrwt beam="2">  1       -4 0.23834178E+00 0.13463759E+04</pdfrwt>
<totfact> 0.70169332E-01</totfact>
</mgrwt>
</event>
<event>
12    2  0.3555611E-008  0.1709086E+04  0.7818608E-02  0.8756199E-01
         -2   -1    0    0    0  501 -0.00000000000E+00  0.00000000000E+00  0.60733664407E+03  0.60733664407E+03  0.00000000000E+00 0.  1.
          2   -1    0    0  501    0  0.00000000000E+00 -0.00000000000E+00 -0.12023709611E+04  0.12023709611E+04  0.00000000000E+00 0. -1.
         23    2    1    2    0    0  0.39080543109E+03  0.22085239446E+02  0.27958007317E+03  0.49426475954E+03  0.11364854792E+03 0.  0.
        254    2    1    2    0    0 -0.39080543109E+03 -0.22085239446E+02 -0.87461439021E+03  0.13154428456E+04  0.90123410156E+03 0.  0.
         23    2    4    4    0    0 -0.25125522909E+03  0.31936160945E+03 -0.83539033440E+03  0.93335969709E+03  0.90345368514E+02 0.  0.
         23    2    4    4    0    0 -0.13955020200E+03 -0.34144684889E+03 -0.39224055816E+02  0.38208314855E+03  0.91590372616E+02 0.  0.
          2    1    3    3  502    0 -0.47539981549E+00 -0.64655604703E+01  0.26769152022E+02  0.27543002326E+02  0.00000000000E+00 0. -1.
         -2    1    3    3    0  502  0.39128083090E+03  0.28550799917E+02  0.25281092114E+03  0.46672175722E+03  0.00000000000E+00 0.  1.
         11    1    5    5    0    0 -0.35725043615E+01  0.32555841523E+02 -0.11242016490E+03  0.11709371922E+03  0.00000000000E+00 0.  1.
        -11    1    5    5    0    0 -0.24768272472E+03  0.28680576792E+03 -0.72297016950E+03  0.81626597787E+03  0.00000000000E+00 0. -1.
          4    1    6    6  503    0 -0.11507395530E+03 -0.27399809750E+03  0.60461730086E+01  0.29724321494E+03  0.00000000000E+00 0. -1.
         -4    1    6    6    0  503 -0.24476246707E+02 -0.67448751391E+02 -0.45270228824E+02  0.84839933609E+02  0.00000000000E+00 0.  1.
<mgrwt>
<rscale>  0 0.17090862E+04</rscale>
<asrwt>0</asrwt>
<pdfrwt beam="1">  1        2 0.18498015E+00 0.17090862E+04</pdfrwt>
<pdfrwt beam="2">  1       -2 0.93436407E-01 0.17090862E+04</pdfrwt>
<totfact> 0.17394864E+01</totfact>
</mgrwt>
</event>
<event>
12    2  0.3555611E-008  0.1907929E+04  0.7818608E-02  0.8650920E-01
          2   -1    0    0  501    0  0.00000000000E+00  0.00000000000E+00  0.25085029741E+04  0.25085029741E+04  0.00000000000E+00 0. -1.
         -2   -1    0    0    0  501 -0.00000000000E+00 -0.00000000000E+00 -0.36278546799E+03  0.36278546799E+03  0.00000000000E+00 0.  1.
         23    2    1    2    0    0 -0.53774947193E+03  0.21761455726E+03  0.15111578548E+03  0.60626001383E+03  0.90468965150E+02 0.  0.
        254    2    1    2    0    0  0.53774947193E+03 -0.21761455726E+03  0.19946017206E+04  0.22650284283E+04  0.90298791067E+03 0.  0.
         23    2    4    4    0    0  0.77399071112E+03 -0.21034535947E+03  0.16536206729E+04  0.18401694684E+04  0.91954074163E+02 0.  0.
         23    2    4    4    0    0 -0.23624123919E+03 -0.72691977893E+01  0.34098104777E+03  0.42485895982E+03  0.91511182206E+02 0.  0.
          4    1    3    3  502    0 -0.58767203966E+02  0.30732910686E+02  0.48017386151E+02  0.81876525537E+02  0.00000000000E+00 0. -1.
         -4    1    3    3    0  502 -0.47898226796E+03  0.18688164657E+03  0.10309839933E+03  0.52438348829E+03  0.00000000000E+00 0.  1.
         11    1    5    5    0    0  0.16508489785E+03 -0.10009783132E+02  0.30487278747E+03  0.34684382047E+03  0.00000000000E+00 0. -1.
        -11    1    5    5    0    0  0.60890581327E+03 -0.20033557634E+03  0.13487478854E+04  0.14933256480E+04  0.00000000000E+00 0.  1.
          2    1    6    6  503    0  0.75966768599E+01  0.53412318146E+01  0.12432220469E+02  0.15517679027E+02  0.00000000000E+00 0. -1.
         -2    1    6    6    0  503 -0.24383791605E+03 -0.12610429604E+02  0.32854882730E+03  0.40934128079E+03  0.00000000000E+00 0.  1.
<mgrwt>
<rscale>  0 0.19079292E+04</rscale>
<asrwt>0</asrwt>
<pdfrwt beam="1">  1        2 0.38592352E+00 0.19079292E+04</pdfrwt>
<pdfrwt beam="2">  1       -2 0.55813150E-01 0.19079292E+04</pdfrwt>
<totfact> 0.97215857E+00</totfact>
</mgrwt>
</event>
<event>
12    2  0.3555611E-008  0.2158963E+04  0.7818608E-02  0.8535705E-01
         -2   -1    0    0    0  501 -0.00000000000E+00  0.00000000000E+00  0.17434187565E+04  0.17434187565E+04  0.00000000000E+00 0.  1.
          2   -1    0    0  501    0  0.00000000000E+00 -0.00000000000E+00 -0.66838802985E+03  0.66838802985E+03  0.00000000000E+00 0. -1.
         23    2    1    2    0    0 -0.57200855689E+03  0.49064935994E+03 -0.76936324500E+02  0.76295058432E+03  0.90795443375E+02 0.  0.
        254    2    1    2    0    0  0.57200855689E+03 -0.49064935994E+03  0.11519670511E+04  0.16488562020E+04  0.90761671673E+03 0.  0.
         23    2    4    4    0    0  0.25729740554E+03 -0.43713681847E+02 -0.87898005324E+02  0.29071914105E+03  0.93159641242E+02 0.  0.
         23    2    4    4    0    0  0.31471115135E+03 -0.44693567809E+03  0.12398650565E+04  0.13581370610E+04  0.92066872533E+02 0.  0.
          4    1    3    3  502    0 -0.45200024974E+03  0.38062363696E+03 -0.97299396106E+02  0.59887039605E+03  0.00000000000E+00 0. -1.
         -4    1    3    3    0  502 -0.12000830714E+03  0.11002572298E+03  0.20363071606E+02  0.16408018828E+03  0.00000000000E+00 0.  1.
         11    1    5    5    0    0  0.19183303251E+03 -0.38904042632E+02 -0.20779101519E+02  0.19683802467E+03  0.00000000000E+00 0. -1.
        -11    1    5    5    0    0  0.65464373028E+02 -0.48096392155E+01 -0.67118903806E+02  0.93881116383E+02  0.00000000000E+00 0.  1.
          1    1    6    6  503    0  0.66616227175E+00 -0.21538813126E+02  0.89689284231E+02  0.92241703957E+02  0.00000000000E+00 0. -1.
         -1    1    6    6    0  503  0.31404498908E+03 -0.42539686496E+03  0.11501757722E+04  0.12658953570E+04  0.00000000000E+00 0.  1.
<mgrwt>
<rscale>  0 0.21589629E+04</rscale>
<asrwt>0</asrwt>
<pdfrwt beam="1">  1        2 0.10282893E+00 0.21589629E+04</pdfrwt>
<pdfrwt beam="2">  1       -2 0.26821827E+00 0.21589629E+04</pdfrwt>
<totfact> 0.19794643E+00</totfact>
</mgrwt>
</event>
<event>
12    2  0.3555611E-008  0.2784753E+04  0.7818608E-02  0.8308018E-01
         -1   -1    0    0    0  501 -0.00000000000E+00  0.00000000000E+00  0.72346267654E+03  0.72346267654E+03  0.00000000000E+00 0. -1.
          1   -1    0    0  501    0  0.00000000000E+00 -0.00000000000E+00 -0.26797673748E+04  0.26797673748E+04  0.00000000000E+00 0.  1.
         23    2    1    2    0    0 -0.38119614663E+03 -0.72334107271E+03 -0.20268912903E+04  0.21876916379E+04  0.95778860898E+02 0.  0.
        254    2    1    2    0    0  0.38119614663E+03  0.72334107271E+03  0.70586592091E+02  0.12155384134E+04  0.89667070753E+03 0.  0.
         23    2    4    4    0    0 -0.16737487787E+03  0.13499802600E+03 -0.25168477071E+03  0.34393970036E+03  0.93329935786E+02 0.  0.
         23    2    4    4    0    0  0.54857102451E+03  0.58834304671E+03  0.32227136280E+03  0.87159871302E+03  0.93529544629E+02 0.  0.
          3    1    3    3  502    0 -0.19142691695E+03 -0.35600610540E+03 -0.87519679387E+03  0.96403010306E+03  0.00000000000E+00 0. -1.
         -3    1    3    3    0  502 -0.18976922968E+03 -0.36733496731E+03 -0.11516944964E+04  0.12236615349E+04  0.00000000000E+00 0.  1.
         11    1    5    5    0    0 -0.16571986992E+03  0.96330939451E+02 -0.23060465182E+03  0.29986868896E+03  0.00000000000E+00 0.  1.
        -11    1    5    5    0    0 -0.16550079591E+01  0.38667086550E+02 -0.21080118888E+02  0.44071011401E+02  0.00000000000E+00 0. -1.
          3    1    6    6  503    0  0.28761821300E+03  0.32268506188E+03  0.22207092521E+03  0.48596849839E+03  0.00000000000E+00 0. -1.
         -3    1    6    6    0  503  0.26095281151E+03  0.26565798484E+03  0.10020043758E+03  0.38563021463E+03  0.00000000000E+00 0.  1.
<mgrwt>
<rscale>  0 0.27847525E+04</rscale>
<asrwt>0</asrwt>
<pdfrwt beam="1">  1        1 0.41227190E+00 0.27847525E+04</pdfrwt>
<pdfrwt beam="2">  1       -1 0.11130195E+00 0.27847525E+04</pdfrwt>
<totfact> 0.65213370E-01</totfact>
</mgrwt>
</event>
<event>
12    2  0.3555611E-008  0.1514884E+04  0.7818608E-02  0.8874615E-01
         -2   -1    0    0    0  501 -0.00000000000E+00  0.00000000000E+00  0.81654804410E+03  0.81654804410E+03  0.00000000000E+00 0.  1.
          2   -1    0    0  501    0  0.00000000000E+00 -0.00000000000E+00 -0.70261431266E+03  0.70261431266E+03  0.00000000000E+00 0. -1.
         23    2    1    2    0    0  0.11817451970E+03 -0.67012848220E+02 -0.42632992960E+03  0.45650897742E+03  0.90483692763E+02 0.  0.
        254    2    1    2    0    0 -0.11817451970E+03  0.67012848220E+02  0.54026366104E+03  0.10626533793E+04  0.90492620819E+03 0.  0.
         23    2    4    4    0    0 -0.16881547643E+03 -0.11433103343E+02 -0.21889925248E+03  0.29203450208E+03  0.93476664128E+02 0.  0.
         23    2    4    4    0    0  0.50640956732E+02  0.78445951563E+02  0.75916291352E+03  0.77061887726E+03  0.93844823581E+02 0.  0.
          1    1    3    3  502    0  0.10375157993E+03 -0.54581959083E+02 -0.42058859745E+03  0.43662151677E+03  0.00000000000E+00 0. -1.
         -1    1    3    3    0  502  0.14422939768E+02 -0.12430889138E+02 -0.57413321478E+01  0.19887460651E+02  0.00000000000E+00 0.  1.
         11    1    5    5    0    0  0.31582106738E+01  0.31490305042E+01  0.66624900746E+01  0.80174473351E+01  0.00000000000E+00 0.  1.
        -11    1    5    5    0    0 -0.17197368710E+03 -0.14582133847E+02 -0.22556174256E+03  0.28401705475E+03  0.00000000000E+00 0. -1.
          4    1    6    6  503    0 -0.36164703058E+01  0.77931913150E+02  0.43241534238E+03  0.43939673448E+03  0.00000000000E+00 0. -1.
         -4    1    6    6    0  503  0.54257427038E+02  0.51403841309E+00  0.32674757114E+03  0.33122214278E+03  0.00000000000E+00 0.  1.
<mgrwt>
<rscale>  0 0.15148839E+04</rscale>
<asrwt>0</asrwt>
<pdfrwt beam="1">  1        2 0.10809451E+00 0.15148839E+04</pdfrwt>
<pdfrwt beam="2">  1       -2 0.12562278E+00 0.15148839E+04</pdfrwt>
<totfact> 0.18632647E+01</totfact>
</mgrwt>
</event>
<event>
12    2  0.3555611E-008  0.2282072E+04  0.7818608E-02  0.8485023E-01
         -2   -1    0    0    0  501 -0.00000000000E+00  0.00000000000E+00  0.75873629435E+03  0.75873629435E+03  0.00000000000E+00 0.  1.
          2   -1    0    0  501    0  0.00000000000E+00 -0.00000000000E+00 -0.17159633323E+04  0.17159633323E+04  0.00000000000E+00 0. -1.
         23    2    1    2    0    0  0.89141229635E+03  0.24667498036E+03 -0.72755116214E+03  0.11812572309E+04  0.10282764244E+03 0.  0.
        254    2    1    2    0    0 -0.89141229635E+03 -0.24667498036E+03 -0.22967587579E+03  0.12934423957E+04  0.87451574893E+03 0.  0.
         23    2    4    4    0    0 -0.66718625293E+03  0.47282180680E+01 -0.51158850763E+03  0.84559672301E+03  0.90283800742E+02 0.  0.
         23    2    4    4    0    0 -0.22422604342E+03 -0.25140319842E+03  0.28191263184E+03  0.44784567272E+03  0.87236046760E+02 0.  0.
          4    1    3    3  502    0  0.62581675181E+03  0.20568567860E+03 -0.55959805373E+03  0.86435130992E+03  0.00000000000E+00 0. -1.
         -4    1    3    3    0  502  0.26559554454E+03  0.40989301758E+02 -0.16795310841E+03  0.31690592100E+03  0.00000000000E+00 0.  1.
         11    1    5    5    0    0 -0.54341269514E+03 -0.25110028423E+02 -0.38823432309E+03  0.66832159952E+03  0.00000000000E+00 0. -1.
        -11    1    5    5    0    0 -0.12377355779E+03  0.29838246491E+02 -0.12335418455E+03  0.17727512349E+03  0.00000000000E+00 0.  1.
          3    1    6    6  503    0 -0.22264250843E+03 -0.22287868272E+03  0.23542115322E+03  0.39327816257E+03  0.00000000000E+00 0. -1.
         -3    1    6    6    0  503 -0.15835349912E+01 -0.28524515707E+02  0.46491478626E+02  0.54567510152E+02  0.00000000000E+00 0.  1.
<mgrwt>
<rscale>  0 0.22820724E+04</rscale>
<asrwt>0</asrwt>
<pdfrwt beam="1">  1        2 0.26399435E+00 0.22820724E+04</pdfrwt>
<pdfrwt beam="2">  1       -2 0.11672866E+00 0.22820724E+04</pdfrwt>
<totfact> 0.49600113E+00</totfact>
</mgrwt>
</event>
<event>
12    2  0.3555611E-008  0.2975521E+04  0.7818608E-02  0.8250756E-01
         -2   -1    0    0    0  501 -0.00000000000E+00  0.00000000000E+00  0.25130016104E+04  0.25130016104E+04  0.00000000000E+00 0. -1.
          2   -1    0    0  501    0  0.00000000000E+00 -0.00000000000E+00 -0.88079201792E+03  0.88079201792E+03  0.00000000000E+00 0.  1.
         23    2    1    2    0    0 -0.10928383097E+03  0.76999511492E+02  0.22712360470E+04  0.22770034760E+04  0.91431769120E+02 0.  0.
        254    2    1    2    0    0  0.10928383097E+03 -0.76999511492E+02 -0.63902645443E+03  0.11167901523E+04  0.90608694638E+03 0.  0.
         23    2    4    4    0    0  0.10000256189E+03  0.26370150102E+03  0.85750674566E+02  0.31066914590E+03  0.98097635055E+02 0.  0.
         23    2    4    4    0    0  0.92812690806E+01 -0.34070101251E+03 -0.72477712900E+03  0.80612100643E+03  0.91465121261E+02 0.  0.
          3    1    3    3  502    0 -0.12129056435E+03  0.52612378211E+02  0.20141103213E+04  0.20184449088E+04  0.00000000000E+00 0. -1.
         -3    1    3    3    0  502  0.12006733383E+02  0.24387133281E+02  0.25712572563E+03  0.25855856725E+03  0.00000000000E+00 0.  1.
         11    1    5    5    0    0  0.21992328950E+02  0.12213398717E+03 -0.70265675437E+01  0.12429700723E+03  0.00000000000E+00 0. -1.
        -11    1    5    5    0    0  0.78010232936E+02  0.14156751385E+03  0.92777242110E+02  0.18637213867E+03  0.00000000000E+00 0.  1.
          4    1    6    6  503    0  0.61879177844E+01 -0.50851027644E+02 -0.20163670125E+03  0.20804200688E+03  0.00000000000E+00 0. -1.
         -4    1    6    6    0  503  0.30933512963E+01 -0.28984998486E+03 -0.52314042775E+03  0.59807899955E+03  0.00000000000E+00 0.  1.
<mgrwt>
<rscale>  0 0.29755213E+04</rscale>
<asrwt>0</asrwt>
<pdfrwt beam="1">  1        2 0.13550647E+00 0.29755213E+04</pdfrwt>
<pdfrwt beam="2">  1       -2 0.38661563E+00 0.29755213E+04</pdfrwt>
<totfact> 0.23503436E-01</totfact>
</mgrwt>
</event>
<event>
12    2  0.3555611E-008  0.2221565E+04  0.7818608E-02  0.8509505E-01
          2   -1    0    0  501    0  0.00000000000E+00  0.00000000000E+00  0.11869894601E+04  0.11869894601E+04  0.00000000000E+00 0.  1.
         -2   -1    0    0    0  501 -0.00000000000E+00 -0.00000000000E+00 -0.10394685624E+04  0.10394685624E+04  0.00000000000E+00 0. -1.
         23    2    1    2    0    0  0.16998909263E+03  0.27088706358E+03 -0.80962948781E+03  0.87640566588E+03  0.10154255669E+03 0.  0.
        254    2    1    2    0    0 -0.16998909263E+03 -0.27088706358E+03  0.95715038554E+03  0.13500523566E+04  0.89678783013E+03 0.  0.
         23    2    4    4    0    0  0.15221886956E+03  0.26580821858E+03  0.31663166491E+03  0.45011782051E+03  0.92335517570E+02 0.  0.
         23    2    4    4    0    0 -0.32220796218E+03 -0.53669528217E+03  0.64051872063E+03  0.89993453612E+03  0.88080310105E+02 0.  0.
          2    1    3    3  502    0  0.18388888353E+03  0.24944064775E+03 -0.74248381354E+03  0.80456073208E+03  0.00000000000E+00 0. -1.
         -2    1    3    3    0  502 -0.13899790899E+02  0.21446415832E+02 -0.67145674267E+02  0.71844933794E+02  0.00000000000E+00 0.  1.
         11    1    5    5    0    0 -0.20699004005E+01 -0.19762006410E+01 -0.39151804087E+01  0.48495870210E+01  0.00000000000E+00 0.  1.
        -11    1    5    5    0    0  0.15428876996E+03  0.26778441922E+03  0.32054684532E+03  0.44526823349E+03  0.00000000000E+00 0. -1.
          3    1    6    6  503    0 -0.23380632499E+03 -0.41456543764E+03  0.53407847474E+03  0.71538081948E+03  0.00000000000E+00 0. -1.
         -3    1    6    6    0  503 -0.88401637191E+02 -0.12212984452E+03  0.10644024589E+03  0.18455371664E+03  0.00000000000E+00 0.  1.
<mgrwt>
<rscale>  0 0.22215654E+04</rscale>
<asrwt>0</asrwt>
<pdfrwt beam="1">  1        2 0.18261376E+00 0.22215654E+04</pdfrwt>
<pdfrwt beam="2">  1       -2 0.15991824E+00 0.22215654E+04</pdfrwt>
<totfact> 0.44385083E+00</totfact>
</mgrwt>
</event>
<event>
12    2  0.3555611E-008  0.1439994E+04  0.7818608E-02  0.8925367E-01
          2   -1    0    0  501    0  0.00000000000E+00  0.00000000000E+00  0.13999200230E+04  0.13999200230E+04  0.00000000000E+00 0. -1.
         -2   -1    0    0    0  501 -0.00000000000E+00 -0.00000000000E+00 -0.37030386234E+03  0.37030386234E+03  0.00000000000E+00 0.  1.
         23    2    1    2    0    0  0.16680486320E+03  0.13005119934E+03 -0.14644734630E+03  0.27365868935E+03  0.93300997747E+02 0.  0.
        254    2    1    2    0    0 -0.16680486320E+03 -0.13005119934E+03  0.11760635069E+04  0.14965651960E+04  0.90102432632E+03 0.  0.
         23    2    4    4    0    0 -0.30123981749E+03 -0.37196949349E+03  0.10880261723E+04  0.11921223765E+04  0.90818925356E+02 0.  0.
         23    2    4    4    0    0  0.13443495428E+03  0.24191829415E+03  0.88037334614E+02  0.30444281946E+03  0.91310678758E+02 0.  0.
          3    1    3    3  502    0  0.50704700096E+02  0.73673302385E+02 -0.10538382851E+03  0.13821893288E+03  0.00000000000E+00 0. -1.
         -3    1    3    3    0  502  0.11610016311E+03  0.56377896953E+02 -0.41063517790E+02  0.13543975647E+03  0.00000000000E+00 0.  1.
         11    1    5    5    0    0 -0.26062278919E+03 -0.26044284501E+03  0.81560896737E+03  0.89497078243E+03  0.00000000000E+00 0. -1.
        -11    1    5    5    0    0 -0.40617028299E+02 -0.11152664849E+03  0.27241720495E+03  0.29715159408E+03  0.00000000000E+00 0.  1.
          3    1    6    6  503    0  0.13595933254E+03  0.24028664600E+03  0.68071480976E+02  0.28435249054E+03  0.00000000000E+00 0. -1.
         -3    1    6    6    0  503 -0.15243782544E+01  0.16316481498E+01  0.19965853638E+02  0.20090328923E+02  0.00000000000E+00 0.  1.
<mgrwt>
<rscale>  0 0.14399942E+04</rscale>
<asrwt>0</asrwt>
<pdfrwt beam="1">  1        2 0.21537231E+00 0.14399942E+04</pdfrwt>
<pdfrwt beam="2">  1       -2 0.56969826E-01 0.14399942E+04</pdfrwt>
<totfact> 0.40565519E+01</totfact>
</mgrwt>
</event>
<event>
12    2  0.3555611E-008  0.1177699E+04  0.7818608E-02  0.9132603E-01
          2   -1    0    0  501    0  0.00000000000E+00  0.00000000000E+00  0.12362145770E+04  0.12362145770E+04  0.00000000000E+00 0. -1.
         -2   -1    0    0    0  501 -0.00000000000E+00 -0.00000000000E+00 -0.28048849233E+03  0.28048849233E+03  0.00000000000E+00 0.  1.
         23    2    1    2    0    0  0.21202124075E+03  0.19815570873E+02  0.16367480824E+03  0.28338901287E+03  0.90411428393E+02 0.  0.
        254    2    1    2    0    0 -0.21202124075E+03 -0.19815570873E+02  0.79205127647E+03  0.12333140565E+04  0.92107148150E+03 0.  0.
         23    2    4    4    0    0 -0.42266369849E+03  0.31306804947E+03  0.37526302748E+03  0.65265924998E+03  0.92117051424E+02 0.  0.
         23    2    4    4    0    0  0.21064245774E+03 -0.33288362034E+03  0.41678824899E+03  0.58065480653E+03  0.90916501007E+02 0.  0.
          1    1    3    3  502    0  0.14469986626E+03 -0.86929762976E+01  0.15076339425E+03  0.20914879913E+03  0.00000000000E+00 0. -1.
         -1    1    3    3    0  502  0.67321374488E+02  0.28508547171E+02  0.12911413998E+02  0.74240213740E+02  0.00000000000E+00 0.  1.
         11    1    5    5    0    0 -0.25816590794E+03  0.23444447914E+03  0.27823946096E+03  0.44612895833E+03  0.00000000000E+00 0.  1.
        -11    1    5    5    0    0 -0.16449779055E+03  0.78623570327E+02  0.97023566519E+02  0.20653029165E+03  0.00000000000E+00 0. -1.
          4    1    6    6  503    0 -0.31753188373E+01  0.41015948925E+01  0.56454859552E+01  0.76666317279E+01  0.00000000000E+00 0. -1.
         -4    1    6    6    0  503  0.21381777658E+03 -0.33698521524E+03  0.41114276303E+03  0.57298817480E+03  0.00000000000E+00 0.  1.
<mgrwt>
<rscale>  0 0.11776994E+04</rscale>
<asrwt>0</asrwt>
<pdfrwt beam="1">  1        2 0.19018686E+00 0.11776994E+04</pdfrwt>
<pdfrwt beam="2">  1       -2 0.43152076E-01 0.11776994E+04</pdfrwt>
<totfact> 0.90632654E+01</totfact>
</mgrwt>
</event>
<event>
12    2  0.3555611E-008  0.1293282E+04  0.7818608E-02  0.9034910E-01
         -2   -1    0    0    0  501 -0.00000000000E+00  0.00000000000E+00  0.53445369183E+03  0.53445369183E+03  0.00000000000E+00 0.  1.
          2   -1    0    0  501    0  0.00000000000E+00 -0.00000000000E+00 -0.78237742824E+03  0.78237742824E+03  0.00000000000E+00 0. -1.
         23    2    1    2    0    0 -0.49253115116E+02 -0.28821435237E+03 -0.20699249252E+03  0.36947435236E+03  0.90399241329E+02 0.  0.
        254    2    1    2    0    0  0.49253115116E+02  0.28821435237E+03 -0.40931243895E+02  0.94735676771E+03  0.90017559194E+03 0.  0.
         23    2    4    4    0    0 -0.16424075596E+03 -0.27715717485E+03 -0.44985881395E+02  0.33761980257E+03  0.90400641995E+02 0.  0.
         23    2    4    4    0    0  0.21349387108E+03  0.56537152722E+03  0.40546374999E+01  0.60973696514E+03  0.80858702658E+02 0.  0.
          1    1    3    3  502    0 -0.21983641605E+02 -0.26562428525E+03 -0.20037311099E+03  0.33345003377E+03  0.00000000000E+00 0. -1.
         -1    1    3    3    0  502 -0.27269473512E+02 -0.22590067119E+02 -0.66193815247E+01  0.36024318589E+02  0.00000000000E+00 0.  1.
         11    1    5    5    0    0 -0.10069052354E+03 -0.18856307853E+03  0.12945958301E+02  0.21415464962E+03  0.00000000000E+00 0.  1.
        -11    1    5    5    0    0 -0.63550232418E+02 -0.88594096314E+02 -0.57931839696E+02  0.12346515295E+03  0.00000000000E+00 0. -1.
          2    1    6    6  503    0  0.55455259691E+02  0.16791300614E+03  0.37287444053E+02  0.18072193266E+03  0.00000000000E+00 0. -1.
         -2    1    6    6    0  503  0.15803861139E+03  0.39745852107E+03 -0.33232806553E+02  0.42901503248E+03  0.00000000000E+00 0.  1.
<mgrwt>
<rscale>  0 0.12932819E+04</rscale>
<asrwt>0</asrwt>
<pdfrwt beam="1">  1        2 0.12036576E+00 0.12932819E+04</pdfrwt>
<pdfrwt beam="2">  1       -2 0.82223646E-01 0.12932819E+04</pdfrwt>
<totfact> 0.45225445E+01</totfact>
</mgrwt>
</event>
<event>
12    2  0.3555611E-008  0.1063897E+04  0.7818608E-02  0.9241113E-01
         -2   -1    0    0    0  501 -0.00000000000E+00  0.00000000000E+00  0.77281220812E+03  0.77281220812E+03  0.00000000000E+00 0.  1.
          2   -1    0    0  501    0  0.00000000000E+00 -0.00000000000E+00 -0.36615507269E+03  0.36615507269E+03  0.00000000000E+00 0. -1.
         23    2    1    2    0    0 -0.80964397661E+02  0.69490012457E+02 -0.14326980908E+01  0.14402560202E+03  0.96732755018E+02 0.  0.
        254    2    1    2    0    0  0.80964397661E+02 -0.69490012457E+02  0.40808983352E+03  0.99494167879E+03  0.90110351040E+03 0.  0.
         23    2    4    4    0    0  0.44857755191E+03 -0.12991270819E+03  0.37920471518E+03  0.60961286374E+03  0.98653412451E+02 0.  0.
         23    2    4    4    0    0 -0.36761315425E+03  0.60422695737E+02  0.28885118337E+02  0.38532881506E+03  0.94093635867E+02 0.  0.
          3    1    3    3  502    0  0.48389464749E+01  0.65899082614E+01 -0.32244285233E+02  0.33264639244E+02  0.00000000000E+00 0. -1.
         -3    1    3    3    0  502 -0.85803344136E+02  0.62900104195E+02  0.30811587142E+02  0.11076096278E+03  0.00000000000E+00 0.  1.
         11    1    5    5    0    0  0.13232819201E+03 -0.25842996650E+02  0.57272233106E+02  0.14648795023E+03  0.00000000000E+00 0.  1.
        -11    1    5    5    0    0  0.31624935990E+03 -0.10406971154E+03  0.32193248207E+03  0.46312491351E+03  0.00000000000E+00 0. -1.
          3    1    6    6  503    0 -0.32926879019E+03  0.60936088311E+02 -0.38910573535E+01  0.33488249190E+03  0.00000000000E+00 0. -1.
         -3    1    6    6    0  503 -0.38344364063E+02 -0.51339257411E+00  0.32776175690E+02  0.50446323158E+02  0.00000000000E+00 0.  1.
<mgrwt>
<rscale>  0 0.10638968E+04</rscale>
<asrwt>0</asrwt>
<pdfrwt beam="1">  1        2 0.56331550E-01 0.10638968E+04</pdfrwt>
<pdfrwt beam="2">  1       -2 0.11889419E+00 0.10638968E+04</pdfrwt>
<totfact> 0.47472091E+01</totfact>
</mgrwt>
</event>
<event>
12    2  0.3555611E-008  0.1883269E+04  0.7818608E-02  0.8663229E-01
          2   -1    0    0  501    0  0.00000000000E+00  0.00000000000E+00  0.75544923537E+03  0.75544923537E+03  0.00000000000E+00 0. -1.
         -2   -1    0    0    0  501 -0.00000000000E+00 -0.00000000000E+00 -0.11737068699E+04  0.11737068699E+04  0.00000000000E+00 0.  1.
         23    2    1    2    0    0 -0.35194583782E+03  0.59434936222E+03  0.74640045973E+02  0.70116558007E+03  0.94577994742E+02 0.  0.
        254    2    1    2    0    0  0.35194583782E+03 -0.59434936222E+03 -0.49289768049E+03  0.12279905252E+04  0.88763481757E+03 0.  0.
         23    2    4    4    0    0 -0.40829536097E+02 -0.66632324365E+03 -0.46326036428E+03  0.81770246371E+03  0.91506491564E+02 0.  0.
         23    2    4    4    0    0  0.39277537391E+03  0.71973881432E+02 -0.29637316212E+02  0.41028806147E+03  0.89471721277E+02 0.  0.
          2    1    3    3  502    0 -0.30921326939E+03  0.54281595986E+03  0.93370580869E+02  0.63164869795E+03  0.00000000000E+00 0. -1.
         -2    1    3    3    0  502 -0.42732568429E+02  0.51533402356E+02 -0.18730534895E+02  0.69516882126E+02  0.00000000000E+00 0.  1.
         11    1    5    5    0    0 -0.53576656147E+02 -0.20837762910E+03 -0.13294787785E+03  0.25291665153E+03  0.00000000000E+00 0.  1.
        -11    1    5    5    0    0  0.12747120050E+02 -0.45794561455E+03 -0.33031248643E+03  0.56478581218E+03  0.00000000000E+00 0. -1.
          4    1    6    6  503    0  0.37229437221E+03  0.80116768204E+02 -0.10283068880E+02  0.38095608360E+03  0.00000000000E+00 0. -1.
         -4    1    6    6    0  503  0.20481001704E+02 -0.81428867721E+01 -0.19354247331E+02  0.29331977867E+02  0.00000000000E+00 0.  1.
<mgrwt>
<rscale>  0 0.18832695E+04</rscale>
<asrwt>0</asrwt>
<pdfrwt beam="1">  1        2 0.11622296E+00 0.18832695E+04</pdfrwt>
<pdfrwt beam="2">  1       -2 0.18057029E+00 0.18832695E+04</pdfrwt>
<totfact> 0.62563004E+00</totfact>
</mgrwt>
</event>
<event>
12    2  0.3555611E-008  0.3202451E+04  0.7818608E-02  0.8188170E-01
          2   -1    0    0  501    0  0.00000000000E+00  0.00000000000E+00  0.15587955336E+04  0.15587955336E+04  0.00000000000E+00 0. -1.
         -2   -1    0    0    0  501 -0.00000000000E+00 -0.00000000000E+00 -0.16448103505E+04  0.16448103505E+04  0.00000000000E+00 0.  1.
         23    2    1    2    0    0 -0.15492928414E+03  0.14467739292E+04 -0.22141056785E+03  0.14741969015E+04  0.84118843048E+02 0.  0.
        254    2    1    2    0    0  0.15492928414E+03 -0.14467739292E+04  0.13539575092E+03  0.17294089826E+04  0.92485973779E+03 0.  0.
         23    2    4    4    0    0  0.34802602774E+03 -0.14240914944E+04 -0.15047640854E+02  0.14687460246E+04  0.88485890751E+02 0.  0.
         23    2    4    4    0    0 -0.19309674360E+03 -0.22682434796E+02  0.15044339177E+03  0.26066295805E+03  0.86666708322E+02 0.  0.
          1    1    3    3  502    0 -0.14135309951E+03  0.11679690060E+04 -0.14953659449E+03  0.11859567829E+04  0.00000000000E+00 0. -1.
         -1    1    3    3    0  502 -0.13576184629E+02  0.27880492313E+03 -0.71873973353E+02  0.28824011865E+03  0.00000000000E+00 0.  1.
         11    1    5    5    0    0  0.18645068206E+03 -0.66953458598E+03  0.31085601752E+02  0.69570592444E+03  0.00000000000E+00 0.  1.
        -11    1    5    5    0    0  0.16157534568E+03 -0.75455690838E+03 -0.46133242606E+02  0.77304010012E+03  0.00000000000E+00 0. -1.
          1    1    6    6  503    0 -0.62305270874E+02 -0.32853094356E+01  0.27808540247E+01  0.62453768388E+02  0.00000000000E+00 0.  1.
         -1    1    6    6    0  503 -0.13079147273E+03 -0.19397125360E+02  0.14766253775E+03  0.19820918966E+03  0.00000000000E+00 0. -1.
<mgrwt>
<rscale>  0 0.32024510E+04</rscale>
<asrwt>0</asrwt>
<pdfrwt beam="1">  1        2 0.23981470E+00 0.32024510E+04</pdfrwt>
<pdfrwt beam="2">  1       -2 0.25304775E+00 0.32024510E+04</pdfrwt>
<totfact> 0.60944858E-01</totfact>
</mgrwt>
</event>
<event>
12    2  0.3555611E-008  0.1435490E+04  0.7818608E-02  0.8928522E-01
         -2   -1    0    0    0  501 -0.00000000000E+00  0.00000000000E+00  0.48866262522E+03  0.48866262522E+03  0.00000000000E+00 0.  1.
          2   -1    0    0  501    0  0.00000000000E+00 -0.00000000000E+00 -0.10542206678E+04  0.10542206678E+04  0.00000000000E+00 0. -1.
         23    2    1    2    0    0 -0.61220914742E+02  0.35940487446E+03 -0.41101344889E+03  0.55724739073E+03  0.93127520798E+02 0.  0.
        254    2    1    2    0    0  0.61220914742E+02 -0.35940487446E+03 -0.15454459373E+03  0.98563590233E+03  0.90259306241E+03 0.  0.
         23    2    4    4    0    0 -0.38714032476E+03 -0.30977459714E+03 -0.15361434926E+03  0.52686665562E+03  0.90294919115E+02 0.  0.
         23    2    4    4    0    0  0.44836123951E+03 -0.49630277316E+02 -0.93024447009E+00  0.45876924670E+03  0.83530777842E+02 0.  0.
          2    1    3    3  502    0 -0.58622961381E+02  0.35254008233E+03 -0.36564843216E+03  0.51129241848E+03  0.00000000000E+00 0. -1.
         -2    1    3    3    0  502 -0.25979533615E+01  0.68647921262E+01 -0.45365016728E+02  0.45954972259E+02  0.00000000000E+00 0.  1.
         11    1    5    5    0    0 -0.36650862750E+03 -0.25799115733E+03 -0.13488076177E+03  0.46806071315E+03  0.00000000000E+00 0.  1.
        -11    1    5    5    0    0 -0.20631697259E+02 -0.51783439811E+02 -0.18733587484E+02  0.58805942476E+02  0.00000000000E+00 0. -1.
          3    1    6    6  503    0  0.48589882585E+00  0.59920590671E+01  0.43530979915E+01  0.74222861476E+01  0.00000000000E+00 0. -1.
         -3    1    6    6    0  503  0.44787534068E+03 -0.55622336383E+02 -0.52833424616E+01  0.45134696055E+03  0.00000000000E+00 0.  1.
<mgrwt>
<rscale>  0 0.14354905E+04</rscale>
<asrwt>0</asrwt>
<pdfrwt beam="1">  1        2 0.16218779E+00 0.14354905E+04</pdfrwt>
<pdfrwt beam="2">  1       -2 0.75178866E-01 0.14354905E+04</pdfrwt>
<totfact> 0.35883658E+01</totfact>
</mgrwt>
</event>
<event>
12    2  0.3555611E-008  0.2632419E+04  0.7818608E-02  0.8357272E-01
         -2   -1    0    0    0  501 -0.00000000000E+00  0.00000000000E+00  0.63924606359E+03  0.63924606359E+03  0.00000000000E+00 0.  1.
          2   -1    0    0  501    0  0.00000000000E+00 -0.00000000000E+00 -0.27100789824E+04  0.27100789824E+04  0.00000000000E+00 0. -1.
         23    2    1    2    0    0 -0.44385349768E+03  0.47540069416E+01 -0.22591316994E+04  0.23039175092E+04  0.85623161151E+02 0.  0.
        254    2    1    2    0    0  0.44385349768E+03 -0.47540069416E+01  0.18829878058E+03  0.10454075369E+04  0.92757315580E+03 0.  0.
         23    2    4    4    0    0  0.20190189884E+03  0.83454208718E+02 -0.36122871104E+03  0.43185429090E+03  0.91010797046E+02 0.  0.
         23    2    4    4    0    0  0.24195159883E+03 -0.88208215659E+02  0.54952749162E+03  0.61355324595E+03  0.90254396472E+02 0.  0.
          4    1    3    3  502    0 -0.41938733754E+03 -0.12303188633E+01 -0.22004342988E+04  0.22400442755E+04  0.00000000000E+00 0. -1.
         -4    1    3    3    0  502 -0.24466160140E+02  0.59843258049E+01 -0.58697400597E+02  0.63873233707E+02  0.00000000000E+00 0.  1.
         11    1    5    5    0    0  0.16088131278E+02 -0.18609241294E+02 -0.34441166110E+02  0.42324056429E+02  0.00000000000E+00 0.  1.
        -11    1    5    5    0    0  0.18581376756E+03  0.10206345001E+03 -0.32678754493E+03  0.38953023447E+03  0.00000000000E+00 0. -1.
          1    1    6    6  503    0  0.14829676518E+03 -0.51597598622E+02  0.22929227309E+03  0.27790140202E+03  0.00000000000E+00 0. -1.
         -1    1    6    6    0  503  0.93654833656E+02 -0.36610617037E+02  0.32023521853E+03  0.33565184393E+03  0.00000000000E+00 0.  1.
<mgrwt>
<rscale>  0 0.26324189E+04</rscale>
<asrwt>0</asrwt>
<pdfrwt beam="1">  1        2 0.41693523E+00 0.26324189E+04</pdfrwt>
<pdfrwt beam="2">  1       -2 0.98345547E-01 0.26324189E+04</pdfrwt>
<totfact> 0.19847417E+00</totfact>
</mgrwt>
</event>
<event>
12    2  0.3555611E-008  0.3084401E+04  0.7818608E-02  0.8220032E-01
         -2   -1    0    0    0  501 -0.00000000000E+00  0.00000000000E+00  0.17301205008E+04  0.17301205008E+04  0.00000000000E+00 0.  1.
          2   -1    0    0  501    0  0.00000000000E+00 -0.00000000000E+00 -0.13746920826E+04  0.13746920826E+04  0.00000000000E+00 0. -1.
         23    2    1    2    0    0 -0.10081705863E+04  0.97060492992E+03 -0.13342321326E+03  0.14085752604E+04  0.88321284945E+02 0.  0.
        254    2    1    2    0    0  0.10081705863E+04 -0.97060492992E+03  0.48885163149E+03  0.16962373230E+04  0.82447757848E+03 0.  0.
         23    2    4    4    0    0  0.51886018481E+03 -0.24889382147E+03 -0.16124949581E+03  0.60469268941E+03  0.92129381708E+02 0.  0.
         23    2    4    4    0    0  0.48931040146E+03 -0.72171110845E+03  0.65010112730E+03  0.10915446336E+04  0.92447922833E+02 0.  0.
          3    1    3    3  502    0 -0.90217207178E+02  0.12480020476E+03 -0.17955679281E+02  0.15503755028E+03  0.00000000000E+00 0.  1.
         -3    1    3    3    0  502 -0.91795337909E+03  0.84580472516E+03 -0.11546753397E+03  0.12535377101E+04  0.00000000000E+00 0. -1.
         11    1    5    5    0    0  0.88505628454E+02 -0.72251532011E+02 -0.65161889325E+01  0.11443771609E+03  0.00000000000E+00 0. -1.
        -11    1    5    5    0    0  0.43035455636E+03 -0.17664228946E+03 -0.15473330688E+03  0.49025497332E+03  0.00000000000E+00 0.  1.
          1    1    6    6  503    0  0.15357985794E+03 -0.23884974160E+03  0.26619234839E+03  0.38922273593E+03  0.00000000000E+00 0. -1.
         -1    1    6    6    0  503  0.33573054351E+03 -0.48286136685E+03  0.38390877891E+03  0.70232189769E+03  0.00000000000E+00 0.  1.
<mgrwt>
<rscale>  0 0.30844014E+04</rscale>
<asrwt>0</asrwt>
<pdfrwt beam="1">  1        2 0.21149109E+00 0.30844014E+04</pdfrwt>
<pdfrwt beam="2">  1       -2 0.26617239E+00 0.30844014E+04</pdfrwt>
<totfact> 0.65061900E-01</totfact>
</mgrwt>
</event>
<event>
12    2  0.3555611E-008  0.1480425E+04  0.7818608E-02  0.8897576E-01
         -2   -1    0    0    0  501 -0.00000000000E+00  0.00000000000E+00  0.16352028385E+03  0.16352028385E+03  0.00000000000E+00 0.  1.
          2   -1    0    0  501    0  0.00000000000E+00 -0.00000000000E+00 -0.33507414401E+04  0.33507414401E+04  0.00000000000E+00 0. -1.
         23    2    1    2    0    0 -0.29306931573E+03  0.47079170894E+02 -0.17327905938E+03  0.35537106969E+03  0.90315516948E+02 0.  0.
        254    2    1    2    0    0  0.29306931573E+03 -0.47079170894E+02 -0.30139420969E+04  0.31588906543E+04  0.89812979580E+03 0.  0.
         23    2    4    4    0    0 -0.82615160751E+01 -0.36797021883E+03 -0.21672328570E+04  0.22000185006E+04  0.87822615704E+02 0.  0.
         23    2    4    4    0    0  0.30133083180E+03  0.32089104793E+03 -0.84670923995E+03  0.95887215375E+03  0.93530398239E+02 0.  0.
          4    1    3    3  502    0 -0.13495884484E+03  0.46010059917E+02 -0.12615610762E+03  0.19038429269E+03  0.00000000000E+00 0.  1.
         -4    1    3    3    0  502 -0.15811047089E+03  0.10691109773E+01 -0.47122951760E+02  0.16498677700E+03  0.00000000000E+00 0. -1.
         11    1    5    5    0    0  0.70467595051E+01 -0.23815931829E+03 -0.16178252983E+04  0.16352761887E+04  0.00000000000E+00 0. -1.
        -11    1    5    5    0    0 -0.15308275580E+02 -0.12981090054E+03 -0.54940755871E+03  0.56474231183E+03  0.00000000000E+00 0.  1.
          4    1    6    6  503    0  0.14712011669E+03  0.12332947990E+03 -0.28310700995E+03  0.34205857456E+03  0.00000000000E+00 0. -1.
         -4    1    6    6    0  503  0.15421071511E+03  0.19756156803E+03 -0.56360223000E+03  0.61681357919E+03  0.00000000000E+00 0.  1.
<mgrwt>
<rscale>  0 0.14804245E+04</rscale>
<asrwt>0</asrwt>
<pdfrwt beam="1">  1        2 0.51549870E+00 0.14804245E+04</pdfrwt>
<pdfrwt beam="2">  1       -2 0.25156966E-01 0.14804245E+04</pdfrwt>
<totfact> 0.14309283E+01</totfact>
</mgrwt>
</event>
<event>
12    2  0.3555611E-008  0.1257480E+04  0.7818608E-02  0.9063981E-01
          2   -1    0    0  501    0  0.00000000000E+00  0.00000000000E+00  0.72048827570E+03  0.72048827570E+03  0.00000000000E+00 0. -1.
         -2   -1    0    0    0  501 -0.00000000000E+00 -0.00000000000E+00 -0.54867514932E+03  0.54867514932E+03  0.00000000000E+00 0.  1.
         23    2    1    2    0    0  0.18780920027E+03  0.29134026979E+02 -0.20103584313E+03  0.29406417698E+03  0.99685719774E+02 0.  0.
        254    2    1    2    0    0 -0.18780920027E+03 -0.29134026979E+02  0.37284896951E+03  0.97509924803E+03  0.88072759819E+03 0.  0.
         23    2    4    4    0    0  0.95324346190E+02 -0.25901297524E+03 -0.15221102225E+03  0.32961917422E+03  0.96468401040E+02 0.  0.
         23    2    4    4    0    0 -0.28313354646E+03  0.22987894826E+03  0.52505999176E+03  0.64548007381E+03  0.89149283534E+02 0.  0.
          4    1    3    3  502    0 -0.68775063714E+00  0.24565120279E+02 -0.13107710187E+02  0.27851933534E+02  0.00000000000E+00 0. -1.
         -4    1    3    3    0  502  0.18849695091E+03  0.45689067004E+01 -0.18792813294E+03  0.26621224345E+03  0.00000000000E+00 0.  1.
         11    1    5    5    0    0  0.33070264563E+02 -0.20783547551E+03 -0.95682017728E+02  0.23118018037E+03  0.00000000000E+00 0. -1.
        -11    1    5    5    0    0  0.62254081627E+02 -0.51177499728E+02 -0.56529004524E+02  0.98438993849E+02  0.00000000000E+00 0.  1.
          3    1    6    6  503    0 -0.28684384214E+03  0.21071439309E+03  0.49786824144E+03  0.61200713318E+03  0.00000000000E+00 0. -1.
         -3    1    6    6    0  503  0.37102956795E+01  0.19164555173E+02  0.27191750317E+02  0.33472940629E+02  0.00000000000E+00 0.  1.
<mgrwt>
<rscale>  0 0.12574800E+04</rscale>
<asrwt>0</asrwt>
<pdfrwt beam="1">  1        2 0.11084435E+00 0.12574800E+04</pdfrwt>
<pdfrwt beam="2">  1       -2 0.84411561E-01 0.12574800E+04</pdfrwt>
<totfact> 0.47544942E+01</totfact>
</mgrwt>
</event>
<event>
12    2  0.3555611E-008  0.2246076E+04  0.7818608E-02  0.8499491E-01
          1   -1    0    0  501    0  0.00000000000E+00  0.00000000000E+00  0.26661406999E+04  0.26661406999E+04  0.00000000000E+00 0. -1.
         -1   -1    0    0    0  501 -0.00000000000E+00 -0.00000000000E+00 -0.47304873190E+03  0.47304873190E+03  0.00000000000E+00 0.  1.
         23    2    1    2    0    0  0.56353854703E+02 -0.25739869481E+03 -0.33866993118E+03  0.43850829663E+03  0.90345774098E+02 0.  0.
        254    2    1    2    0    0 -0.56353854703E+02  0.25739869481E+03  0.25317618992E+04  0.27006811352E+04  0.90245799609E+03 0.  0.
         23    2    4    4    0    0  0.40638380799E+03  0.75070485358E+02  0.13575067823E+04  0.14222005621E+04  0.95112552288E+02 0.  0.
         23    2    4    4    0    0 -0.46273766269E+03  0.18232820945E+03  0.11742551169E+04  0.12784805731E+04  0.90927310779E+02 0.  0.
          4    1    3    3  502    0 -0.23811051314E+02 -0.78970435161E+02 -0.89140457228E+02  0.12144676574E+03  0.00000000000E+00 0. -1.
         -4    1    3    3    0  502  0.80164906017E+02 -0.17842825965E+03 -0.24952947395E+03  0.31706153088E+03  0.00000000000E+00 0.  1.
         11    1    5    5    0    0  0.34031988360E+03  0.48077110087E+02  0.12170935979E+04  0.12646920012E+04  0.00000000000E+00 0. -1.
        -11    1    5    5    0    0  0.66063924389E+02  0.26993375271E+02  0.14041318436E+03  0.15750856089E+03  0.00000000000E+00 0.  1.
          1    1    6    6  503    0 -0.26104967712E+03  0.15050900518E+03  0.71197106664E+03  0.77311234261E+03  0.00000000000E+00 0. -1.
         -1    1    6    6    0  503 -0.20168798557E+03  0.31819204274E+02  0.46228405028E+03  0.50536823053E+03  0.00000000000E+00 0.  1.
<mgrwt>
<rscale>  0 0.22460761E+04</rscale>
<asrwt>0</asrwt>
<pdfrwt beam="1">  1        1 0.41017548E+00 0.22460761E+04</pdfrwt>
<pdfrwt beam="2">  1       -1 0.72776730E-01 0.22460761E+04</pdfrwt>
<totfact> 0.17927442E+00</totfact>
</mgrwt>
</event>
<event>
12    2  0.3555611E-008  0.1998887E+04  0.7818608E-02  0.8607141E-01
         -1   -1    0    0    0  501 -0.00000000000E+00  0.00000000000E+00  0.98651813785E+03  0.98651813785E+03  0.00000000000E+00 0.  1.
          1   -1    0    0  501    0  0.00000000000E+00 -0.00000000000E+00 -0.10125385828E+04  0.10125385828E+04  0.00000000000E+00 0. -1.
         23    2    1    2    0    0  0.59007957147E+03 -0.15612506325E+03 -0.51556983864E+03  0.80411928681E+03  0.90700787507E+02 0.  0.
        254    2    1    2    0    0 -0.59007957147E+03  0.15612506325E+03  0.48954939372E+03  0.11949374338E+04  0.90313228586E+03 0.  0.
         23    2    4    4    0    0 -0.47638507041E+03  0.39677285355E+03  0.62247151905E+03  0.88343932599E+03  0.92859130095E+02 0.  0.
         23    2    4    4    0    0 -0.11369450107E+03 -0.24064779031E+03 -0.13292212533E+03  0.31149810782E+03  0.92330824864E+02 0.  0.
          3    1    3    3  502    0  0.14696335876E+03 -0.64269940920E+02 -0.17755945641E+03  0.23928270870E+03  0.00000000000E+00 0. -1.
         -3    1    3    3    0  502  0.44311621272E+03 -0.91855122326E+02 -0.33801038223E+03  0.56483657811E+03  0.00000000000E+00 0.  1.
         11    1    5    5    0    0 -0.47141872980E+03  0.38420283199E+03  0.62201827089E+03  0.86991618230E+03  0.00000000000E+00 0.  1.
        -11    1    5    5    0    0 -0.49663406128E+01  0.12570021560E+02  0.45324816065E+00  0.13523143680E+02  0.00000000000E+00 0. -1.
          1    1    6    6  503    0 -0.12683647888E+03 -0.22927786686E+03 -0.13358001474E+03  0.29410789337E+03  0.00000000000E+00 0.  1.
         -1    1    6    6    0  503  0.13141977811E+02 -0.11369923449E+02  0.65788941432E+00  0.17390214446E+02  0.00000000000E+00 0. -1.
<mgrwt>
<rscale>  0 0.19988874E+04</rscale>
<asrwt>0</asrwt>
<pdfrwt beam="1">  1        1 0.15577517E+00 0.19988874E+04</pdfrwt>
<pdfrwt beam="2">  1       -1 0.15177202E+00 0.19988874E+04</pdfrwt>
<totfact> 0.46390564E+00</totfact>
</mgrwt>
</event>
<event>
12    2  0.3555611E-008  0.1935174E+04  0.7818608E-02  0.8637543E-01
         -2   -1    0    0    0  501 -0.00000000000E+00  0.00000000000E+00  0.14101287424E+04  0.14101287424E+04  0.00000000000E+00 0.  1.
          2   -1    0    0  501    0  0.00000000000E+00 -0.00000000000E+00 -0.66392856419E+03  0.66392856419E+03  0.00000000000E+00 0. -1.
         23    2    1    2    0    0 -0.14424836044E+03 -0.71835708093E+03  0.13377267774E+03  0.75055593607E+03  0.92707058255E+02 0.  0.
        254    2    1    2    0    0  0.14424836044E+03  0.71835708093E+03  0.61242750044E+03  0.13235013705E+04  0.91637544118E+03 0.  0.
         23    2    4    4    0    0  0.67750217106E+02 -0.15691956118E+03  0.35219873998E+03  0.40239225017E+03  0.93068415484E+02 0.  0.
         23    2    4    4    0    0  0.76498143339E+02  0.87527664211E+03  0.26022876046E+03  0.92110912032E+03  0.93604687956E+02 0.  0.
          4    1    3    3  502    0 -0.12699630847E+03 -0.39927584817E+03  0.74496828864E+02  0.42555733199E+03  0.00000000000E+00 0. -1.
         -4    1    3    3    0  502 -0.17252051971E+02 -0.31908123275E+03  0.59275848871E+02  0.32499860408E+03  0.00000000000E+00 0.  1.
         11    1    5    5    0    0 -0.42380708994E+01  0.10996683498E+02  0.17979944071E+02  0.21498062278E+02  0.00000000000E+00 0. -1.
        -11    1    5    5    0    0  0.71988288005E+02 -0.16791624468E+03  0.33421879590E+03  0.38089418790E+03  0.00000000000E+00 0.  1.
          3    1    6    6  503    0 -0.54017466233E+01  0.89052723418E+02  0.10380887058E+01  0.89222441364E+02  0.00000000000E+00 0. -1.
         -3    1    6    6    0  503  0.81899889963E+02  0.78622391869E+03  0.25919067176E+03  0.83188667895E+03  0.00000000000E+00 0.  1.
<mgrwt>
<rscale>  0 0.19351742E+04</rscale>
<asrwt>0</asrwt>
<pdfrwt beam="1">  1        2 0.10214286E+00 0.19351742E+04</pdfrwt>
<pdfrwt beam="2">  1       -2 0.21694288E+00 0.19351742E+04</pdfrwt>
<totfact> 0.42246324E+00</totfact>
</mgrwt>
</event>
<event>
12    2  0.3555611E-008  0.1631732E+04  0.7818608E-02  0.8801288E-01
          2   -1    0    0  501    0  0.00000000000E+00  0.00000000000E+00  0.43760532365E+03  0.43760532365E+03  0.00000000000E+00 0. -1.
         -2   -1    0    0    0  501 -0.00000000000E+00 -0.00000000000E+00 -0.15210901255E+04  0.15210901255E+04  0.00000000000E+00 0.  1.
         23    2    1    2    0    0 -0.30606785826E+03  0.39826144453E+03 -0.62227149654E+03  0.80487505404E+03  0.91171953748E+02 0.  0.
        254    2    1    2    0    0  0.30606785826E+03 -0.39826144453E+03 -0.46121330531E+03  0.11538203951E+04  0.93074920312E+03 0.  0.
         23    2    4    4    0    0 -0.21920451687E+03 -0.36543888293E+03 -0.44038438509E+03  0.61939206175E+03  0.90066209829E+02 0.  0.
         23    2    4    4    0    0  0.52527237513E+03 -0.32822561598E+02 -0.20828920228E+02  0.53442833336E+03  0.90506413907E+02 0.  0.
          3    1    3    3  502    0 -0.77478519531E+02  0.59025654787E+02 -0.16263204366E+03  0.18956827408E+03  0.00000000000E+00 0. -1.
         -3    1    3    3    0  502 -0.22858933873E+03  0.33923578974E+03 -0.45963945287E+03  0.61530677996E+03  0.00000000000E+00 0.  1.
         11    1    5    5    0    0 -0.13948100762E+03 -0.15561952298E+03 -0.24291105280E+03  0.32043434116E+03  0.00000000000E+00 0.  1.
        -11    1    5    5    0    0 -0.79723509252E+02 -0.20981935995E+03 -0.19747333228E+03  0.29895772059E+03  0.00000000000E+00 0. -1.
          1    1    6    6  503    0  0.36182840511E+02  0.20707317121E+02 -0.66314441082E+01  0.42213350741E+02  0.00000000000E+00 0. -1.
         -1    1    6    6    0  503  0.48908953462E+03 -0.53529878719E+02 -0.14197476120E+02  0.49221498262E+03  0.00000000000E+00 0.  1.
<mgrwt>
<rscale>  0 0.16317318E+04</rscale>
<asrwt>0</asrwt>
<pdfrwt beam="1">  1        2 0.67323896E-01 0.16317318E+04</pdfrwt>
<pdfrwt beam="2">  1       -2 0.23401387E+00 0.16317318E+04</pdfrwt>
<totfact> 0.55413960E+00</totfact>
</mgrwt>
</event>
<event>
12    2  0.3555611E-008  0.2118321E+04  0.7818608E-02  0.8553216E-01
          2   -1    0    0  501    0  0.00000000000E+00  0.00000000000E+00  0.29814704921E+04  0.29814704921E+04  0.00000000000E+00 0. -1.
         -2   -1    0    0    0  501 -0.00000000000E+00 -0.00000000000E+00 -0.37626423716E+03  0.37626423716E+03  0.00000000000E+00 0.  1.
         23    2    1    2    0    0  0.29755443276E+03  0.75838488995E+03  0.62734423870E+03  0.10322854691E+04  0.91467011565E+02 0.  0.
        254    2    1    2    0    0 -0.29755443276E+03 -0.75838488995E+03  0.19778620162E+04  0.23254492601E+04  0.91218957696E+03 0.  0.
         23    2    4    4    0    0 -0.44019370388E+03 -0.37783370706E+03  0.17559821389E+04  0.18517089451E+04  0.93935818812E+02 0.  0.
         23    2    4    4    0    0  0.14263927112E+03 -0.38055118289E+03  0.22187987732E+03  0.47374031501E+03  0.10017006359E+03 0.  0.
          3    1    3    3  502    0  0.52667645155E+02  0.64160463912E+02  0.51736323555E+02  0.97811518497E+02  0.00000000000E+00 0. -1.
         -3    1    3    3    0  502  0.24488678761E+03  0.69422442604E+03  0.57560791514E+03  0.93447395064E+03  0.00000000000E+00 0.  1.
         11    1    5    5    0    0 -0.26982565880E+03 -0.25353368121E+03  0.12458549747E+04  0.12997075946E+04  0.00000000000E+00 0.  1.
        -11    1    5    5    0    0 -0.17036804508E+03 -0.12430002586E+03  0.51012716422E+03  0.55200135044E+03  0.00000000000E+00 0. -1.
          4    1    6    6  503    0  0.51096552987E+02 -0.81204620835E+02  0.97832697516E+02  0.13702658456E+03  0.00000000000E+00 0. -1.
         -4    1    6    6    0  503  0.91542718134E+02 -0.29934656206E+03  0.12404717980E+03  0.33671373045E+03  0.00000000000E+00 0.  1.
<mgrwt>
<rscale>  0 0.21183208E+04</rscale>
<asrwt>0</asrwt>
<pdfrwt beam="1">  1        2 0.45868775E+00 0.21183208E+04</pdfrwt>
<pdfrwt beam="2">  1       -2 0.57886808E-01 0.21183208E+04</pdfrwt>
<totfact> 0.46041263E+00</totfact>
</mgrwt>
</event>
<event>
12    2  0.3555611E-008  0.1200941E+04  0.7818608E-02  0.9112033E-01
         -2   -1    0    0    0  501 -0.00000000000E+00  0.00000000000E+00  0.26065838163E+03  0.26065838163E+03  0.00000000000E+00 0.  1.
          2   -1    0    0  501    0  0.00000000000E+00 -0.00000000000E+00 -0.13832852410E+04  0.13832852410E+04  0.00000000000E+00 0. -1.
         23    2    1    2    0    0 -0.12122006324E+03  0.22545416932E+03 -0.18543435325E+03  0.32854620614E+03  0.89626023061E+02 0.  0.
        254    2    1    2    0    0  0.12122006324E+03 -0.22545416932E+03 -0.93719250615E+03  0.13153974165E+04  0.88680137776E+03 0.  0.
         23    2    4    4    0    0 -0.17645101028E+03 -0.42896790991E+03 -0.25105199575E+03  0.53511014704E+03  0.90373326426E+02 0.  0.
         23    2    4    4    0    0  0.29767107352E+03  0.20351374059E+03 -0.68614051039E+03  0.78028726948E+03  0.89629862712E+02 0.  0.
          4    1    3    3  502    0 -0.93255703128E+01  0.77829797440E+01 -0.44486446884E+02  0.46114910731E+02  0.00000000000E+00 0. -1.
         -4    1    3    3    0  502 -0.11189449293E+03  0.21767118958E+03 -0.14094790637E+03  0.28243129541E+03  0.00000000000E+00 0.  1.
         11    1    5    5    0    0 -0.64002738879E+02 -0.25452802225E+03 -0.16770305074E+03  0.31145654259E+03  0.00000000000E+00 0. -1.
        -11    1    5    5    0    0 -0.11244827140E+03 -0.17443988766E+03 -0.83348945014E+02  0.22365360445E+03  0.00000000000E+00 0.  1.
          3    1    6    6  503    0  0.27372868473E+03  0.20368820448E+03 -0.59333882372E+03  0.68444666499E+03  0.00000000000E+00 0. -1.
         -3    1    6    6    0  503  0.23942388788E+02 -0.17446389003E+00 -0.92801686676E+02  0.95840604487E+02  0.00000000000E+00 0.  1.
<mgrwt>
<rscale>  0 0.12009411E+04</rscale>
<asrwt>0</asrwt>
<pdfrwt beam="1">  1        2 0.21281312E+00 0.12009411E+04</pdfrwt>
<pdfrwt beam="2">  1       -2 0.40101289E-01 0.12009411E+04</pdfrwt>
<totfact> 0.85850133E+01</totfact>
</mgrwt>
</event>
<event>
12    2  0.3555611E-008  0.1776833E+04  0.7818608E-02  0.8718718E-01
         -1   -1    0    0    0  501 -0.00000000000E+00  0.00000000000E+00  0.30153028406E+03  0.30153028406E+03  0.00000000000E+00 0.  1.
          1   -1    0    0  501    0  0.00000000000E+00 -0.00000000000E+00 -0.26175931056E+04  0.26175931056E+04  0.00000000000E+00 0. -1.
         23    2    1    2    0    0  0.61581717112E+03 -0.12605715770E+03 -0.57350005467E+03  0.85571582406E+03  0.90697649291E+02 0.  0.
        254    2    1    2    0    0 -0.61581717112E+03  0.12605715770E+03 -0.17425627669E+04  0.20634075656E+04  0.90884794658E+03 0.  0.
         23    2    4    4    0    0 -0.83101685880E+03  0.29415474901E+02 -0.11812502177E+04  0.14476196572E+04  0.93788620433E+02 0.  0.
         23    2    4    4    0    0  0.21519968768E+03  0.96641682799E+02 -0.56131254915E+03  0.61578790837E+03  0.92045911564E+02 0.  0.
          4    1    3    3  502    0  0.47841225921E+03 -0.13247143579E+03 -0.42746335974E+03  0.65509685924E+03  0.00000000000E+00 0. -1.
         -4    1    3    3    0  502  0.13740491191E+03  0.64142780905E+01 -0.14603669493E+03  0.20061896483E+03  0.00000000000E+00 0.  1.
         11    1    5    5    0    0 -0.74143516097E+03  0.37443464590E+02 -0.10955339438E+04  0.13233755072E+04  0.00000000000E+00 0.  1.
        -11    1    5    5    0    0 -0.89581697837E+02 -0.80279896892E+01 -0.85716273894E+02  0.12424415003E+03  0.00000000000E+00 0. -1.
          1    1    6    6  503    0 -0.54756997876E+01  0.13273375760E+02 -0.15228452202E+02  0.20930158831E+02  0.00000000000E+00 0. -1.
         -1    1    6    6    0  503  0.22067538747E+03  0.83368307039E+02 -0.54608409694E+03  0.59485774954E+03  0.00000000000E+00 0.  1.
<mgrwt>
<rscale>  0 0.17768327E+04</rscale>
<asrwt>0</asrwt>
<pdfrwt beam="1">  1        1 0.40270661E+00 0.17768327E+04</pdfrwt>
<pdfrwt beam="2">  1       -1 0.46389276E-01 0.17768327E+04</pdfrwt>
<totfact> 0.49132082E+00</totfact>
</mgrwt>
</event>
<event>
12    2  0.3555611E-008  0.2117973E+04  0.7818608E-02  0.8553367E-01
         -2   -1    0    0    0  501 -0.00000000000E+00  0.00000000000E+00  0.12674647093E+04  0.12674647093E+04  0.00000000000E+00 0.  1.
          2   -1    0    0  501    0  0.00000000000E+00 -0.00000000000E+00 -0.88479980227E+03  0.88479980227E+03  0.00000000000E+00 0. -1.
         23    2    1    2    0    0  0.11545598827E+03  0.43303607792E+03 -0.59998578878E+03  0.75433960142E+03  0.90526004718E+02 0.  0.
        254    2    1    2    0    0 -0.11545598827E+03 -0.43303607792E+03  0.98265069581E+03  0.13979249101E+04  0.88754793360E+03 0.  0.
         23    2    4    4    0    0  0.79422953065E+01 -0.49499439586E+03  0.11832741494E+03  0.51800832698E+03  0.96170253773E+02 0.  0.
         23    2    4    4    0    0 -0.12339828358E+03  0.61958317939E+02  0.86432328087E+03  0.87991658317E+03  0.90180318965E+02 0.  0.
          1    1    3    3  502    0  0.77288139636E+02  0.35592988664E+03 -0.53175225363E+03  0.64453083710E+03  0.00000000000E+00 0. -1.
         -1    1    3    3    0  502  0.38167848634E+02  0.77106191279E+02 -0.68233535145E+02  0.10980876432E+03  0.00000000000E+00 0.  1.
         11    1    5    5    0    0 -0.17776837747E+02 -0.42047475474E+03  0.73188739787E+02  0.42716697785E+03  0.00000000000E+00 0. -1.
        -11    1    5    5    0    0  0.25719133054E+02 -0.74519641121E+02  0.45138675157E+02  0.90841349136E+02  0.00000000000E+00 0.  1.
          3    1    6    6  503    0 -0.41317138457E+01  0.39640273245E+02  0.30433821339E+03  0.30693675318E+03  0.00000000000E+00 0. -1.
         -3    1    6    6    0  503 -0.11926656973E+03  0.22318044693E+02  0.55998506748E+03  0.57297982999E+03  0.00000000000E+00 0.  1.
<mgrwt>
<rscale>  0 0.21179731E+04</rscale>
<asrwt>0</asrwt>
<pdfrwt beam="1">  1        2 0.13612305E+00 0.21179731E+04</pdfrwt>
<pdfrwt beam="2">  1       -2 0.19499457E+00 0.21179731E+04</pdfrwt>
<totfact> 0.39645418E+00</totfact>
</mgrwt>
</event>
<event>
12    2  0.3555611E-008  0.2727240E+04  0.7818608E-02  0.8326220E-01
         -2   -1    0    0    0  501 -0.00000000000E+00  0.00000000000E+00  0.67490345989E+03  0.67490345989E+03  0.00000000000E+00 0.  1.
          2   -1    0    0  501    0  0.00000000000E+00 -0.00000000000E+00 -0.27551483882E+04  0.27551483882E+04  0.00000000000E+00 0. -1.
         23    2    1    2    0    0 -0.72653773543E+03  0.66152227280E+03 -0.47538479530E+02  0.98800210101E+03  0.91757539976E+02 0.  0.
        254    2    1    2    0    0  0.72653773543E+03 -0.66152227280E+03 -0.20327064488E+04  0.24420497471E+04  0.93072158135E+03 0.  0.
         23    2    4    4    0    0  0.11071569330E+02 -0.60332243646E+03 -0.11379495030E+04  0.12912467111E+04  0.90931048921E+02 0.  0.
         23    2    4    4    0    0  0.71546616610E+03 -0.58199836339E+02 -0.89475694584E+03  0.11508030360E+04  0.92079203890E+02 0.  0.
          3    1    3    3  502    0 -0.31369845107E+02  0.18283770612E+02  0.13957156634E+02  0.38899430216E+02  0.00000000000E+00 0. -1.
         -3    1    3    3    0  502 -0.69516789032E+03  0.64323850219E+03 -0.61495636165E+02  0.94910267079E+03  0.00000000000E+00 0.  1.
         11    1    5    5    0    0  0.45049150216E+02 -0.37605586300E+03 -0.66076953782E+03  0.76161920941E+03  0.00000000000E+00 0. -1.
        -11    1    5    5    0    0 -0.33977580886E+02 -0.22726657346E+03 -0.47717996517E+03  0.52962750171E+03  0.00000000000E+00 0.  1.
          1    1    6    6  503    0  0.94765699229E+02 -0.30254026474E+02 -0.16175660231E+03  0.18989745195E+03  0.00000000000E+00 0. -1.
         -1    1    6    6    0  503  0.62070046687E+03 -0.27945809865E+02 -0.73300034353E+03  0.96090558406E+03  0.00000000000E+00 0.  1.
<mgrwt>
<rscale>  0 0.27272398E+04</rscale>
<asrwt>0</asrwt>
<pdfrwt beam="1">  1        2 0.42386898E+00 0.27272398E+04</pdfrwt>
<pdfrwt beam="2">  1       -2 0.10383130E+00 0.27272398E+04</pdfrwt>
<totfact> 0.16261896E+00</totfact>
</mgrwt>
</event>
<event>
12    2  0.3555611E-008  0.1821876E+04  0.7818608E-02  0.8694752E-01
         -1   -1    0    0    0  501 -0.00000000000E+00  0.00000000000E+00  0.12457128446E+04  0.12457128446E+04  0.00000000000E+00 0.  1.
          1   -1    0    0  501    0  0.00000000000E+00 -0.00000000000E+00 -0.66613084495E+03  0.66613084495E+03  0.00000000000E+00 0. -1.
         23    2    1    2    0    0 -0.23301306844E+03  0.91618686548E+02 -0.42174131912E+03  0.49914299608E+03  0.92676407441E+02 0.  0.
        254    2    1    2    0    0  0.23301306844E+03 -0.91618686548E+02  0.10013233188E+04  0.14127006935E+04  0.96456507652E+03 0.  0.
         23    2    4    4    0    0 -0.10335907885E+02  0.30262977720E+03  0.86546882304E+03  0.92146902860E+03  0.91527449296E+02 0.  0.
         23    2    4    4    0    0  0.24334897632E+03 -0.39424846374E+03  0.13585449575E+03  0.49123166489E+03  0.90562294206E+02 0.  0.
          3    1    3    3  502    0 -0.23386023143E+03  0.10006079037E+03 -0.41910769756E+03  0.49025914756E+03  0.00000000000E+00 0. -1.
         -3    1    3    3    0  502  0.84716298852E+00 -0.84421038183E+01 -0.26336215570E+01  0.88838485192E+01  0.00000000000E+00 0.  1.
         11    1    5    5    0    0 -0.34930601574E+02  0.15677492764E+03  0.34806313940E+03  0.38333598041E+03  0.00000000000E+00 0.  1.
        -11    1    5    5    0    0  0.24594693689E+02  0.14585484955E+03  0.51740568364E+03  0.53813304819E+03  0.00000000000E+00 0. -1.
          2    1    6    6  503    0  0.90847713090E+02 -0.12040938666E+03  0.31844674765E+01  0.15087036887E+03  0.00000000000E+00 0. -1.
         -2    1    6    6    0  503  0.15250126323E+03 -0.27383907708E+03  0.13267002828E+03  0.34036129602E+03  0.00000000000E+00 0.  1.
<mgrwt>
<rscale>  0 0.18218757E+04</rscale>
<asrwt>0</asrwt>
<pdfrwt beam="1">  1        1 0.10248167E+00 0.18218757E+04</pdfrwt>
<pdfrwt beam="2">  1       -1 0.19164813E+00 0.18218757E+04</pdfrwt>
<totfact> 0.47576669E+00</totfact>
</mgrwt>
</event>
<event>
12    2  0.3555611E-008  0.1130837E+04  0.7818608E-02  0.9175646E-01
          1   -1    0    0  501    0  0.00000000000E+00  0.00000000000E+00  0.11221535654E+04  0.11221535654E+04  0.00000000000E+00 0. -1.
         -1   -1    0    0    0  501 -0.00000000000E+00 -0.00000000000E+00 -0.28489713405E+03  0.28489713405E+03  0.00000000000E+00 0.  1.
         23    2    1    2    0    0  0.43761786626E+02 -0.65194048456E+02  0.36930246262E+03  0.38806917751E+03  0.89710755812E+02 0.  0.
        254    2    1    2    0    0 -0.43761786626E+02  0.65194048456E+02  0.46795396869E+03  0.10189815219E+04  0.90176330999E+03 0.  0.
         23    2    4    4    0    0 -0.21034633727E+03 -0.24679945030E+03 -0.94048087429E+02  0.34870338740E+03  0.87140457698E+02 0.  0.
         23    2    4    4    0    0  0.16658455064E+03  0.31199349875E+03  0.56200205612E+03  0.67027813450E+03  0.91302304113E+02 0.  0.
          3    1    3    3  502    0  0.60638039527E+02 -0.13985100707E+02  0.15353647786E+03  0.16566835821E+03  0.00000000000E+00 0. -1.
         -3    1    3    3    0  502 -0.16876252901E+02 -0.51208947749E+02  0.21576598476E+03  0.22240081929E+03  0.00000000000E+00 0.  1.
         11    1    5    5    0    0 -0.77080548992E+02 -0.35915978375E+02 -0.37351720906E+02  0.92879058943E+02  0.00000000000E+00 0. -1.
        -11    1    5    5    0    0 -0.13326578828E+03 -0.21088347192E+03 -0.56696366522E+02  0.25582432846E+03  0.00000000000E+00 0.  1.
          3    1    6    6  503    0  0.70527588533E+02  0.67866809806E+02  0.20583349550E+03  0.22791988172E+03  0.00000000000E+00 0. -1.
         -3    1    6    6    0  503  0.96056962108E+02  0.24412668895E+03  0.35616856062E+03  0.44235825278E+03  0.00000000000E+00 0.  1.
<mgrwt>
<rscale>  0 0.11308375E+04</rscale>
<asrwt>0</asrwt>
<pdfrwt beam="1">  1        1 0.17263901E+00 0.11308375E+04</pdfrwt>
<pdfrwt beam="2">  1       -1 0.43830329E-01 0.11308375E+04</pdfrwt>
<totfact> 0.62385783E+01</totfact>
</mgrwt>
</event>
<event>
12    2  0.3555611E-008  0.1504135E+04  0.7818608E-02  0.8881708E-01
         -1   -1    0    0    0  501 -0.00000000000E+00  0.00000000000E+00  0.55396739695E+03  0.55396739695E+03  0.00000000000E+00 0. -1.
          1   -1    0    0  501    0  0.00000000000E+00 -0.00000000000E+00 -0.10210087764E+04  0.10210087764E+04  0.00000000000E+00 0.  1.
         23    2    1    2    0    0 -0.44614614534E+03  0.58023181099E+02  0.15965202785E+02  0.45956163637E+03  0.92352246189E+02 0.  0.
        254    2    1    2    0    0  0.44614614534E+03 -0.58023181099E+02 -0.48300658228E+03  0.11154145370E+04  0.89913355979E+03 0.  0.
         23    2    4    4    0    0  0.46373250650E+03 -0.41923606898E+03 -0.28715596548E+03  0.69400539130E+03  0.91532592716E+02 0.  0.
         23    2    4    4    0    0 -0.17586361166E+02  0.36121288788E+03 -0.19585061679E+03  0.42140914572E+03  0.91892184298E+02 0.  0.
          4    1    3    3  502    0 -0.28656378078E+03  0.76051904589E+02  0.31804655272E+02  0.29818489020E+03  0.00000000000E+00 0. -1.
         -4    1    3    3    0  502 -0.15958236456E+03 -0.18028723490E+02 -0.15839452487E+02  0.16137674617E+03  0.00000000000E+00 0.  1.
         11    1    5    5    0    0  0.43606206859E+03 -0.40118757448E+03 -0.24687651548E+03  0.64191090618E+03  0.00000000000E+00 0.  1.
        -11    1    5    5    0    0  0.27670437913E+02 -0.18048494499E+02 -0.40279449999E+02  0.52094485122E+02  0.00000000000E+00 0. -1.
          4    1    6    6  503    0 -0.81343035634E+01  0.62985047295E+02 -0.78039577399E+02  0.10061540000E+03  0.00000000000E+00 0. -1.
         -4    1    6    6    0  503 -0.94520576030E+01  0.29822784058E+03 -0.11781103939E+03  0.32079374572E+03  0.00000000000E+00 0.  1.
<mgrwt>
<rscale>  0 0.15041351E+04</rscale>
<asrwt>0</asrwt>
<pdfrwt beam="1">  1        1 0.15707827E+00 0.15041351E+04</pdfrwt>
<pdfrwt beam="2">  1       -1 0.85225753E-01 0.15041351E+04</pdfrwt>
<totfact> 0.19184788E+01</totfact>
</mgrwt>
</event>
<event>
12    2  0.3555611E-008  0.2140639E+04  0.7818608E-02  0.8543550E-01
         -1   -1    0    0    0  501 -0.00000000000E+00  0.00000000000E+00  0.87117961096E+03  0.87117961096E+03  0.00000000000E+00 0.  1.
          1   -1    0    0  501    0  0.00000000000E+00 -0.00000000000E+00 -0.13149805277E+04  0.13149805277E+04  0.00000000000E+00 0. -1.
         23    2    1    2    0    0  0.64931888588E+03 -0.12901448030E+03  0.40963743786E+03  0.78396231166E+03  0.92381404583E+02 0.  0.
        254    2    1    2    0    0 -0.64931888588E+03  0.12901448030E+03 -0.85343835462E+03  0.14021978270E+04  0.89417110740E+03 0.  0.
         23    2    4    4    0    0 -0.21255899378E+03 -0.30077953925E+03 -0.64360854585E+03  0.74728832179E+03  0.92510640018E+02 0.  0.
         23    2    4    4    0    0 -0.43675989210E+03  0.42979401955E+03 -0.20982980877E+03  0.65490950525E+03  0.96931980396E+02 0.  0.
          1    1    3    3  502    0  0.56783323870E+03 -0.12689888861E+03  0.32500051676E+03  0.66645573806E+03  0.00000000000E+00 0.  1.
         -1    1    3    3    0  502  0.81485647185E+02 -0.21155916900E+01  0.84636921097E+02  0.11750657360E+03  0.00000000000E+00 0. -1.
         11    1    5    5    0    0 -0.15402636015E+03 -0.13965246708E+03 -0.36989975437E+03  0.42432624179E+03  0.00000000000E+00 0. -1.
        -11    1    5    5    0    0 -0.58532633628E+02 -0.16112707217E+03 -0.27370879148E+03  0.32296208000E+03  0.00000000000E+00 0.  1.
          1    1    6    6  503    0 -0.14703787525E+03  0.13920324982E+03 -0.22163004531E+02  0.20368819379E+03  0.00000000000E+00 0. -1.
         -1    1    6    6    0  503 -0.28972201685E+03  0.29059076973E+03 -0.18766680424E+03  0.45122131146E+03  0.00000000000E+00 0.  1.
<mgrwt>
<rscale>  0 0.21406394E+04</rscale>
<asrwt>0</asrwt>
<pdfrwt beam="1">  1        1 0.20230470E+00 0.21406394E+04</pdfrwt>
<pdfrwt beam="2">  1       -1 0.13402763E+00 0.21406394E+04</pdfrwt>
<totfact> 0.37955873E+00</totfact>
</mgrwt>
</event>
<event>
12    2  0.3555611E-008  0.1752459E+04  0.7818608E-02  0.8731998E-01
         -2   -1    0    0    0  501 -0.00000000000E+00  0.00000000000E+00  0.50699094624E+03  0.50699094624E+03  0.00000000000E+00 0.  1.
          2   -1    0    0  501    0  0.00000000000E+00 -0.00000000000E+00 -0.15143829813E+04  0.15143829813E+04  0.00000000000E+00 0. -1.
         23    2    1    2    0    0  0.48313194438E+02  0.17064757640E+03 -0.10655577582E+04  0.10841497887E+04  0.92264121758E+02 0.  0.
        254    2    1    2    0    0 -0.48313194438E+02 -0.17064757640E+03  0.58165723160E+02  0.93722413883E+03  0.91845036609E+03 0.  0.
         23    2    4    4    0    0  0.31907330776E+03 -0.37878814549E+03  0.29839707797E+02  0.50446412523E+03  0.91134025493E+02 0.  0.
         23    2    4    4    0    0 -0.36738650219E+03  0.20814056909E+03  0.28326015363E+02  0.43276001360E+03  0.90462852750E+02 0.  0.
          1    1    3    3  502    0 -0.90726977448E+01  0.12688683548E+03 -0.64078432341E+03  0.65328947029E+03  0.00000000000E+00 0. -1.
         -1    1    3    3    0  502  0.57385892183E+02  0.43760740921E+02 -0.42477343483E+03  0.43086031844E+03  0.00000000000E+00 0.  1.
         11    1    5    5    0    0  0.10732043047E+03 -0.10362092489E+03  0.48179109743E+02  0.15676797341E+03  0.00000000000E+00 0.  1.
        -11    1    5    5    0    0  0.21175287729E+03 -0.27516722059E+03 -0.18339401946E+02  0.34769615182E+03  0.00000000000E+00 0. -1.
          1    1    6    6  503    0 -0.36927371211E+02  0.22187405168E+01  0.22598775295E+02  0.43350411750E+02  0.00000000000E+00 0. -1.
         -1    1    6    6    0  503 -0.33045913098E+03  0.20592182857E+03  0.57272400675E+01  0.38940960185E+03  0.00000000000E+00 0.  1.
<mgrwt>
<rscale>  0 0.17524594E+04</rscale>
<asrwt>0</asrwt>
<pdfrwt beam="1">  1        2 0.23298199E+00 0.17524594E+04</pdfrwt>
<pdfrwt beam="2">  1       -2 0.77998609E-01 0.17524594E+04</pdfrwt>
<totfact> 0.17274303E+01</totfact>
</mgrwt>
</event>
<event>
12    2  0.3555611E-008  0.1712972E+04  0.7818608E-02  0.8754000E-01
         -1   -1    0    0    0  501 -0.00000000000E+00  0.00000000000E+00  0.32195229881E+03  0.32195229881E+03  0.00000000000E+00 0.  1.
          1   -1    0    0  501    0  0.00000000000E+00 -0.00000000000E+00 -0.22785002332E+04  0.22785002332E+04  0.00000000000E+00 0. -1.
         23    2    1    2    0    0  0.18185737968E+03  0.57842684044E+03 -0.88435574590E+03  0.10761124107E+04  0.91011641688E+02 0.  0.
        254    2    1    2    0    0 -0.18185737968E+03 -0.57842684044E+03 -0.10721921885E+04  0.15243401213E+04  0.89797939841E+03 0.  0.
         23    2    4    4    0    0 -0.21379116352E+03 -0.51025009508E+03 -0.12156391318E+04  0.13385945266E+04  0.89414689841E+02 0.  0.
         23    2    4    4    0    0  0.31933783845E+02 -0.68176745362E+02  0.14344694338E+03  0.18574559461E+03  0.90865643640E+02 0.  0.
          1    1    3    3  502    0  0.38269918278E+02  0.20443327987E+03 -0.24224926117E+03  0.31928397564E+03  0.00000000000E+00 0. -1.
         -1    1    3    3    0  502  0.14358746140E+03  0.37399356057E+03 -0.64210648473E+03  0.75682843508E+03  0.00000000000E+00 0.  1.
         11    1    5    5    0    0 -0.20628486768E+03 -0.47861354068E+03 -0.11820479014E+04  0.12918442666E+04  0.00000000000E+00 0. -1.
        -11    1    5    5    0    0 -0.75062958456E+01 -0.31636554401E+02 -0.33591230483E+02  0.46750260075E+02  0.00000000000E+00 0.  1.
          3    1    6    6  503    0  0.37176948682E+02 -0.60455513636E+02  0.15524716536E+03  0.17070054773E+03  0.00000000000E+00 0. -1.
         -3    1    6    6    0  503 -0.52431648368E+01 -0.77212317256E+01 -0.11800221982E+02  0.15045046883E+02  0.00000000000E+00 0.  1.
<mgrwt>
<rscale>  0 0.17129721E+04</rscale>
<asrwt>0</asrwt>
<pdfrwt beam="1">  1        1 0.35053850E+00 0.17129721E+04</pdfrwt>
<pdfrwt beam="2">  1       -1 0.49531123E-01 0.17129721E+04</pdfrwt>
<totfact> 0.74852793E+00</totfact>
</mgrwt>
</event>
<event>
12    2  0.3555611E-008  0.1952715E+04  0.7818608E-02  0.8629053E-01
          1   -1    0    0  501    0  0.00000000000E+00  0.00000000000E+00  0.66553252332E+03  0.66553252332E+03  0.00000000000E+00 0. -1.
         -1   -1    0    0    0  501 -0.00000000000E+00 -0.00000000000E+00 -0.14323471181E+04  0.14323471181E+04  0.00000000000E+00 0.  1.
         23    2    1    2    0    0 -0.11240883460E+03  0.23021234151E+03  0.46695635380E+03  0.54026537653E+03  0.90581302939E+02 0.  0.
        254    2    1    2    0    0  0.11240883460E+03 -0.23021234151E+03 -0.12337709485E+04  0.15576142649E+04  0.91560798178E+03 0.  0.
         23    2    4    4    0    0  0.30600942685E+03 -0.28328869971E+03 -0.12650122117E+04  0.13349295651E+04  0.88807607421E+02 0.  0.
         23    2    4    4    0    0 -0.19360059225E+03  0.53076358199E+02  0.31241263176E+02  0.22268469980E+03  0.91182069947E+02 0.  0.
          4    1    3    3  502    0 -0.97078525477E+02  0.23321861285E+03  0.45561346997E+03  0.52095949507E+03  0.00000000000E+00 0. -1.
         -4    1    3    3    0  502 -0.15330309126E+02 -0.30062713403E+01  0.11342883834E+02  0.19305881460E+02  0.00000000000E+00 0.  1.
         11    1    5    5    0    0  0.20319900626E+03 -0.12931317219E+03 -0.68800213700E+03  0.72894353222E+03  0.00000000000E+00 0.  1.
        -11    1    5    5    0    0  0.10281042059E+03 -0.15397552751E+03 -0.57701007473E+03  0.60598603284E+03  0.00000000000E+00 0. -1.
          2    1    6    6  503    0 -0.53119619530E+02  0.11256894585E+02 -0.32025391830E+02  0.63039966502E+02  0.00000000000E+00 0. -1.
         -2    1    6    6    0  503 -0.14048097272E+03  0.41819463614E+02  0.63266655006E+02  0.15964473330E+03  0.00000000000E+00 0.  1.
<mgrwt>
<rscale>  0 0.19527146E+04</rscale>
<asrwt>0</asrwt>
<pdfrwt beam="1">  1        1 0.10238962E+00 0.19527146E+04</pdfrwt>
<pdfrwt beam="2">  1       -1 0.22036109E+00 0.19527146E+04</pdfrwt>
<totfact> 0.29966712E+00</totfact>
</mgrwt>
</event>
<event>
12    2  0.3555611E-008  0.1877457E+04  0.7818608E-02  0.8666159E-01
          2   -1    0    0  501    0  0.00000000000E+00  0.00000000000E+00  0.26741182662E+04  0.26741182662E+04  0.00000000000E+00 0. -1.
         -2   -1    0    0    0  501 -0.00000000000E+00 -0.00000000000E+00 -0.32953347588E+03  0.32953347588E+03  0.00000000000E+00 0.  1.
         23    2    1    2    0    0 -0.40161655307E+03  0.59750370430E+03  0.90952216633E+03  0.11632967001E+04  0.87875531374E+02 0.  0.
        254    2    1    2    0    0  0.40161655307E+03 -0.59750370430E+03  0.14350626240E+04  0.18403550420E+04  0.89955289643E+03 0.  0.
         23    2    4    4    0    0  0.11933150497E+03 -0.26042514354E+03 -0.35630523527E+02  0.30268302067E+03  0.91028640162E+02 0.  0.
         23    2    4    4    0    0  0.28228504810E+03 -0.33707856077E+03  0.14706931475E+04  0.15376720213E+04  0.90499207256E+02 0.  0.
          4    1    3    3  502    0 -0.30017815898E+03  0.48714622140E+03  0.76261797972E+03  0.95341730168E+03  0.00000000000E+00 0. -1.
         -4    1    3    3    0  502 -0.10143839409E+03  0.11035748290E+03  0.14690418660E+03  0.20987939839E+03  0.00000000000E+00 0.  1.
         11    1    5    5    0    0  0.13262214611E+03 -0.21071124170E+03 -0.33060921832E+02  0.25115908419E+03  0.00000000000E+00 0. -1.
        -11    1    5    5    0    0 -0.13290641138E+02 -0.49713901837E+02 -0.25696016949E+01  0.51523936482E+02  0.00000000000E+00 0.  1.
          1    1    6    6  503    0  0.23263088186E+03 -0.23805993040E+03  0.99287807947E+03  0.10471850545E+04  0.00000000000E+00 0. -1.
         -1    1    6    6    0  503  0.49654166239E+02 -0.99018630363E+02  0.47781506805E+03  0.49048696684E+03  0.00000000000E+00 0.  1.
<mgrwt>
<rscale>  0 0.18774573E+04</rscale>
<asrwt>0</asrwt>
<pdfrwt beam="1">  1        2 0.41140280E+00 0.18774573E+04</pdfrwt>
<pdfrwt beam="2">  1       -2 0.50697460E-01 0.18774573E+04</pdfrwt>
<totfact> 0.95106591E+00</totfact>
</mgrwt>
</event>
<event>
12    2  0.3555611E-008  0.1332918E+04  0.7818608E-02  0.9003861E-01
          1   -1    0    0  501    0  0.00000000000E+00  0.00000000000E+00  0.11453206809E+04  0.11453206809E+04  0.00000000000E+00 0. -1.
         -1   -1    0    0    0  501 -0.00000000000E+00 -0.00000000000E+00 -0.38781041024E+03  0.38781041024E+03  0.00000000000E+00 0.  1.
         23    2    1    2    0    0 -0.13630444484E+03 -0.12066612009E+03  0.54386477350E+03  0.58064838672E+03  0.90688714437E+02 0.  0.
        254    2    1    2    0    0  0.13630444484E+03  0.12066612009E+03  0.21364549711E+03  0.95248270437E+03  0.91018662343E+03 0.  0.
         23    2    4    4    0    0  0.31041527430E+03  0.15751956815E+03  0.49207636441E+03  0.61003707591E+03  0.94000152736E+02 0.  0.
         23    2    4    4    0    0 -0.17411082946E+03 -0.36853448055E+02 -0.27843086730E+03  0.34244562846E+03  0.89847109123E+02 0.  0.
          4    1    3    3  502    0 -0.13070287181E+03 -0.11411203668E+03  0.54499968257E+03  0.57195231586E+03  0.00000000000E+00 0. -1.
         -4    1    3    3    0  502 -0.56015730297E+01 -0.65540834175E+01 -0.11349090706E+01  0.86960708627E+01  0.00000000000E+00 0.  1.
         11    1    5    5    0    0  0.18774012189E+03  0.78401536313E+02  0.35830303852E+03  0.41203667516E+03  0.00000000000E+00 0. -1.
        -11    1    5    5    0    0  0.12267515241E+03  0.79118031835E+02  0.13377332588E+03  0.19800040075E+03  0.00000000000E+00 0.  1.
          3    1    6    6  503    0 -0.12092409434E+03  0.20930820902E+01 -0.23258163472E+03  0.26214735244E+03  0.00000000000E+00 0. -1.
         -3    1    6    6    0  503 -0.53186735119E+02 -0.38946530145E+02 -0.45849232581E+02  0.80298276017E+02  0.00000000000E+00 0.  1.
<mgrwt>
<rscale>  0 0.13329175E+04</rscale>
<asrwt>0</asrwt>
<pdfrwt beam="1">  1        1 0.17620318E+00 0.13329175E+04</pdfrwt>
<pdfrwt beam="2">  1       -1 0.59663141E-01 0.13329175E+04</pdfrwt>
<totfact> 0.32730720E+01</totfact>
</mgrwt>
</event>
<event>
12    2  0.3555611E-008  0.2278460E+04  0.7818608E-02  0.8486463E-01
          1   -1    0    0  501    0  0.00000000000E+00  0.00000000000E+00  0.12805604441E+04  0.12805604441E+04  0.00000000000E+00 0. -1.
         -1   -1    0    0    0  501 -0.00000000000E+00 -0.00000000000E+00 -0.10134973185E+04  0.10134973185E+04  0.00000000000E+00 0.  1.
         23    2    1    2    0    0 -0.64676479521E+03  0.61045651213E+02 -0.59978151382E+03  0.88881960469E+03  0.90725704746E+02 0.  0.
        254    2    1    2    0    0  0.64676479521E+03 -0.61045651213E+02  0.86684463941E+03  0.14052381579E+04  0.89512199155E+03 0.  0.
         23    2    4    4    0    0  0.40759981973E+03  0.37733344211E+03  0.27669994741E+03  0.62732988119E+03  0.91987930490E+02 0.  0.
         23    2    4    4    0    0  0.23916497549E+03 -0.43837909333E+03  0.59014469200E+03  0.77790827674E+03  0.86570286778E+02 0.  0.
          1    1    3    3  502    0 -0.16738118024E+03  0.48474922980E+02 -0.12905060017E+03  0.21684172814E+03  0.00000000000E+00 0. -1.
         -1    1    3    3    0  502 -0.47938361497E+03  0.12570728233E+02 -0.47073091365E+03  0.67197787655E+03  0.00000000000E+00 0.  1.
         11    1    5    5    0    0  0.13855883879E+03  0.17266392040E+03  0.75305775555E+02  0.23384255610E+03  0.00000000000E+00 0. -1.
        -11    1    5    5    0    0  0.26904098094E+03  0.20466952171E+03  0.20139417186E+03  0.39348732508E+03  0.00000000000E+00 0.  1.
          2    1    6    6  503    0  0.19229560850E+03 -0.39392842107E+03  0.54341937605E+03  0.69818466056E+03  0.00000000000E+00 0. -1.
         -2    1    6    6    0  503  0.46869366982E+02 -0.44450672257E+02  0.46725315954E+02  0.79723616177E+02  0.00000000000E+00 0.  1.
<mgrwt>
<rscale>  0 0.22784596E+04</rscale>
<asrwt>0</asrwt>
<pdfrwt beam="1">  1        1 0.19700930E+00 0.22784596E+04</pdfrwt>
<pdfrwt beam="2">  1       -1 0.15592266E+00 0.22784596E+04</pdfrwt>
<totfact> 0.26558101E+00</totfact>
</mgrwt>
</event>
<event>
12    2  0.3555611E-008  0.1167235E+04  0.7818608E-02  0.9142029E-01
          3   -1    0    0  501    0  0.00000000000E+00  0.00000000000E+00  0.69728847880E+03  0.69728847880E+03  0.00000000000E+00 0. -1.
         -3   -1    0    0    0  501 -0.00000000000E+00 -0.00000000000E+00 -0.48847679095E+03  0.48847679095E+03  0.00000000000E+00 0.  1.
         23    2    1    2    0    0 -0.14180333845E+03  0.15151925469E+03  0.14013998964E+03  0.26526778822E+03  0.87530060164E+02 0.  0.
        254    2    1    2    0    0  0.14180333845E+03 -0.15151925469E+03  0.68671698204E+02  0.92049748153E+03  0.89416639393E+03 0.  0.
         23    2    4    4    0    0  0.46823630781E+03 -0.16341980476E+03 -0.13815219973E+03  0.52307794707E+03  0.92591770060E+02 0.  0.
         23    2    4    4    0    0 -0.32643296936E+03  0.11900550069E+02  0.20682389794E+03  0.39741953446E+03  0.92011167982E+02 0.  0.
          4    1    3    3  502    0 -0.11210131660E+03  0.11285098398E+03  0.14630754393E+03  0.21612021465E+03  0.00000000000E+00 0. -1.
         -4    1    3    3    0  502 -0.29702021855E+02  0.38668270709E+02 -0.61675542922E+01  0.49147573570E+02  0.00000000000E+00 0.  1.
         11    1    5    5    0    0  0.27402440261E+03 -0.13344980516E+03 -0.55076300931E+02  0.30972830456E+03  0.00000000000E+00 0. -1.
        -11    1    5    5    0    0  0.19421190521E+03 -0.29969999600E+02 -0.83075898800E+02  0.21334964252E+03  0.00000000000E+00 0.  1.
          3    1    6    6  503    0 -0.32699245370E+03  0.15747871722E+01  0.20712307398E+03  0.38707429843E+03  0.00000000000E+00 0. -1.
         -3    1    6    6    0  503  0.55948434086E+00  0.10325762897E+02 -0.29917604195E+00  0.10345236026E+02  0.00000000000E+00 0.  1.
<mgrwt>
<rscale>  0 0.11672347E+04</rscale>
<asrwt>0</asrwt>
<pdfrwt beam="1">  1        3 0.10727515E+00 0.11672347E+04</pdfrwt>
<pdfrwt beam="2">  1       -3 0.75150276E-01 0.11672347E+04</pdfrwt>
<totfact> 0.32098807E+00</totfact>
</mgrwt>
</event>
<event>
12    2  0.3555611E-008  0.1351818E+04  0.7818608E-02  0.8989453E-01
          2   -1    0    0  501    0  0.00000000000E+00  0.00000000000E+00  0.45669401094E+03  0.45669401094E+03  0.00000000000E+00 0.  1.
         -2   -1    0    0    0  501 -0.00000000000E+00 -0.00000000000E+00 -0.10003482447E+04  0.10003482447E+04  0.00000000000E+00 0. -1.
         23    2    1    2    0    0  0.24496264244E+03  0.12397422627E+03 -0.40880611282E+03  0.50070811764E+03  0.90608367311E+02 0.  0.
        254    2    1    2    0    0 -0.24496264244E+03 -0.12397422627E+03 -0.13484812090E+03  0.95633413796E+03  0.90609859439E+03 0.  0.
         23    2    4    4    0    0  0.19363439724E+03  0.26559772657E+03  0.30278448811E+02  0.34005611525E+03  0.81761512361E+02 0.  0.
         23    2    4    4    0    0 -0.43859703967E+03 -0.38957195284E+03 -0.16512656971E+03  0.61627802271E+03  0.91641407697E+02 0.  0.
          4    1    3    3  502    0  0.15227800065E+03  0.12406552416E+03 -0.27947958665E+03  0.34159871651E+03  0.00000000000E+00 0. -1.
         -4    1    3    3    0  502  0.92684641785E+02 -0.91297888650E-01 -0.12932652616E+03  0.15910940113E+03  0.00000000000E+00 0.  1.
         11    1    5    5    0    0  0.17744334653E+03  0.19305498466E+03  0.75195041480E+01  0.26232215170E+03  0.00000000000E+00 0. -1.
        -11    1    5    5    0    0  0.16191050707E+02  0.72542741913E+02  0.22758944663E+02  0.77733963552E+02  0.00000000000E+00 0.  1.
          3    1    6    6  503    0 -0.33049903260E+03 -0.34050163666E+03 -0.14219808913E+03  0.49536983322E+03  0.00000000000E+00 0. -1.
         -3    1    6    6    0  503 -0.10809800708E+03 -0.49070316178E+02 -0.22928480585E+02  0.12090818949E+03  0.00000000000E+00 0.  1.
<mgrwt>
<rscale>  0 0.13518181E+04</rscale>
<asrwt>0</asrwt>
<pdfrwt beam="1">  1        2 0.70260617E-01 0.13518181E+04</pdfrwt>
<pdfrwt beam="2">  1       -2 0.15389973E+00 0.13518181E+04</pdfrwt>
<totfact> 0.18668004E+01</totfact>
</mgrwt>
</event>
<event>
12    2  0.3555611E-008  0.1768770E+04  0.7818608E-02  0.8723086E-01
         -2   -1    0    0    0  501 -0.00000000000E+00  0.00000000000E+00  0.52034771555E+03  0.52034771555E+03  0.00000000000E+00 0.  1.
          2   -1    0    0  501    0  0.00000000000E+00 -0.00000000000E+00 -0.15031049088E+04  0.15031049088E+04  0.00000000000E+00 0. -1.
         23    2    1    2    0    0  0.18346919426E+02  0.37117611629E+03 -0.97458321538E+03  0.10469127775E+04  0.90031112056E+02 0.  0.
        254    2    1    2    0    0 -0.18346919426E+02 -0.37117611629E+03 -0.81739778997E+01  0.97653984692E+03  0.90302543705E+03 0.  0.
         23    2    4    4    0    0 -0.26863732299E+03  0.26288328989E+02  0.29500359722E+03  0.41001451266E+03  0.90706618729E+02 0.  0.
         23    2    4    4    0    0  0.25029040356E+03 -0.39746444528E+03 -0.30317757512E+03  0.56652533426E+03  0.91711727329E+02 0.  0.
          1    1    3    3  502    0 -0.19480886109E+02  0.24893716626E+03 -0.56276768737E+03  0.61567579749E+03  0.00000000000E+00 0. -1.
         -1    1    3    3    0  502  0.37827805536E+02  0.12223895003E+03 -0.41181552801E+03  0.43123697996E+03  0.00000000000E+00 0.  1.
         11    1    5    5    0    0 -0.66635948124E+02  0.47141593464E+02  0.88205858183E+02  0.12017883688E+03  0.00000000000E+00 0. -1.
        -11    1    5    5    0    0 -0.20200137486E+03 -0.20853264475E+02  0.20679773903E+03  0.28983567578E+03  0.00000000000E+00 0.  1.
          3    1    6    6  503    0  0.47266055241E+02 -0.14629345936E+03 -0.74785579335E+02  0.17096414568E+03  0.00000000000E+00 0. -1.
         -3    1    6    6    0  503  0.20302434832E+03 -0.25117098592E+03 -0.22839199578E+03  0.39556118858E+03  0.00000000000E+00 0.  1.
<mgrwt>
<rscale>  0 0.17687704E+04</rscale>
<asrwt>0</asrwt>
<pdfrwt beam="1">  1        2 0.23124691E+00 0.17687704E+04</pdfrwt>
<pdfrwt beam="2">  1       -2 0.80053496E-01 0.17687704E+04</pdfrwt>
<totfact> 0.16514354E+01</totfact>
</mgrwt>
</event>
<event>
12    2  0.3555611E-008  0.1244268E+04  0.7818608E-02  0.9074968E-01
          1   -1    0    0  501    0  0.00000000000E+00  0.00000000000E+00  0.19211957293E+04  0.19211957293E+04  0.00000000000E+00 0. -1.
         -1   -1    0    0    0  501 -0.00000000000E+00 -0.00000000000E+00 -0.20146330850E+03  0.20146330850E+03  0.00000000000E+00 0.  1.
         23    2    1    2    0    0 -0.26154667488E+02 -0.31920993646E+02 -0.29462999811E+02  0.10316342504E+03  0.89842125092E+02 0.  0.
        254    2    1    2    0    0  0.26154667488E+02  0.31920993646E+02  0.17491954206E+04  0.20194956128E+04  0.10084517311E+04 0.  0.
         23    2    4    4    0    0 -0.17720736790E+03 -0.14572221903E+03  0.17146116477E+04  0.17321993067E+04  0.89352780500E+02 0.  0.
         23    2    4    4    0    0  0.20336203539E+03  0.17764321267E+03  0.34583772994E+02  0.28729630614E+03  0.91814496242E+02 0.  0.
          2    1    3    3  502    0  0.11499314149E+02 -0.67038391120E+01  0.27393308585E+02  0.30456018124E+02  0.00000000000E+00 0. -1.
         -2    1    3    3    0  502 -0.37653981637E+02 -0.25217154534E+02 -0.56856308396E+02  0.72707406915E+02  0.00000000000E+00 0.  1.
         11    1    5    5    0    0 -0.74274181627E+02 -0.10843294075E+03  0.11101673952E+04  0.11179203916E+04  0.00000000000E+00 0.  1.
        -11    1    5    5    0    0 -0.10293318627E+03 -0.37289278282E+02  0.60444425247E+03  0.61427891503E+03  0.00000000000E+00 0. -1.
          1    1    6    6  503    0  0.39157666834E+02  0.12769175069E+02  0.35842148883E+02  0.54598849259E+02  0.00000000000E+00 0. -1.
         -1    1    6    6    0  503  0.16420436855E+03  0.16487403761E+03 -0.12583758895E+01  0.23269745688E+03  0.00000000000E+00 0.  1.
<mgrwt>
<rscale>  0 0.12442676E+04</rscale>
<asrwt>0</asrwt>
<pdfrwt beam="1">  1        1 0.29556856E+00 0.12442676E+04</pdfrwt>
<pdfrwt beam="2">  1       -1 0.30994356E-01 0.12442676E+04</pdfrwt>
<totfact> 0.32073894E+01</totfact>
</mgrwt>
</event>
<event>
12    2  0.3555611E-008  0.2860993E+04  0.7818608E-02  0.8284579E-01
          1   -1    0    0  501    0  0.00000000000E+00  0.00000000000E+00  0.20596282781E+04  0.20596282781E+04  0.00000000000E+00 0. -1.
         -1   -1    0    0    0  501 -0.00000000000E+00 -0.00000000000E+00 -0.99353841954E+03  0.99353841954E+03  0.00000000000E+00 0.  1.
         23    2    1    2    0    0 -0.11924282947E+04  0.40206276578E+03  0.69214164532E+03  0.14392609565E+04  0.94193089453E+02 0.  0.
        254    2    1    2    0    0  0.11924282947E+04 -0.40206276578E+03  0.37394821325E+03  0.16139057412E+04  0.93878366497E+03 0.  0.
         23    2    4    4    0    0  0.73360371698E+03 -0.50634689793E+03 -0.14469175769E+03  0.90746236310E+03  0.89390385918E+02 0.  0.
         23    2    4    4    0    0  0.45882457769E+03  0.10428413214E+03  0.51863997094E+03  0.70644337806E+03  0.93164658782E+02 0.  0.
          3    1    3    3  502    0 -0.95121703985E+03  0.31861483082E+03  0.50740980572E+03  0.11241859180E+04  0.00000000000E+00 0. -1.
         -3    1    3    3    0  502 -0.24121125481E+03  0.83447934964E+02  0.18473183961E+03  0.31507503846E+03  0.00000000000E+00 0.  1.
         11    1    5    5    0    0  0.13603339875E+02 -0.12805001360E+02  0.96159689709E+01  0.21011562884E+02  0.00000000000E+00 0.  1.
        -11    1    5    5    0    0  0.72000037710E+03 -0.49354189657E+03 -0.15430772666E+03  0.88645080021E+03  0.00000000000E+00 0. -1.
          2    1    6    6  503    0  0.37992987749E+03  0.55088659884E+02  0.44589482568E+03  0.58839074417E+03  0.00000000000E+00 0. -1.
         -2    1    6    6    0  503  0.78894700197E+02  0.49195472260E+02  0.72745145259E+02  0.11805263389E+03  0.00000000000E+00 0.  1.
<mgrwt>
<rscale>  0 0.28609927E+04</rscale>
<asrwt>0</asrwt>
<pdfrwt beam="1">  1        1 0.31686589E+00 0.28609927E+04</pdfrwt>
<pdfrwt beam="2">  1       -1 0.15285206E+00 0.28609927E+04</pdfrwt>
<totfact> 0.77501640E-01</totfact>
</mgrwt>
</event>
<event>
12    2  0.3555611E-008  0.1269939E+04  0.7818608E-02  0.9053749E-01
         -1   -1    0    0    0  501 -0.00000000000E+00  0.00000000000E+00  0.15104380636E+04  0.15104380636E+04  0.00000000000E+00 0.  1.
          1   -1    0    0  501    0  0.00000000000E+00 -0.00000000000E+00 -0.26693340818E+03  0.26693340818E+03  0.00000000000E+00 0. -1.
         23    2    1    2    0    0  0.16112701188E+03 -0.18658649426E+03  0.53336898195E+03  0.59965678163E+03  0.11970526743E+03 0.  0.
        254    2    1    2    0    0 -0.16112701188E+03  0.18658649426E+03  0.71013567342E+03  0.11777146901E+04  0.90661060155E+03 0.  0.
         23    2    4    4    0    0 -0.48156172590E+03 -0.94210190711E+02  0.42985405802E+03  0.65927399755E+03  0.95343782001E+02 0.  0.
         23    2    4    4    0    0  0.32043471402E+03  0.28079668497E+03  0.28028161540E+03  0.51844069256E+03  0.93261908226E+02 0.  0.
          2    1    3    3  502    0  0.24660819595E+02 -0.63807868541E+02  0.56661288428E+02  0.88826244529E+02  0.00000000000E+00 0. -1.
         -2    1    3    3    0  502  0.13646619229E+03 -0.12277862572E+03  0.47670769352E+03  0.51083053710E+03  0.00000000000E+00 0.  1.
         11    1    5    5    0    0 -0.81417948717E+02  0.19811539010E+02  0.72737057436E+02  0.11095971781E+03  0.00000000000E+00 0.  1.
        -11    1    5    5    0    0 -0.40014377718E+03 -0.11402172972E+03  0.35711700058E+03  0.54831427975E+03  0.00000000000E+00 0. -1.
          4    1    6    6  503    0  0.26843236275E+03  0.18983199346E+03  0.18747267259E+03  0.37846812558E+03  0.00000000000E+00 0. -1.
         -4    1    6    6    0  503  0.52002351266E+02  0.90964691511E+02  0.92808942817E+02  0.13997256698E+03  0.00000000000E+00 0.  1.
<mgrwt>
<rscale>  0 0.12699392E+04</rscale>
<asrwt>0</asrwt>
<pdfrwt beam="1">  1        1 0.41066679E-01 0.12699392E+04</pdfrwt>
<pdfrwt beam="2">  1       -1 0.23237508E+00 0.12699392E+04</pdfrwt>
<totfact> 0.91618245E+00</totfact>
</mgrwt>
</event>
<event>
12    2  0.3555611E-008  0.1785637E+04  0.7818608E-02  0.8713975E-01
         -1   -1    0    0    0  501 -0.00000000000E+00  0.00000000000E+00  0.24098962527E+03  0.24098962527E+03  0.00000000000E+00 0.  1.
          1   -1    0    0  501    0  0.00000000000E+00 -0.00000000000E+00 -0.33077143099E+04  0.33077143099E+04  0.00000000000E+00 0. -1.
         23    2    1    2    0    0  0.14248682869E+03  0.43494047567E+02  0.13456867607E+03  0.22003436912E+03  0.90067566261E+02 0.  0.
        254    2    1    2    0    0 -0.14248682869E+03 -0.43494047567E+02 -0.32012933607E+04  0.33286695660E+04  0.89975978472E+03 0.  0.
         23    2    4    4    0    0  0.32268768390E+03  0.94661492871E+02 -0.19987807740E+04  0.20286754162E+04  0.85505685905E+02 0.  0.
         23    2    4    4    0    0 -0.46517451259E+03 -0.13815554044E+03 -0.12025125867E+04  0.12999941498E+04  0.92054266003E+02 0.  0.
          3    1    3    3  502    0 -0.66534659010E+01  0.13542281666E+00 -0.71585552940E+01  0.97740401949E+01  0.00000000000E+00 0. -1.
         -3    1    3    3    0  502  0.14914029459E+03  0.43358624750E+02  0.14172723136E+03  0.21026032892E+03  0.00000000000E+00 0.  1.
         11    1    5    5    0    0  0.17064890612E+03  0.17880340188E+02 -0.83008425193E+03  0.84763236195E+03  0.00000000000E+00 0. -1.
        -11    1    5    5    0    0  0.15203877778E+03  0.76781152683E+02 -0.11686965221E+04  0.11810430543E+04  0.00000000000E+00 0.  1.
          1    1    6    6  503    0 -0.18728725462E+03 -0.92550235945E+01 -0.44619729442E+03  0.48399813714E+03  0.00000000000E+00 0. -1.
         -1    1    6    6    0  503 -0.27788725797E+03 -0.12890051684E+03 -0.75631529224E+03  0.81599601265E+03  0.00000000000E+00 0.  1.
<mgrwt>
<rscale>  0 0.17856370E+04</rscale>
<asrwt>0</asrwt>
<pdfrwt beam="1">  1        1 0.50887913E+00 0.17856370E+04</pdfrwt>
<pdfrwt beam="2">  1       -1 0.37075327E-01 0.17856370E+04</pdfrwt>
<totfact> 0.23403543E+00</totfact>
</mgrwt>
</event>
<event>
12    2  0.3555611E-008  0.1563616E+04  0.7818608E-02  0.8843217E-01
          1   -1    0    0  501    0  0.00000000000E+00  0.00000000000E+00  0.21788324177E+04  0.21788324177E+04  0.00000000000E+00 0. -1.
         -1   -1    0    0    0  501 -0.00000000000E+00 -0.00000000000E+00 -0.28052807667E+03  0.28052807667E+03  0.00000000000E+00 0.  1.
         23    2    1    2    0    0  0.36158806033E+03 -0.23709897117E+03  0.19839695397E+03  0.48457117265E+03  0.92119609815E+02 0.  0.
        254    2    1    2    0    0 -0.36158806033E+03  0.23709897117E+03  0.16999073871E+04  0.19747893217E+04  0.90727387987E+03 0.  0.
         23    2    4    4    0    0 -0.64902616163E+03  0.81806997976E+02  0.10238262164E+04  0.12183574456E+04  0.90815199583E+02 0.  0.
         23    2    4    4    0    0  0.28743810130E+03  0.15529197319E+03  0.67608117067E+03  0.75643187613E+03  0.91472262818E+02 0.  0.
          1    1    3    3  502    0  0.20059161486E+03 -0.79537767201E+02  0.11369941878E+03  0.24390738036E+03  0.00000000000E+00 0. -1.
         -1    1    3    3    0  502  0.16099644547E+03 -0.15756120397E+03  0.84697535188E+02  0.24066379229E+03  0.00000000000E+00 0.  1.
         11    1    5    5    0    0 -0.36042026974E+03  0.90796724421E+02  0.57316059002E+03  0.68312508222E+03  0.00000000000E+00 0. -1.
        -11    1    5    5    0    0 -0.28860589189E+03 -0.89897264443E+01  0.45066562637E+03  0.53523236338E+03  0.00000000000E+00 0.  1.
          3    1    6    6  503    0  0.20256517992E+03  0.63884812180E+02  0.46575678906E+03  0.51190165843E+03  0.00000000000E+00 0. -1.
         -3    1    6    6    0  503  0.84872921382E+02  0.91407161014E+02  0.21032438161E+03  0.24453021770E+03  0.00000000000E+00 0.  1.
<mgrwt>
<rscale>  0 0.15636159E+04</rscale>
<asrwt>0</asrwt>
<pdfrwt beam="1">  1        1 0.33520498E+00 0.15636159E+04</pdfrwt>
<pdfrwt beam="2">  1       -1 0.43158167E-01 0.15636159E+04</pdfrwt>
<totfact> 0.11485775E+01</totfact>
</mgrwt>
</event>
<event>
12    2  0.3555611E-008  0.1968605E+04  0.7818608E-02  0.8621441E-01
          1   -1    0    0  501    0  0.00000000000E+00  0.00000000000E+00  0.71760656581E+03  0.71760656581E+03  0.00000000000E+00 0. -1.
         -1   -1    0    0    0  501 -0.00000000000E+00 -0.00000000000E+00 -0.13501144943E+04  0.13501144943E+04  0.00000000000E+00 0.  1.
         23    2    1    2    0    0  0.28165130229E+03 -0.68102784097E+03 -0.49663329160E+03  0.89645000664E+03  0.11769287070E+03 0.  0.
        254    2    1    2    0    0 -0.28165130229E+03  0.68102784097E+03 -0.13587463690E+03  0.11712710535E+04  0.90015975666E+03 0.  0.
         23    2    4    4    0    0 -0.17339710715E+03 -0.12888202662E+03  0.17457660953E+03  0.29240393085E+03  0.91356076039E+02 0.  0.
         23    2    4    4    0    0 -0.10825419514E+03  0.80990986759E+03 -0.31045124643E+03  0.87886712264E+03  0.91402836120E+02 0.  0.
          2    1    3    3  502    0  0.34199647770E+02 -0.20763652187E+03 -0.11351900801E+03  0.23910061961E+03  0.00000000000E+00 0. -1.
         -2    1    3    3    0  502  0.24745165452E+03 -0.47339131911E+03 -0.38311428359E+03  0.65734938703E+03  0.00000000000E+00 0.  1.
         11    1    5    5    0    0 -0.38106446139E+02 -0.69950087332E+02  0.28063119961E+02  0.84455045184E+02  0.00000000000E+00 0. -1.
        -11    1    5    5    0    0 -0.13529066101E+03 -0.58931939287E+02  0.14651348957E+03  0.20794888566E+03  0.00000000000E+00 0.  1.
          2    1    6    6  503    0 -0.65747388503E+01  0.22738746421E+02  0.59652531016E+01  0.24410285215E+02  0.00000000000E+00 0. -1.
         -2    1    6    6    0  503 -0.10167945629E+03  0.78717112117E+03 -0.31641649953E+03  0.85445683742E+03  0.00000000000E+00 0.  1.
<mgrwt>
<rscale>  0 0.19686046E+04</rscale>
<asrwt>0</asrwt>
<pdfrwt beam="1">  1        1 0.11040101E+00 0.19686046E+04</pdfrwt>
<pdfrwt beam="2">  1       -1 0.20770992E+00 0.19686046E+04</pdfrwt>
<totfact> 0.32503537E+00</totfact>
</mgrwt>
</event>
<event>
12    2  0.3555611E-008  0.1449621E+04  0.7818608E-02  0.8918663E-01
         -2   -1    0    0    0  501 -0.00000000000E+00  0.00000000000E+00  0.71162809073E+03  0.71162809073E+03  0.00000000000E+00 0.  1.
          2   -1    0    0  501    0  0.00000000000E+00 -0.00000000000E+00 -0.73823712263E+03  0.73823712263E+03  0.00000000000E+00 0. -1.
         23    2    1    2    0    0  0.17388368901E+03 -0.39270328822E+03  0.10091853038E+03  0.44994317903E+03  0.88390636923E+02 0.  0.
        254    2    1    2    0    0 -0.17388368901E+03  0.39270328822E+03 -0.12752756228E+03  0.99992203433E+03  0.89394037033E+03 0.  0.
         23    2    4    4    0    0 -0.15235354276E+03 -0.26485553293E+03  0.29566046297E+02  0.31749986812E+03  0.81067625177E+02 0.  0.
         23    2    4    4    0    0 -0.21530146252E+02  0.65755882115E+03 -0.15709360858E+03  0.68242216621E+03  0.90412723692E+02 0.  0.
          2    1    3    3  502    0  0.13702622367E+03 -0.25415055448E+03  0.10299700547E+03  0.30655680298E+03  0.00000000000E+00 0. -1.
         -2    1    3    3    0  502  0.36857465335E+02 -0.13855273374E+03 -0.20784750845E+01  0.14338637605E+03  0.00000000000E+00 0.  1.
         11    1    5    5    0    0 -0.13769107670E+03 -0.22909787062E+03 -0.24675789766E+01  0.26730274198E+03  0.00000000000E+00 0. -1.
        -11    1    5    5    0    0 -0.14662466057E+02 -0.35757662303E+02  0.32033625273E+02  0.50197126137E+02  0.00000000000E+00 0.  1.
          4    1    6    6  503    0 -0.43064129389E+02  0.57733713320E+03 -0.15501344969E+03  0.59933450943E+03  0.00000000000E+00 0. -1.
         -4    1    6    6    0  503  0.21533983137E+02  0.80221687948E+02 -0.20801588861E+01  0.83087656773E+02  0.00000000000E+00 0.  1.
<mgrwt>
<rscale>  0 0.14496210E+04</rscale>
<asrwt>0</asrwt>
<pdfrwt beam="1">  1        2 0.11357494E+00 0.14496210E+04</pdfrwt>
<pdfrwt beam="2">  1       -2 0.10948125E+00 0.14496210E+04</pdfrwt>
<totfact> 0.24671728E+01</totfact>
</mgrwt>
</event>
<event>
12    2  0.3555611E-008  0.1732258E+04  0.7818608E-02  0.8743177E-01
         -2   -1    0    0    0  501 -0.00000000000E+00  0.00000000000E+00  0.36409799762E+03  0.36409799762E+03  0.00000000000E+00 0.  1.
          2   -1    0    0  501    0  0.00000000000E+00 -0.00000000000E+00 -0.20603771236E+04  0.20603771236E+04  0.00000000000E+00 0. -1.
         23    2    1    2    0    0  0.39590895674E+03  0.16947115976E+03  0.19175943866E+02  0.44012790893E+03  0.88772086697E+02 0.  0.
        254    2    1    2    0    0 -0.39590895674E+03 -0.16947115976E+03 -0.17154550699E+04  0.19843472123E+04  0.89965737158E+03 0.  0.
         23    2    4    4    0    0 -0.49374908758E+03  0.79399310864E+02 -0.15969341755E+04  0.16758080166E+04  0.89673494337E+02 0.  0.
         23    2    4    4    0    0  0.97840130841E+02 -0.24887047063E+03 -0.11852089439E+03  0.30853919572E+03  0.98183657173E+02 0.  0.
          1    1    3    3  502    0  0.62641457646E+02 -0.62055568449E+01  0.10529178617E+01  0.62956888326E+02  0.00000000000E+00 0. -1.
         -1    1    3    3    0  502  0.33326749909E+03  0.17567671661E+03  0.18123026005E+02  0.37717102060E+03  0.00000000000E+00 0.  1.
         11    1    5    5    0    0 -0.60965220682E+02  0.21220220749E+02 -0.31480716125E+03  0.32135744067E+03  0.00000000000E+00 0.  1.
        -11    1    5    5    0    0 -0.43278386690E+03  0.58179090115E+02 -0.12821270142E+04  0.13544505759E+04  0.00000000000E+00 0. -1.
          1    1    6    6  503    0  0.35712078345E+02 -0.20339165915E+03 -0.72617316065E+02  0.21889905012E+03  0.00000000000E+00 0. -1.
         -1    1    6    6    0  503  0.62128052496E+02 -0.45478811479E+02 -0.45903578321E+02  0.89640145600E+02  0.00000000000E+00 0.  1.
<mgrwt>
<rscale>  0 0.17322577E+04</rscale>
<asrwt>0</asrwt>
<pdfrwt beam="1">  1        2 0.31698110E+00 0.17322577E+04</pdfrwt>
<pdfrwt beam="2">  1       -2 0.56015077E-01 0.17322577E+04</pdfrwt>
<totfact> 0.17565550E+01</totfact>
</mgrwt>
</event>
<event>
12    2  0.3555611E-008  0.1398889E+04  0.7818608E-02  0.8954623E-01
         -1   -1    0    0    0  501 -0.00000000000E+00  0.00000000000E+00  0.26240020851E+03  0.26240020851E+03  0.00000000000E+00 0.  1.
          1   -1    0    0  501    0  0.00000000000E+00 -0.00000000000E+00 -0.18644131559E+04  0.18644131559E+04  0.00000000000E+00 0. -1.
         23    2    1    2    0    0 -0.25481289116E+03  0.10612656598E+03 -0.28482754815E+02  0.29200619493E+03  0.90905957154E+02 0.  0.
        254    2    1    2    0    0  0.25481289116E+03 -0.10612656598E+03 -0.15735301926E+04  0.18348071695E+04  0.90240103321E+03 0.  0.
         23    2    4    4    0    0  0.57329130089E+03 -0.17326547930E+03 -0.10061558322E+04  0.11744729270E+04  0.91396146510E+02 0.  0.
         23    2    4    4    0    0 -0.31847840973E+03  0.67138913316E+02 -0.56737436040E+03  0.66033424250E+03  0.90506993289E+02 0.  0.
          1    1    3    3  502    0 -0.48247329841E+01  0.24077133408E+02 -0.14519537966E+02  0.28527239338E+02  0.00000000000E+00 0. -1.
         -1    1    3    3    0  502 -0.24998815818E+03  0.82049432573E+02 -0.13963216849E+02  0.26347895559E+03  0.00000000000E+00 0.  1.
         11    1    5    5    0    0  0.46538903491E+02  0.10766644938E+02 -0.85020870936E+02  0.97520965316E+02  0.00000000000E+00 0. -1.
        -11    1    5    5    0    0  0.52675239740E+03 -0.18403212423E+03 -0.92113496128E+03  0.10769519617E+04  0.00000000000E+00 0.  1.
          3    1    6    6  503    0  0.11267891115E+01 -0.48015759694E+01  0.26947037750E+00  0.49393724071E+01  0.00000000000E+00 0. -1.
         -3    1    6    6    0  503 -0.31960519884E+03  0.71940489285E+02 -0.56764383078E+03  0.65539487010E+03  0.00000000000E+00 0.  1.
<mgrwt>
<rscale>  0 0.13988887E+04</rscale>
<asrwt>0</asrwt>
<pdfrwt beam="1">  1        1 0.28683280E+00 0.13988887E+04</pdfrwt>
<pdfrwt beam="2">  1       -1 0.40369261E-01 0.13988887E+04</pdfrwt>
<totfact> 0.21522772E+01</totfact>
</mgrwt>
</event>
<event>
12    2  0.3555611E-008  0.2479381E+04  0.7818608E-02  0.8410368E-01
         -1   -1    0    0    0  501 -0.00000000000E+00  0.00000000000E+00  0.11442441455E+04  0.11442441455E+04  0.00000000000E+00 0.  1.
          1   -1    0    0  501    0  0.00000000000E+00 -0.00000000000E+00 -0.13430986376E+04  0.13430986376E+04  0.00000000000E+00 0. -1.
         23    2    1    2    0    0 -0.91462413220E+02 -0.10702379218E+04 -0.43644951395E+02  0.10785681479E+04  0.87348643229E+02 0.  0.
        254    2    1    2    0    0  0.91462413220E+02  0.10702379218E+04 -0.15520954071E+03  0.14087746352E+04  0.89821010283E+03 0.  0.
         23    2    4    4    0    0  0.26686574907E+03  0.11263560072E+04 -0.24073450817E+03  0.11859417646E+04  0.92787836398E+02 0.  0.
         23    2    4    4    0    0 -0.17540333585E+03 -0.56118085366E+02  0.85524967455E+02  0.22283287059E+03  0.91784521721E+02 0.  0.
          3    1    3    3  502    0 -0.50188776868E+01 -0.96619891127E+02 -0.29027651552E+02  0.10101087590E+03  0.00000000000E+00 0. -1.
         -3    1    3    3    0  502 -0.86443535533E+02 -0.97361803069E+03 -0.14617299843E+02  0.97755727197E+03  0.00000000000E+00 0.  1.
         11    1    5    5    0    0  0.23260320553E+03  0.86187264228E+03 -0.15697743346E+03  0.90640532730E+03  0.00000000000E+00 0. -1.
        -11    1    5    5    0    0  0.34262543539E+02  0.26448336490E+03 -0.83757074709E+02  0.27953643727E+03  0.00000000000E+00 0.  1.
          1    1    6    6  503    0 -0.14405370053E+03 -0.80112825250E+02  0.58134952600E+02  0.17478331191E+03  0.00000000000E+00 0. -1.
         -1    1    6    6    0  503 -0.31349635312E+02  0.23994739883E+02  0.27390014855E+02  0.48049558687E+02  0.00000000000E+00 0.  1.
<mgrwt>
<rscale>  0 0.24793812E+04</rscale>
<asrwt>0</asrwt>
<pdfrwt beam="1">  1        1 0.20663056E+00 0.24793812E+04</pdfrwt>
<pdfrwt beam="2">  1       -1 0.17603756E+00 0.24793812E+04</pdfrwt>
<totfact> 0.16674717E+00</totfact>
</mgrwt>
</event>
<event>
12    2  0.3555611E-008  0.1504470E+04  0.7818608E-02  0.8881486E-01
         -1   -1    0    0    0  501 -0.00000000000E+00  0.00000000000E+00  0.60086896253E+03  0.60086896253E+03  0.00000000000E+00 0.  1.
          1   -1    0    0  501    0  0.00000000000E+00 -0.00000000000E+00 -0.94173176103E+03  0.94173176103E+03  0.00000000000E+00 0. -1.
         23    2    1    2    0    0 -0.10679372958E+03 -0.14349013697E+03  0.34281067349E+03  0.39698821080E+03  0.89923086971E+02 0.  0.
        254    2    1    2    0    0  0.10679372958E+03  0.14349013697E+03 -0.68367347199E+03  0.11456125128E+04  0.90167859739E+03 0.  0.
         23    2    4    4    0    0  0.14444713559E+03  0.51050357831E+03 -0.37802163834E+03  0.65777992047E+03  0.91077913183E+02 0.  0.
         23    2    4    4    0    0 -0.37653406011E+02 -0.36701344134E+03 -0.30565183365E+03  0.48783259229E+03  0.91874640550E+02 0.  0.
          3    1    3    3  502    0 -0.22854745853E+02  0.95808284053E+01  0.55779976688E+02  0.61037181130E+02  0.00000000000E+00 0. -1.
         -3    1    3    3    0  502 -0.83938983727E+02 -0.15307096538E+03  0.28703069680E+03  0.33595102967E+03  0.00000000000E+00 0.  1.
         11    1    5    5    0    0  0.14239688131E+03  0.51406649590E+03 -0.37780227388E+03  0.65366336303E+03  0.00000000000E+00 0.  1.
        -11    1    5    5    0    0  0.20502542844E+01 -0.35629175927E+01 -0.21936446226E+00  0.41165574417E+01  0.00000000000E+00 0. -1.
          1    1    6    6  503    0  0.20315668717E+02 -0.11237168071E+03 -0.13035136408E+03  0.17329627560E+03  0.00000000000E+00 0. -1.
         -1    1    6    6    0  503 -0.57969074727E+02 -0.25464176063E+03 -0.17530046958E+03  0.31453631669E+03  0.00000000000E+00 0.  1.
<mgrwt>
<rscale>  0 0.15044699E+04</rscale>
<asrwt>0</asrwt>
<pdfrwt beam="1">  1        1 0.14488181E+00 0.15044699E+04</pdfrwt>
<pdfrwt beam="2">  1       -1 0.92441379E-01 0.15044699E+04</pdfrwt>
<totfact> 0.18530156E+01</totfact>
</mgrwt>
</event>
<event>
12    2  0.3555611E-008  0.1813017E+04  0.7818608E-02  0.8699408E-01
          2   -1    0    0  501    0  0.00000000000E+00  0.00000000000E+00  0.62181212590E+03  0.62181212590E+03  0.00000000000E+00 0. -1.
         -2   -1    0    0    0  501 -0.00000000000E+00 -0.00000000000E+00 -0.13215531207E+04  0.13215531207E+04  0.00000000000E+00 0.  1.
         23    2    1    2    0    0  0.11535291805E+03 -0.38735815380E+03  0.33996070382E+03  0.53583502064E+03  0.90516596180E+02 0.  0.
        254    2    1    2    0    0 -0.11535291805E+03  0.38735815380E+03 -0.10397016986E+04  0.14075302260E+04  0.85837583836E+03 0.  0.
         23    2    4    4    0    0 -0.33154335428E+03  0.44889348011E+03 -0.32311000785E+03  0.65129227028E+03  0.91406738846E+02 0.  0.
         23    2    4    4    0    0  0.21619043623E+03 -0.61535326311E+02 -0.71659169077E+03  0.75623795568E+03  0.88697763383E+02 0.  0.
          1    1    3    3  502    0  0.10398261590E+03 -0.30837419363E+03  0.22401125517E+03  0.39507982757E+03  0.00000000000E+00 0. -1.
         -1    1    3    3    0  502  0.11370302148E+02 -0.78983960166E+02  0.11594944864E+03  0.14075519307E+03  0.00000000000E+00 0.  1.
         11    1    5    5    0    0 -0.28913257383E+03  0.43102916896E+03 -0.30370298564E+03  0.60134789701E+03  0.00000000000E+00 0.  1.
        -11    1    5    5    0    0 -0.42410780449E+02  0.17864311148E+02 -0.19407022207E+02  0.49944373277E+02  0.00000000000E+00 0. -1.
          3    1    6    6  503    0  0.21361449565E+03 -0.48189403199E+02 -0.59734010540E+03  0.63621425075E+03  0.00000000000E+00 0. -1.
         -3    1    6    6    0  503  0.25759405879E+01 -0.13345923112E+02 -0.11925158537E+03  0.12002370493E+03  0.00000000000E+00 0.  1.
<mgrwt>
<rscale>  0 0.18130171E+04</rscale>
<asrwt>0</asrwt>
<pdfrwt beam="1">  1        2 0.95663405E-01 0.18130171E+04</pdfrwt>
<pdfrwt beam="2">  1       -2 0.20331586E+00 0.18130171E+04</pdfrwt>
<totfact> 0.56612232E+00</totfact>
</mgrwt>
</event>
<event>
12    2  0.3555611E-008  0.2288647E+04  0.7818608E-02  0.8482411E-01
         -2   -1    0    0    0  501 -0.00000000000E+00  0.00000000000E+00  0.75153168623E+03  0.75153168623E+03  0.00000000000E+00 0.  1.
          2   -1    0    0  501    0  0.00000000000E+00 -0.00000000000E+00 -0.17424095525E+04  0.17424095525E+04  0.00000000000E+00 0. -1.
         23    2    1    2    0    0  0.67683605110E+03 -0.65379121581E+03 -0.64815223549E+03  0.11463984436E+04  0.92617910000E+02 0.  0.
        254    2    1    2    0    0 -0.67683605110E+03  0.65379121581E+03 -0.34272563077E+03  0.13475427951E+04  0.90158789515E+03 0.  0.
         23    2    4    4    0    0 -0.22527119539E+03  0.31978799144E+03  0.29050657651E+03  0.49606063577E+03  0.93116123306E+02 0.  0.
         23    2    4    4    0    0 -0.45156485571E+03  0.33400322437E+03 -0.63323220728E+03  0.85148215932E+03  0.92573573484E+02 0.  0.
          4    1    3    3  502    0  0.44271430767E+03 -0.41295927719E+03 -0.46830418249E+03  0.76540194027E+03  0.00000000000E+00 0. -1.
         -4    1    3    3    0  502  0.23412174343E+03 -0.24083193862E+03 -0.17984805300E+03  0.38099650336E+03  0.00000000000E+00 0.  1.
         11    1    5    5    0    0 -0.20235129351E+03  0.30789711439E+03  0.24109921131E+03  0.44031296680E+03  0.00000000000E+00 0.  1.
        -11    1    5    5    0    0 -0.22919901881E+02  0.11890877044E+02  0.49407365201E+02  0.55747668966E+02  0.00000000000E+00 0. -1.
          1    1    6    6  503    0 -0.16253022545E+02 -0.26563174982E+01 -0.72276846046E+01  0.17984887801E+02  0.00000000000E+00 0. -1.
         -1    1    6    6    0  503 -0.43531183317E+03  0.33665954187E+03 -0.62600452268E+03  0.83349727152E+03  0.00000000000E+00 0.  1.
<mgrwt>
<rscale>  0 0.22886468E+04</rscale>
<asrwt>0</asrwt>
<pdfrwt beam="1">  1        2 0.26806301E+00 0.22886468E+04</pdfrwt>
<pdfrwt beam="2">  1       -2 0.11562026E+00 0.22886468E+04</pdfrwt>
<totfact> 0.49055091E+00</totfact>
</mgrwt>
</event>
<event>
12    2  0.3555611E-008  0.1867380E+04  0.7818608E-02  0.8671266E-01
         -1   -1    0    0    0  501 -0.00000000000E+00  0.00000000000E+00  0.11368447912E+04  0.11368447912E+04  0.00000000000E+00 0.  1.
          1   -1    0    0  501    0  0.00000000000E+00 -0.00000000000E+00 -0.76683912031E+03  0.76683912031E+03  0.00000000000E+00 0. -1.
         23    2    1    2    0    0  0.53052463721E+03  0.93535961671E+02  0.62105581722E+03  0.82754502978E+03  0.94419708762E+02 0.  0.
        254    2    1    2    0    0 -0.53052463721E+03 -0.93535961671E+02 -0.25105014631E+03  0.10761388818E+04  0.89713062041E+03 0.  0.
         23    2    4    4    0    0 -0.50042435309E+03  0.31289664175E+03 -0.27689773905E+03  0.65743125061E+03  0.84939094627E+02 0.  0.
         23    2    4    4    0    0 -0.30100284114E+02 -0.40643260342E+03  0.25847592742E+02  0.41870763115E+03  0.92490508194E+02 0.  0.
          2    1    3    3  502    0  0.54218416068E+02 -0.16943148219E+01  0.28269791512E+02  0.61169342450E+02  0.00000000000E+00 0. -1.
         -2    1    3    3    0  502  0.47630622114E+03  0.95230276493E+02  0.59278602571E+03  0.76637568733E+03  0.00000000000E+00 0.  1.
         11    1    5    5    0    0 -0.27790478717E+03  0.14589954792E+03 -0.18548049196E+03  0.36458299702E+03  0.00000000000E+00 0. -1.
        -11    1    5    5    0    0 -0.22251956592E+03  0.16699709383E+03 -0.91417247092E+02  0.29284825359E+03  0.00000000000E+00 0.  1.
          3    1    6    6  503    0 -0.56017075582E+02 -0.34858907058E+03  0.34468775202E+02  0.35473983333E+03  0.00000000000E+00 0. -1.
         -3    1    6    6    0  503  0.25916791467E+02 -0.57843532841E+02 -0.86211824600E+01  0.63967797824E+02  0.00000000000E+00 0.  1.
<mgrwt>
<rscale>  0 0.18673800E+04</rscale>
<asrwt>0</asrwt>
<pdfrwt beam="1">  1        1 0.11797525E+00 0.18673800E+04</pdfrwt>
<pdfrwt beam="2">  1       -1 0.17489920E+00 0.18673800E+04</pdfrwt>
<totfact> 0.50276931E+00</totfact>
</mgrwt>
</event>
<event>
12    2  0.3555611E-008  0.1610066E+04  0.7818608E-02  0.8814388E-01
          2   -1    0    0  501    0  0.00000000000E+00  0.00000000000E+00  0.15637813625E+04  0.15637813625E+04  0.00000000000E+00 0. -1.
         -2   -1    0    0    0  501 -0.00000000000E+00 -0.00000000000E+00 -0.41442993956E+03  0.41442993956E+03  0.00000000000E+00 0.  1.
         23    2    1    2    0    0 -0.27283067444E+03 -0.19210540373E+03  0.87723349315E+03  0.94287975607E+03  0.90236189241E+02 0.  0.
        254    2    1    2    0    0  0.27283067444E+03  0.19210540373E+03  0.27211792979E+03  0.10353315460E+04  0.94155306772E+03 0.  0.
         23    2    4    4    0    0  0.53244175178E+03  0.31206211470E+03 -0.82804729686E+01  0.62400388029E+03  0.91843856212E+02 0.  0.
         23    2    4    4    0    0 -0.25961107734E+03 -0.11995671097E+03  0.28039840276E+03  0.41132766569E+03  0.93699841565E+02 0.  0.
          1    1    3    3  502    0 -0.83103348272E+02 -0.22507335523E+02  0.15772387375E+03  0.17969297982E+03  0.00000000000E+00 0. -1.
         -1    1    3    3    0  502 -0.18972732617E+03 -0.16959806821E+03  0.71950961940E+03  0.76318677625E+03  0.00000000000E+00 0.  1.
         11    1    5    5    0    0  0.15123631831E+03  0.13829182939E+03  0.17799453505E+01  0.20493955757E+03  0.00000000000E+00 0. -1.
        -11    1    5    5    0    0  0.38120543347E+03  0.17377028530E+03 -0.10060418319E+02  0.41906432272E+03  0.00000000000E+00 0.  1.
          1    1    6    6  503    0 -0.45603097458E+02 -0.91501927744E+01  0.72651653542E+01  0.47076014627E+02  0.00000000000E+00 0. -1.
         -1    1    6    6    0  503 -0.21400797988E+03 -0.11080651819E+03  0.27313323741E+03  0.36425165106E+03  0.00000000000E+00 0.  1.
<mgrwt>
<rscale>  0 0.16100656E+04</rscale>
<asrwt>0</asrwt>
<pdfrwt beam="1">  1        2 0.24058174E+00 0.16100656E+04</pdfrwt>
<pdfrwt beam="2">  1       -2 0.63758453E-01 0.16100656E+04</pdfrwt>
<totfact> 0.25476509E+01</totfact>
</mgrwt>
</event>
<event>
12    2  0.3555611E-008  0.2895690E+04  0.7818608E-02  0.8274161E-01
         -1   -1    0    0    0  501 -0.00000000000E+00  0.00000000000E+00  0.15934689667E+04  0.15934689667E+04  0.00000000000E+00 0.  1.
          1   -1    0    0  501    0  0.00000000000E+00 -0.00000000000E+00 -0.13155297293E+04  0.13155297293E+04  0.00000000000E+00 0. -1.
         23    2    1    2    0    0 -0.70744318492E+03 -0.40864456429E+03  0.11368088154E+04  0.14028805030E+04  0.90957039656E+02 0.  0.
        254    2    1    2    0    0  0.70744318492E+03  0.40864456429E+03 -0.85886957798E+03  0.15061181930E+04  0.92912260739E+03 0.  0.
         23    2    4    4    0    0  0.29144000067E+02  0.37202567985E+03  0.28220429098E+02  0.38484080475E+03  0.89741702557E+02 0.  0.
         23    2    4    4    0    0  0.67829918485E+03  0.36618884439E+02 -0.88709000707E+03  0.11212773883E+04  0.94358751194E+02 0.  0.
          3    1    3    3  502    0 -0.52384985507E+03 -0.29155966717E+03  0.89762121118E+03  0.10794209322E+04  0.00000000000E+00 0. -1.
         -3    1    3    3    0  502 -0.18359332985E+03 -0.11708489711E+03  0.23918760423E+03  0.32345957076E+03  0.00000000000E+00 0.  1.
         11    1    5    5    0    0  0.41616721415E+02  0.33747410123E+03  0.47537646552E+02  0.34333736811E+03  0.00000000000E+00 0. -1.
        -11    1    5    5    0    0 -0.12472721348E+02  0.34551578617E+02 -0.19317217454E+02  0.41503436640E+02  0.00000000000E+00 0.  1.
          4    1    6    6  503    0  0.40821486331E+03 -0.23727313060E+02 -0.51706267290E+03  0.65920874366E+03  0.00000000000E+00 0. -1.
         -4    1    6    6    0  503  0.27008432154E+03  0.60346197499E+02 -0.37002733417E+03  0.46206864461E+03  0.00000000000E+00 0.  1.
<mgrwt>
<rscale>  0 0.28956905E+04</rscale>
<asrwt>0</asrwt>
<pdfrwt beam="1">  1        1 0.20238919E+00 0.28956905E+04</pdfrwt>
<pdfrwt beam="2">  1       -1 0.24514907E+00 0.28956905E+04</pdfrwt>
<totfact> 0.56788199E-01</totfact>
</mgrwt>
</event>
<event>
12    2  0.3555611E-008  0.1338947E+04  0.7818608E-02  0.8999238E-01
          2   -1    0    0  501    0  0.00000000000E+00  0.00000000000E+00  0.27216930642E+04  0.27216930642E+04  0.00000000000E+00 0.  1.
         -2   -1    0    0    0  501 -0.00000000000E+00 -0.00000000000E+00 -0.16467498091E+03  0.16467498091E+03  0.00000000000E+00 0. -1.
         23    2    1    2    0    0  0.26671199020E+03  0.12162705235E+02  0.18579495345E+03  0.33711848980E+03  0.88577053032E+02 0.  0.
        254    2    1    2    0    0 -0.26671199020E+03 -0.12162705235E+02  0.23712231298E+04  0.25492495553E+04  0.89704567699E+03 0.  0.
         23    2    4    4    0    0  0.21194870240E+03  0.27632281369E+03  0.74740853921E+03  0.82952008775E+03  0.90595263097E+02 0.  0.
         23    2    4    4    0    0 -0.47866069260E+03 -0.28848551892E+03  0.16238145906E+04  0.17197294676E+04  0.91409318574E+02 0.  0.
          1    1    3    3  502    0  0.26716943525E+03 -0.15931341359E+01  0.18018521987E+03  0.32225573489E+03  0.00000000000E+00 0. -1.
         -1    1    3    3    0  502 -0.45744505330E+00  0.13755839371E+02  0.56097335854E+01  0.14862754915E+02  0.00000000000E+00 0.  1.
         11    1    5    5    0    0  0.13950558006E+02 -0.53537096130E+01  0.41800935485E+02  0.44391423527E+02  0.00000000000E+00 0. -1.
        -11    1    5    5    0    0  0.19799814440E+03  0.28167652330E+03  0.70560760372E+03  0.78512866423E+03  0.00000000000E+00 0.  1.
          1    1    6    6  503    0 -0.10114299918E+03 -0.76256476945E+02  0.26802912210E+03  0.29645331311E+03  0.00000000000E+00 0. -1.
         -1    1    6    6    0  503 -0.37751769342E+03 -0.21222904198E+03  0.13557854685E+04  0.14232761544E+04  0.00000000000E+00 0.  1.
<mgrwt>
<rscale>  0 0.13389470E+04</rscale>
<asrwt>0</asrwt>
<pdfrwt beam="1">  1        2 0.41872198E+00 0.13389470E+04</pdfrwt>
<pdfrwt beam="2">  1       -2 0.25334614E-01 0.13389470E+04</pdfrwt>
<totfact> 0.35520848E+01</totfact>
</mgrwt>
</event>
<event>
12    2  0.3555611E-008  0.2703146E+04  0.7818608E-02  0.8333985E-01
         -1   -1    0    0    0  501 -0.00000000000E+00  0.00000000000E+00  0.69852894908E+03  0.69852894908E+03  0.00000000000E+00 0.  1.
          1   -1    0    0  501    0  0.00000000000E+00 -0.00000000000E+00 -0.26151378684E+04  0.26151378684E+04  0.00000000000E+00 0. -1.
         23    2    1    2    0    0 -0.65380309733E+03 -0.86813622098E+03 -0.14846660031E+04  0.18422408652E+04  0.92191518790E+02 0.  0.
        254    2    1    2    0    0  0.65380309733E+03  0.86813622098E+03 -0.43194291616E+03  0.14714259523E+04  0.89297293466E+03 0.  0.
         23    2    4    4    0    0  0.79326222304E+03  0.45195839197E+03 -0.11982500809E+03  0.92532650304E+03  0.91322297869E+02 0.  0.
         23    2    4    4    0    0 -0.13945912572E+03  0.41617782901E+03 -0.31211790806E+03  0.54609944926E+03  0.90300536235E+02 0.  0.
          2    1    3    3  502    0 -0.65445458924E+03 -0.86449999546E+03 -0.14847816021E+04  0.18385449294E+04  0.00000000000E+00 0. -1.
         -2    1    3    3    0  502  0.65149191559E+00 -0.36362255168E+01  0.11559899311E+00  0.36959357208E+01  0.00000000000E+00 0.  1.
         11    1    5    5    0    0  0.39381208496E+03  0.21217228029E+03 -0.10348700608E+03  0.45914550549E+03  0.00000000000E+00 0. -1.
        -11    1    5    5    0    0  0.39945013808E+03  0.23978611168E+03 -0.16338002014E+02  0.46618099755E+03  0.00000000000E+00 0.  1.
          1    1    6    6  503    0 -0.27739556983E+02  0.21667417335E+03 -0.17089713609E+03  0.27734998024E+03  0.00000000000E+00 0.  1.
         -1    1    6    6    0  503 -0.11171956873E+03  0.19950365567E+03 -0.14122077198E+03  0.26874946902E+03  0.00000000000E+00 0. -1.
<mgrwt>
<rscale>  0 0.27031460E+04</rscale>
<asrwt>0</asrwt>
<pdfrwt beam="1">  1        1 0.40232891E+00 0.27031460E+04</pdfrwt>
<pdfrwt beam="2">  1       -1 0.10746599E+00 0.27031460E+04</pdfrwt>
<totfact> 0.79216465E-01</totfact>
</mgrwt>
</event>
<event>
12    2  0.3555611E-008  0.1710294E+04  0.7818608E-02  0.8755515E-01
          2   -1    0    0  501    0  0.00000000000E+00  0.00000000000E+00  0.10824168749E+04  0.10824168749E+04  0.00000000000E+00 0. -1.
         -2   -1    0    0    0  501 -0.00000000000E+00 -0.00000000000E+00 -0.67559577729E+03  0.67559577729E+03  0.00000000000E+00 0.  1.
         23    2    1    2    0    0  0.49728793922E+03 -0.30103749558E+03  0.33864241976E+03  0.67932548496E+03  0.94263236845E+02 0.  0.
        254    2    1    2    0    0 -0.49728793922E+03  0.30103749558E+03  0.68178677877E+02  0.10786871673E+04  0.90608984347E+03 0.  0.
         23    2    4    4    0    0 -0.38125395796E+03 -0.12433240000E+03 -0.29191446514E+03  0.50266113437E+03  0.81492545040E+02 0.  0.
         23    2    4    4    0    0 -0.11603398126E+03  0.42536989558E+03  0.36009314302E+03  0.57602603288E+03  0.87951611889E+02 0.  0.
          3    1    3    3  502    0  0.21326397042E+03 -0.11167513385E+03  0.19145457664E+03  0.30758366588E+03  0.00000000000E+00 0. -1.
         -3    1    3    3    0  502  0.28402396880E+03 -0.18936236173E+03  0.14718784312E+03  0.37174181909E+03  0.00000000000E+00 0.  1.
         11    1    5    5    0    0 -0.34184129045E+03 -0.12291438327E+03 -0.23233420760E+03  0.43121061848E+03  0.00000000000E+00 0.  1.
        -11    1    5    5    0    0 -0.39412667512E+02 -0.14180167292E+01 -0.59580257545E+02  0.71450515891E+02  0.00000000000E+00 0. -1.
          4    1    6    6  503    0 -0.26359257946E+01 -0.12830993248E+01 -0.31689155279E+01  0.43169982969E+01  0.00000000000E+00 0. -1.
         -4    1    6    6    0  503 -0.11339805546E+03  0.42665299490E+03  0.36326205855E+03  0.57170903458E+03  0.00000000000E+00 0.  1.
<mgrwt>
<rscale>  0 0.17102939E+04</rscale>
<asrwt>0</asrwt>
<pdfrwt beam="1">  1        2 0.16652567E+00 0.17102939E+04</pdfrwt>
<pdfrwt beam="2">  1       -2 0.10393781E+00 0.17102939E+04</pdfrwt>
<totfact> 0.16002019E+01</totfact>
</mgrwt>
</event>
<event>
12    2  0.3555611E-008  0.1296694E+04  0.7818608E-02  0.9032191E-01
         -2   -1    0    0    0  501 -0.00000000000E+00  0.00000000000E+00  0.13211965577E+04  0.13211965577E+04  0.00000000000E+00 0.  1.
          2   -1    0    0  501    0  0.00000000000E+00 -0.00000000000E+00 -0.31816140981E+03  0.31816140981E+03  0.00000000000E+00 0. -1.
         23    2    1    2    0    0  0.12320770615E+03  0.22911145931E+03  0.51898830046E+03  0.58583875225E+03  0.78651052061E+02 0.  0.
        254    2    1    2    0    0 -0.12320770615E+03 -0.22911145931E+03  0.48404684746E+03  0.10535192153E+04  0.89884881197E+03 0.  0.
         23    2    4    4    0    0  0.92277175362E+01  0.33244073495E+03  0.24085629526E+03  0.42076787301E+03  0.91825132514E+02 0.  0.
         23    2    4    4    0    0 -0.13243542368E+03 -0.56155219426E+03  0.24319055220E+03  0.63275134227E+03  0.91392604356E+02 0.  0.
          4    1    3    3  502    0  0.58632005973E+01  0.71136681817E+02  0.18350440272E+03  0.19689761410E+03  0.00000000000E+00 0. -1.
         -4    1    3    3    0  502  0.11734450555E+03  0.15797477749E+03  0.33548389773E+03  0.38894113815E+03  0.00000000000E+00 0.  1.
         11    1    5    5    0    0 -0.10645802216E+02  0.29693146504E+03  0.17946745936E+03  0.34711697885E+03  0.00000000000E+00 0. -1.
        -11    1    5    5    0    0  0.19873519752E+02  0.35509269911E+02  0.61388835900E+02  0.73650894157E+02  0.00000000000E+00 0.  1.
          4    1    6    6  503    0 -0.84514933406E+02 -0.41740680799E+03  0.21916171458E+03  0.47896041012E+03  0.00000000000E+00 0. -1.
         -4    1    6    6    0  503 -0.47920490278E+02 -0.14414538627E+03  0.24028837616E+02  0.15379093214E+03  0.00000000000E+00 0.  1.
<mgrwt>
<rscale>  0 0.12966939E+04</rscale>
<asrwt>0</asrwt>
<pdfrwt beam="1">  1        2 0.48947910E-01 0.12966939E+04</pdfrwt>
<pdfrwt beam="2">  1       -2 0.20326101E+00 0.12966939E+04</pdfrwt>
<totfact> 0.12753988E+01</totfact>
</mgrwt>
</event>
<event>
12    2  0.3555611E-008  0.1149472E+04  0.7818608E-02  0.9158270E-01
          2   -1    0    0  501    0  0.00000000000E+00  0.00000000000E+00  0.13851104513E+04  0.13851104513E+04  0.00000000000E+00 0. -1.
         -2   -1    0    0    0  501 -0.00000000000E+00 -0.00000000000E+00 -0.23848041255E+03  0.23848041255E+03  0.00000000000E+00 0.  1.
         23    2    1    2    0    0 -0.57238304634E+01 -0.14627061113E+03  0.41216713915E+03  0.44684713751E+03  0.91448126186E+02 0.  0.
        254    2    1    2    0    0  0.57238304634E+01  0.14627061113E+03  0.73446289957E+03  0.11767437263E+04  0.90766854780E+03 0.  0.
         23    2    4    4    0    0  0.38134187324E+03 -0.97270728369E+02  0.55135165033E+03  0.68394373219E+03  0.94377791898E+02 0.  0.
         23    2    4    4    0    0 -0.37561804278E+03  0.24354133950E+03  0.18311124924E+03  0.49279999412E+03  0.94450021187E+02 0.  0.
          2    1    3    3  502    0 -0.76028508425E+01 -0.15859372198E+03  0.39424300860E+03  0.42501449602E+03  0.00000000000E+00 0. -1.
         -2    1    3    3    0  502  0.18790203792E+01  0.12323110843E+02  0.17924130550E+02  0.21832641490E+02  0.00000000000E+00 0.  1.
         11    1    5    5    0    0  0.29647680518E+03 -0.38264842651E+02  0.37546266927E+03  0.47993219334E+03  0.00000000000E+00 0. -1.
        -11    1    5    5    0    0  0.84865068063E+02 -0.59005885718E+02  0.17588898106E+03  0.20401153885E+03  0.00000000000E+00 0.  1.
          3    1    6    6  503    0 -0.32915285075E+03  0.18751281668E+03  0.12265703329E+03  0.39818011426E+03  0.00000000000E+00 0. -1.
         -3    1    6    6    0  503 -0.46465192033E+02  0.56028522823E+02  0.60454215944E+02  0.94619879866E+02  0.00000000000E+00 0.  1.
<mgrwt>
<rscale>  0 0.11494724E+04</rscale>
<asrwt>0</asrwt>
<pdfrwt beam="1">  1        2 0.21309391E+00 0.11494724E+04</pdfrwt>
<pdfrwt beam="2">  1       -2 0.36689295E-01 0.11494724E+04</pdfrwt>
<totfact> 0.10213890E+02</totfact>
</mgrwt>
</event>
<event>
12    2  0.3555611E-008  0.2180281E+04  0.7818608E-02  0.8526680E-01
          2   -1    0    0  501    0  0.00000000000E+00  0.00000000000E+00  0.58841365796E+03  0.58841365796E+03  0.00000000000E+00 0. -1.
         -2   -1    0    0    0  501 -0.00000000000E+00 -0.00000000000E+00 -0.20196791045E+04  0.20196791045E+04  0.00000000000E+00 0.  1.
         23    2    1    2    0    0 -0.80368091697E+03  0.41939903926E+03 -0.56378319538E+03  0.10717674678E+04  0.95054948485E+02 0.  0.
        254    2    1    2    0    0  0.80368091697E+03 -0.41939903926E+03 -0.86748225113E+03  0.15363252946E+04  0.88655027180E+03 0.  0.
         23    2    4    4    0    0 -0.35114778449E+01 -0.39618455210E+03 -0.50023602866E+03  0.64479070660E+03  0.92436146265E+02 0.  0.
         23    2    4    4    0    0  0.80719239481E+03 -0.23214487156E+02 -0.36724622247E+03  0.89153458802E+03  0.88688550971E+02 0.  0.
          3    1    3    3  502    0 -0.29223802411E+03  0.16393222536E+03 -0.15645810577E+03  0.36980532190E+03  0.00000000000E+00 0. -1.
         -3    1    3    3    0  502 -0.51144289286E+03  0.25546681390E+03 -0.40732508961E+03  0.70196214591E+03  0.00000000000E+00 0.  1.
         11    1    5    5    0    0  0.26214750104E+02 -0.63524591848E+02 -0.12345227784E+03  0.14129066422E+03  0.00000000000E+00 0.  1.
        -11    1    5    5    0    0 -0.29726227949E+02 -0.33265996026E+03 -0.37678375083E+03  0.50350004238E+03  0.00000000000E+00 0. -1.
          2    1    6    6  503    0  0.35649193324E+03  0.13261304861E+01 -0.11566530683E+03  0.37478890098E+03  0.00000000000E+00 0. -1.
         -2    1    6    6    0  503  0.45070046157E+03 -0.24540617642E+02 -0.25158091564E+03  0.51674568705E+03  0.00000000000E+00 0.  1.
<mgrwt>
<rscale>  0 0.21802814E+04</rscale>
<asrwt>0</asrwt>
<pdfrwt beam="1">  1        2 0.90525178E-01 0.21802814E+04</pdfrwt>
<pdfrwt beam="2">  1       -2 0.31071986E+00 0.21802814E+04</pdfrwt>
<totfact> 0.12709066E+00</totfact>
</mgrwt>
</event>
<event>
12    2  0.3555611E-008  0.2287888E+04  0.7818608E-02  0.8482712E-01
         -3   -1    0    0    0  501 -0.00000000000E+00  0.00000000000E+00  0.83778732866E+03  0.83778732866E+03  0.00000000000E+00 0.  1.
          3   -1    0    0  501    0  0.00000000000E+00 -0.00000000000E+00 -0.15619810714E+04  0.15619810714E+04  0.00000000000E+00 0. -1.
         23    2    1    2    0    0  0.52220562946E+03  0.80613022587E+03 -0.32853742863E+03  0.10204798682E+04  0.10439185227E+03 0.  0.
        254    2    1    2    0    0 -0.52220562946E+03 -0.80613022587E+03 -0.39565631407E+03  0.13792885319E+04  0.90738540584E+03 0.  0.
         23    2    4    4    0    0 -0.42331965434E+03 -0.99753380477E+03 -0.32505125647E+03  0.11349436163E+04  0.90362998544E+02 0.  0.
         23    2    4    4    0    0 -0.98885975115E+02  0.19140357889E+03 -0.70605057602E+02  0.24434491553E+03  0.91135050867E+02 0.  0.
          4    1    3    3  502    0  0.35445313964E+03  0.57859818420E+03 -0.27816298730E+03  0.73333998558E+03  0.00000000000E+00 0. -1.
         -4    1    3    3    0  502  0.16775248982E+03  0.22753204168E+03 -0.50374441336E+02  0.28713988259E+03  0.00000000000E+00 0.  1.
         11    1    5    5    0    0  0.22375820649E+01 -0.16610929084E+02  0.17736612717E+01  0.16854542795E+02  0.00000000000E+00 0.  1.
        -11    1    5    5    0    0 -0.42555723641E+03 -0.98092287568E+03 -0.32682491774E+03  0.11180890735E+04  0.00000000000E+00 0. -1.
          2    1    6    6  503    0 -0.10031020015E+03  0.19874352704E+03 -0.75874323220E+02  0.23519787142E+03  0.00000000000E+00 0. -1.
         -2    1    6    6    0  503  0.14242250376E+01 -0.73399481474E+01  0.52692656176E+01  0.91470441079E+01  0.00000000000E+00 0.  1.
<mgrwt>
<rscale>  0 0.22878881E+04</rscale>
<asrwt>0</asrwt>
<pdfrwt beam="1">  1        3 0.24030478E+00 0.22878881E+04</pdfrwt>
<pdfrwt beam="2">  1       -3 0.12889036E+00 0.22878881E+04</pdfrwt>
<totfact> 0.94346394E-02</totfact>
</mgrwt>
</event>
<event>
12    2  0.3555611E-008  0.1457297E+04  0.7818608E-02  0.8913357E-01
         -1   -1    0    0    0  501 -0.00000000000E+00  0.00000000000E+00  0.69270756016E+03  0.69270756016E+03  0.00000000000E+00 0.  1.
          1   -1    0    0  501    0  0.00000000000E+00 -0.00000000000E+00 -0.76645470244E+03  0.76645470244E+03  0.00000000000E+00 0. -1.
         23    2    1    2    0    0  0.38487229402E+03  0.91456578054E+02 -0.15457441920E+03  0.43450748342E+03  0.91719756354E+02 0.  0.
        254    2    1    2    0    0 -0.38487229402E+03 -0.91456578054E+02  0.80827276915E+02  0.10246547792E+04  0.94175016825E+03 0.  0.
         23    2    4    4    0    0 -0.15704609768E+03 -0.37375749565E+03  0.36447919980E+03  0.55481833880E+03  0.10305415871E+03 0.  0.
         23    2    4    4    0    0 -0.22782619634E+03  0.28230091760E+03 -0.28365192288E+03  0.46983644037E+03  0.93216326527E+02 0.  0.
          3    1    3    3  502    0  0.30229386423E+02 -0.65049646555E+01 -0.37074103705E+02  0.48276490491E+02  0.00000000000E+00 0.  1.
         -3    1    3    3    0  502  0.35464290760E+03  0.97961542709E+02 -0.11750031549E+03  0.38623099293E+03  0.00000000000E+00 0. -1.
         11    1    5    5    0    0 -0.87168100152E+01 -0.10861046713E+02 -0.62353754917E+01  0.15258604788E+02  0.00000000000E+00 0.  1.
        -11    1    5    5    0    0 -0.14832928767E+03 -0.36289644894E+03  0.37071457529E+03  0.53955973401E+03  0.00000000000E+00 0. -1.
          4    1    6    6  503    0 -0.17397147395E+03  0.26590297682E+03 -0.23204697231E+03  0.39346697980E+03  0.00000000000E+00 0. -1.
         -4    1    6    6    0  503 -0.53854722386E+02  0.16397940777E+02 -0.51604950572E+02  0.76369460575E+02  0.00000000000E+00 0.  1.
<mgrwt>
<rscale>  0 0.14572975E+04</rscale>
<asrwt>0</asrwt>
<pdfrwt beam="1">  1        1 0.11791611E+00 0.14572975E+04</pdfrwt>
<pdfrwt beam="2">  1       -1 0.10657039E+00 0.14572975E+04</pdfrwt>
<totfact> 0.18901942E+01</totfact>
</mgrwt>
</event>
<event>
12    2  0.3555611E-008  0.1852031E+04  0.7818608E-02  0.8679109E-01
         -1   -1    0    0    0  501 -0.00000000000E+00  0.00000000000E+00  0.81412158485E+03  0.81412158485E+03  0.00000000000E+00 0.  1.
          1   -1    0    0  501    0  0.00000000000E+00 -0.00000000000E+00 -0.10532886059E+04  0.10532886059E+04  0.00000000000E+00 0. -1.
         23    2    1    2    0    0 -0.57492928596E+01 -0.31599441438E+03 -0.73345521130E+03  0.80400851502E+03  0.92669417604E+02 0.  0.
        254    2    1    2    0    0  0.57492928596E+01  0.31599441438E+03  0.49428819020E+03  0.10634016758E+04  0.88691419245E+03 0.  0.
         23    2    4    4    0    0 -0.64207323665E+02 -0.86295565690E+02  0.61345366555E+03  0.62931779538E+03  0.90255098098E+02 0.  0.
         23    2    4    4    0    0  0.69956616525E+02  0.40228998007E+03 -0.11916547534E+03  0.43408388039E+03  0.86586652801E+02 0.  0.
          3    1    3    3  502    0  0.25697430512E+02 -0.16425372447E+03 -0.46773401621E+03  0.49640180687E+03  0.00000000000E+00 0. -1.
         -3    1    3    3    0  502 -0.31446723371E+02 -0.15174068991E+03 -0.26572119508E+03  0.30760670815E+03  0.00000000000E+00 0.  1.
         11    1    5    5    0    0 -0.70720133502E+02 -0.92229810018E+02  0.42345100189E+03  0.43911094970E+03  0.00000000000E+00 0. -1.
        -11    1    5    5    0    0  0.65128098363E+01  0.59342443282E+01  0.19000266365E+03  0.19020684568E+03  0.00000000000E+00 0.  1.
          3    1    6    6  503    0  0.31625075333E+02  0.79978507349E+02  0.59787613031E+01  0.86211673306E+02  0.00000000000E+00 0. -1.
         -3    1    6    6    0  503  0.38331541192E+02  0.32231147272E+03 -0.12514423665E+03  0.34787220709E+03  0.00000000000E+00 0.  1.
<mgrwt>
<rscale>  0 0.18520313E+04</rscale>
<asrwt>0</asrwt>
<pdfrwt beam="1">  1        1 0.16204440E+00 0.18520313E+04</pdfrwt>
<pdfrwt beam="2">  1       -1 0.12524948E+00 0.18520313E+04</pdfrwt>
<totfact> 0.71987743E+00</totfact>
</mgrwt>
</event>
<event>
12    2  0.3555611E-008  0.1487658E+04  0.7818608E-02  0.8892702E-01
          1   -1    0    0  501    0  0.00000000000E+00  0.00000000000E+00  0.52527625130E+03  0.52527625130E+03  0.00000000000E+00 0. -1.
         -1   -1    0    0    0  501 -0.00000000000E+00 -0.00000000000E+00 -0.10533154759E+04  0.10533154759E+04  0.00000000000E+00 0.  1.
         23    2    1    2    0    0  0.40939320562E+03  0.19738465885E+03 -0.27134739475E+03  0.54359038996E+03  0.12368347936E+03 0.  0.
        254    2    1    2    0    0 -0.40939320562E+03 -0.19738465885E+03 -0.25669182982E+03  0.10350013372E+04  0.89374133405E+03 0.  0.
         23    2    4    4    0    0 -0.13725559111E+03  0.34806651972E+03 -0.99326140623E+02  0.39802149442E+03  0.92552840973E+02 0.  0.
         23    2    4    4    0    0 -0.27213761451E+03 -0.54545117857E+03 -0.15736568920E+03  0.63697984280E+03  0.96971596670E+02 0.  0.
          1    1    3    3  502    0  0.24708029711E+03  0.14157602758E+03 -0.10203540503E+03  0.30249573333E+03  0.00000000000E+00 0. -1.
         -1    1    3    3    0  502  0.16231290851E+03  0.55808631268E+02 -0.16931198972E+03  0.24109465663E+03  0.00000000000E+00 0.  1.
         11    1    5    5    0    0 -0.11224250583E+03  0.33480049609E+03 -0.75681201095E+02  0.36113348847E+03  0.00000000000E+00 0. -1.
        -11    1    5    5    0    0 -0.25013085273E+02  0.13266023633E+02 -0.23644939528E+02  0.36888005953E+02  0.00000000000E+00 0.  1.
          3    1    6    6  503    0 -0.26024493698E+03 -0.46727900433E+03 -0.11428994226E+03  0.54693627235E+03  0.00000000000E+00 0. -1.
         -3    1    6    6    0  503 -0.11892677526E+02 -0.78172174239E+02 -0.43075746943E+02  0.90043570446E+02  0.00000000000E+00 0.  1.
<mgrwt>
<rscale>  0 0.14876580E+04</rscale>
<asrwt>0</asrwt>
<pdfrwt beam="1">  1        1 0.80811732E-01 0.14876580E+04</pdfrwt>
<pdfrwt beam="2">  1       -1 0.16204853E+00 0.14876580E+04</pdfrwt>
<totfact> 0.11300164E+01</totfact>
</mgrwt>
</event>
<event>
12    2  0.3555611E-008  0.1389579E+04  0.7818608E-02  0.8961397E-01
          1   -1    0    0  501    0  0.00000000000E+00  0.00000000000E+00  0.25516419211E+04  0.25516419211E+04  0.00000000000E+00 0. -1.
         -1   -1    0    0    0  501 -0.00000000000E+00 -0.00000000000E+00 -0.18918499140E+03  0.18918499140E+03  0.00000000000E+00 0.  1.
         23    2    1    2    0    0  0.12792834695E+03 -0.20294783819E+03  0.73926059652E+02  0.26711038924E+03  0.91265605612E+02 0.  0.
        254    2    1    2    0    0 -0.12792834695E+03  0.20294783819E+03  0.22885308701E+04  0.24737165233E+04  0.90793524401E+03 0.  0.
         23    2    4    4    0    0 -0.33172951719E+03  0.24059103564E+03  0.42853624771E+03  0.59999208087E+03  0.91753269727E+02 0.  0.
         23    2    4    4    0    0  0.20380117024E+03 -0.37643197444E+02  0.18599946223E+04  0.18737244424E+04  0.91166680164E+02 0.  0.
          4    1    3    3  502    0  0.23588938141E+02 -0.17756538556E+02  0.43220010801E+02  0.52342162716E+02  0.00000000000E+00 0. -1.
         -4    1    3    3    0  502  0.10433940880E+03 -0.18519129964E+03  0.30706048851E+02  0.21476822653E+03  0.00000000000E+00 0.  1.
         11    1    5    5    0    0 -0.51693679124E+02  0.63485779472E+02  0.13203909625E+03  0.15536088180E+03  0.00000000000E+00 0. -1.
        -11    1    5    5    0    0 -0.28003583806E+03  0.17710525616E+03  0.29649715146E+03  0.44463119907E+03  0.00000000000E+00 0.  1.
          1    1    6    6  503    0 -0.56015385287E+01 -0.42968655438E+00  0.94188428722E+01  0.10967062755E+02  0.00000000000E+00 0. -1.
         -1    1    6    6    0  503  0.20940270877E+03 -0.37213510890E+02  0.18505757795E+04  0.18627573796E+04  0.00000000000E+00 0.  1.
<mgrwt>
<rscale>  0 0.13895789E+04</rscale>
<asrwt>0</asrwt>
<pdfrwt beam="1">  1        1 0.39256027E+00 0.13895789E+04</pdfrwt>
<pdfrwt beam="2">  1       -1 0.29105385E-01 0.13895789E+04</pdfrwt>
<totfact> 0.13148650E+01</totfact>
</mgrwt>
</event>
<event>
12    2  0.3555611E-008  0.2593006E+04  0.7818608E-02  0.8370581E-01
          1   -1    0    0  501    0  0.00000000000E+00  0.00000000000E+00  0.38981966514E+04  0.38981966514E+04  0.00000000000E+00 0. -1.
         -1   -1    0    0    0  501 -0.00000000000E+00 -0.00000000000E+00 -0.43120455966E+03  0.43120455966E+03  0.00000000000E+00 0.  1.
         23    2    1    2    0    0 -0.24122011909E+03 -0.24523155515E+03 -0.28423635128E+03  0.45559341630E+03  0.91920596658E+02 0.  0.
        254    2    1    2    0    0  0.24122011909E+03  0.24523155515E+03  0.37512284430E+04  0.38738077948E+04  0.90351886401E+03 0.  0.
         23    2    4    4    0    0 -0.37904462272E+02  0.52793910512E+03  0.25292149392E+04  0.25855427904E+04  0.89145193854E+02 0.  0.
         23    2    4    4    0    0  0.27912458136E+03 -0.28270754997E+03  0.12220135039E+04  0.12882650044E+04  0.92063169224E+02 0.  0.
          3    1    3    3  502    0 -0.49724580460E+02 -0.53267015478E+02 -0.11443546363E+03  0.13566644455E+03  0.00000000000E+00 0. -1.
         -3    1    3    3    0  502 -0.19149553863E+03 -0.19196453967E+03 -0.16980088765E+03  0.31992697175E+03  0.00000000000E+00 0.  1.
         11    1    5    5    0    0 -0.41078812809E+01  0.39567513305E+02  0.33664606074E+03  0.33898824908E+03  0.00000000000E+00 0. -1.
        -11    1    5    5    0    0 -0.33796580991E+02  0.48837159181E+03  0.21925688784E+04  0.22465545413E+04  0.00000000000E+00 0.  1.
          1    1    6    6  503    0  0.97060040004E+02 -0.14127355549E+03  0.41598836122E+03  0.44991686512E+03  0.00000000000E+00 0. -1.
         -1    1    6    6    0  503  0.18206454136E+03 -0.14143399448E+03  0.80602514265E+03  0.83834813926E+03  0.00000000000E+00 0.  1.
<mgrwt>
<rscale>  0 0.25930061E+04</rscale>
<asrwt>0</asrwt>
<pdfrwt beam="1">  1        1 0.59972254E+00 0.25930061E+04</pdfrwt>
<pdfrwt beam="2">  1       -1 0.66339166E-01 0.25930061E+04</pdfrwt>
<totfact> 0.23907668E-01</totfact>
</mgrwt>
</event>
<event>
12    2  0.3555611E-008  0.2984853E+04  0.7818608E-02  0.8248069E-01
         -2   -1    0    0    0  501 -0.00000000000E+00  0.00000000000E+00  0.67581884101E+03  0.67581884101E+03  0.00000000000E+00 0.  1.
          2   -1    0    0  501    0  0.00000000000E+00 -0.00000000000E+00 -0.32957603273E+04  0.32957603273E+04  0.00000000000E+00 0. -1.
         23    2    1    2    0    0 -0.28506388558E+03 -0.50582926466E+02  0.56590996140E+03  0.64218097247E+03  0.91226452804E+02 0.  0.
        254    2    1    2    0    0  0.28506388558E+03  0.50582926466E+02 -0.31858514477E+04  0.33293981959E+04  0.92272577097E+03 0.  0.
         23    2    4    4    0    0  0.20545723588E+02 -0.17581345406E+03 -0.97696589546E+02  0.22032957263E+03  0.87567114738E+02 0.  0.
         23    2    4    4    0    0  0.26451816199E+03  0.22639638052E+03 -0.30881548582E+04  0.31090686232E+04  0.91553791837E+02 0.  0.
          2    1    3    3  502    0 -0.19803469214E+02 -0.12910881072E+02  0.11727294638E+03  0.11963198651E+03  0.00000000000E+00 0. -1.
         -2    1    3    3    0  502 -0.26526041637E+03 -0.37672045394E+02  0.44863701502E+03  0.52254898597E+03  0.00000000000E+00 0.  1.
         11    1    5    5    0    0 -0.26260334669E+02 -0.12197903041E+03 -0.49481717257E+02  0.13422715589E+03  0.00000000000E+00 0. -1.
        -11    1    5    5    0    0  0.46806058257E+02 -0.53834423649E+02 -0.48214872289E+02  0.86102416744E+02  0.00000000000E+00 0.  1.
          3    1    6    6  503    0  0.20158366818E+03  0.13873100420E+03 -0.18289808923E+04  0.18452786704E+04  0.00000000000E+00 0. -1.
         -3    1    6    6    0  503  0.62934493809E+02  0.87665376318E+02 -0.12591739658E+04  0.12637899528E+04  0.00000000000E+00 0.  1.
<mgrwt>
<rscale>  0 0.29848530E+04</rscale>
<asrwt>0</asrwt>
<pdfrwt beam="1">  1        2 0.50704006E+00 0.29848530E+04</pdfrwt>
<pdfrwt beam="2">  1       -2 0.10397213E+00 0.29848530E+04</pdfrwt>
<totfact> 0.72269247E-01</totfact>
</mgrwt>
</event>
<event>
12    2  0.3555611E-008  0.1711136E+04  0.7818608E-02  0.8755039E-01
          2   -1    0    0  501    0  0.00000000000E+00  0.00000000000E+00  0.53007235007E+03  0.53007235007E+03  0.00000000000E+00 0. -1.
         -2   -1    0    0    0  501 -0.00000000000E+00 -0.00000000000E+00 -0.13809370174E+04  0.13809370174E+04  0.00000000000E+00 0.  1.
         23    2    1    2    0    0 -0.54024028450E+02  0.46049581907E+03  0.14118024341E+03  0.49398166178E+03  0.95451694622E+02 0.  0.
        254    2    1    2    0    0  0.54024028450E+02 -0.46049581907E+03 -0.99204491073E+03  0.14170277057E+04  0.89935500150E+03 0.  0.
         23    2    4    4    0    0  0.13675350940E+03 -0.52624137058E+03 -0.11063892775E+04  0.12363292904E+04  0.93709009724E+02 0.  0.
         23    2    4    4    0    0 -0.82729480947E+02  0.65745551505E+02  0.11434436674E+03  0.18069841530E+03  0.91709533468E+02 0.  0.
          4    1    3    3  502    0 -0.19180438712E+02  0.40589700027E+03  0.13796454438E+03  0.42913224018E+03  0.00000000000E+00 0. -1.
         -4    1    3    3    0  502 -0.34843589738E+02  0.54598818803E+02  0.32156990270E+01  0.64849421592E+02  0.00000000000E+00 0.  1.
         11    1    5    5    0    0  0.85153743105E+02 -0.17161351543E+03 -0.33901587544E+03  0.38940226301E+03  0.00000000000E+00 0. -1.
        -11    1    5    5    0    0  0.51599766291E+02 -0.35462785515E+03 -0.76737340203E+03  0.84692702736E+03  0.00000000000E+00 0.  1.
          4    1    6    6  503    0 -0.78122313283E+02  0.57865596025E+01  0.51683156291E+02  0.93849500526E+02  0.00000000000E+00 0. -1.
         -4    1    6    6    0  503 -0.46071676632E+01  0.59958991902E+02  0.62661210445E+02  0.86848914779E+02  0.00000000000E+00 0.  1.
<mgrwt>
<rscale>  0 0.17111359E+04</rscale>
<asrwt>0</asrwt>
<pdfrwt beam="1">  1        2 0.81549592E-01 0.17111359E+04</pdfrwt>
<pdfrwt beam="2">  1       -2 0.21245185E+00 0.17111359E+04</pdfrwt>
<totfact> 0.60324468E+00</totfact>
</mgrwt>
</event>
<event>
12    2  0.3555611E-008  0.1341826E+04  0.7818608E-02  0.8997039E-01
         -1   -1    0    0    0  501 -0.00000000000E+00  0.00000000000E+00  0.19405972483E+03  0.19405972483E+03  0.00000000000E+00 0.  1.
          1   -1    0    0  501    0  0.00000000000E+00 -0.00000000000E+00 -0.23195145649E+04  0.23195145649E+04  0.00000000000E+00 0. -1.
         23    2    1    2    0    0 -0.10431555593E+03  0.84889111361E+02  0.39187337392E+02  0.16670420583E+03  0.90370063594E+02 0.  0.
        254    2    1    2    0    0  0.10431555593E+03 -0.84889111361E+02 -0.21646421775E+04  0.23468700839E+04  0.89668028741E+03 0.  0.
         23    2    4    4    0    0  0.61624675879E+02 -0.17472592059E+03 -0.21980779016E+04  0.22077658075E+04  0.91414720691E+02 0.  0.
         23    2    4    4    0    0  0.42690880046E+02  0.89836809227E+02  0.33435724149E+02  0.13910427641E+03  0.91317514943E+02 0.  0.
          1    1    3    3  502    0  0.10960128547E+01  0.26929494589E+02 -0.19098306574E+02  0.33032472462E+02  0.00000000000E+00 0. -1.
         -1    1    3    3    0  502 -0.10541156878E+03  0.57959616772E+02  0.58285643966E+02  0.13367173337E+03  0.00000000000E+00 0.  1.
         11    1    5    5    0    0  0.63429626085E+02 -0.50714448477E+02 -0.99666598681E+03  0.99996918053E+03  0.00000000000E+00 0.  1.
        -11    1    5    5    0    0 -0.18049502058E+01 -0.12401147211E+03 -0.12014119148E+04  0.12077966270E+04  0.00000000000E+00 0. -1.
          2    1    6    6  503    0 -0.14034443912E+02 -0.49843315308E+01 -0.12498946678E+02  0.19443066753E+02  0.00000000000E+00 0.  1.
         -2    1    6    6    0  503  0.56725323958E+02  0.94821140758E+02  0.45934670827E+02  0.11966120966E+03  0.00000000000E+00 0. -1.
<mgrwt>
<rscale>  0 0.13418262E+04</rscale>
<asrwt>0</asrwt>
<pdfrwt beam="1">  1        1 0.35684839E+00 0.13418262E+04</pdfrwt>
<pdfrwt beam="2">  1       -1 0.29855343E-01 0.13418262E+04</pdfrwt>
<totfact> 0.18241533E+01</totfact>
</mgrwt>
</event>
<event>
12    2  0.3555611E-008  0.2181225E+04  0.7818608E-02  0.8526283E-01
          1   -1    0    0  501    0  0.00000000000E+00  0.00000000000E+00  0.11372045925E+04  0.11372045925E+04  0.00000000000E+00 0. -1.
         -1   -1    0    0    0  501 -0.00000000000E+00 -0.00000000000E+00 -0.10459295388E+04  0.10459295388E+04  0.00000000000E+00 0.  1.
         23    2    1    2    0    0 -0.28489538387E+03  0.67152934170E+03 -0.44478374722E+03  0.85916772886E+03  0.90661833300E+02 0.  0.
        254    2    1    2    0    0  0.28489538387E+03 -0.67152934170E+03  0.53605880098E+03  0.13239664024E+04  0.96613195789E+03 0.  0.
         23    2    4    4    0    0  0.11524750110E+03 -0.88195122972E+03  0.27079845503E+03  0.93406862063E+03  0.89623806418E+02 0.  0.
         23    2    4    4    0    0  0.16964788277E+03  0.21042188802E+03  0.26526034595E+03  0.38989778177E+03  0.92733241132E+02 0.  0.
          3    1    3    3  502    0 -0.97426933454E+02  0.24610441430E+03 -0.21269473818E+03  0.33955624240E+03  0.00000000000E+00 0. -1.
         -3    1    3    3    0  502 -0.18746845042E+03  0.42542492739E+03 -0.23208900904E+03  0.51961148647E+03  0.00000000000E+00 0.  1.
         11    1    5    5    0    0 -0.10149687219E+02 -0.21735308205E+03  0.69644983080E+02  0.22846400613E+03  0.00000000000E+00 0.  1.
        -11    1    5    5    0    0  0.12539718832E+03 -0.66459814767E+03  0.20115347195E+03  0.70560461450E+03  0.00000000000E+00 0. -1.
          3    1    6    6  503    0  0.12840158609E+03  0.20254561719E+03  0.24648774810E+03  0.34390100948E+03  0.00000000000E+00 0. -1.
         -3    1    6    6    0  503  0.41246296677E+02  0.78762708314E+01  0.18772597849E+02  0.45996772297E+02  0.00000000000E+00 0.  1.
<mgrwt>
<rscale>  0 0.21812252E+04</rscale>
<asrwt>0</asrwt>
<pdfrwt beam="1">  1        1 0.17495455E+00 0.21812252E+04</pdfrwt>
<pdfrwt beam="2">  1       -1 0.16091224E+00 0.21812252E+04</pdfrwt>
<totfact> 0.31233463E+00</totfact>
</mgrwt>
</event>
<event>
12    2  0.3555611E-008  0.1764627E+04  0.7818608E-02  0.8725340E-01
         -1   -1    0    0    0  501 -0.00000000000E+00  0.00000000000E+00  0.40849881752E+03  0.40849881752E+03  0.00000000000E+00 0.  1.
          1   -1    0    0  501    0  0.00000000000E+00 -0.00000000000E+00 -0.19057024412E+04  0.19057024412E+04  0.00000000000E+00 0. -1.
         23    2    1    2    0    0 -0.24648780455E+03 -0.25569696346E+03  0.15365109217E+03  0.39729209213E+03  0.89973181733E+02 0.  0.
        254    2    1    2    0    0  0.24648780455E+03  0.25569696346E+03 -0.16508547158E+04  0.19169091666E+04  0.90723882479E+03 0.  0.
         23    2    4    4    0    0 -0.48785595314E+02 -0.13174833241E+03 -0.12973588856E+04  0.13081160797E+04  0.91049121028E+02 0.  0.
         23    2    4    4    0    0  0.29527339987E+03  0.38744529586E+03 -0.35349583020E+03  0.60879308687E+03  0.91484876898E+02 0.  0.
          2    1    3    3  502    0 -0.16604602291E+02 -0.44224797088E+02 -0.39947842465E+01  0.47407845299E+02  0.00000000000E+00 0. -1.
         -2    1    3    3    0  502 -0.22988320226E+03 -0.21147216637E+03  0.15764587641E+03  0.34988424683E+03  0.00000000000E+00 0.  1.
         11    1    5    5    0    0 -0.70298276252E+00 -0.11684477516E+03 -0.93735206975E+03  0.94460684855E+03  0.00000000000E+00 0.  1.
        -11    1    5    5    0    0 -0.48082612551E+02 -0.14903557245E+02 -0.36000681589E+03  0.36350923115E+03  0.00000000000E+00 0. -1.
          3    1    6    6  503    0  0.51201419278E+02  0.44617583303E+02 -0.88193216023E+02  0.11131198241E+03  0.00000000000E+00 0. -1.
         -3    1    6    6    0  503  0.24407198059E+03  0.34282771256E+03 -0.26530261417E+03  0.49748110446E+03  0.00000000000E+00 0.  1.
<mgrwt>
<rscale>  0 0.17646271E+04</rscale>
<asrwt>0</asrwt>
<pdfrwt beam="1">  1        1 0.29318499E+00 0.17646271E+04</pdfrwt>
<pdfrwt beam="2">  1       -1 0.62845972E-01 0.17646271E+04</pdfrwt>
<totfact> 0.83935303E+00</totfact>
</mgrwt>
</event>
<event>
12    2  0.3555611E-008  0.1883937E+04  0.7818608E-02  0.8662894E-01
          2   -1    0    0  501    0  0.00000000000E+00  0.00000000000E+00  0.17229993852E+04  0.17229993852E+04  0.00000000000E+00 0. -1.
         -2   -1    0    0    0  501 -0.00000000000E+00 -0.00000000000E+00 -0.51497655744E+03  0.51497655744E+03  0.00000000000E+00 0.  1.
         23    2    1    2    0    0 -0.30565490342E+03 -0.55209646417E+03  0.87045077460E+03  0.10795510695E+04  0.97521971628E+02 0.  0.
        254    2    1    2    0    0  0.30565490342E+03  0.55209646417E+03  0.33757205315E+03  0.11584248731E+04  0.91091046206E+03 0.  0.
         23    2    4    4    0    0 -0.34954918894E+02 -0.11915525013E+03 -0.18249617185E+03  0.23892182555E+03  0.91427381006E+02 0.  0.
         23    2    4    4    0    0  0.34060982231E+03  0.67125171430E+03  0.52006822500E+03  0.91950304758E+03  0.91765902403E+02 0.  0.
          1    1    3    3  502    0 -0.27211626631E+03 -0.42630459885E+03  0.72961484488E+03  0.88776162074E+03  0.00000000000E+00 0. -1.
         -1    1    3    3    0  502 -0.33538637103E+02 -0.12579186532E+03  0.14083592972E+03  0.19178944877E+03  0.00000000000E+00 0.  1.
         11    1    5    5    0    0  0.18546311618E+02 -0.80066493829E+02 -0.68154380994E+02  0.10676904400E+03  0.00000000000E+00 0.  1.
        -11    1    5    5    0    0 -0.53501230513E+02 -0.39088756303E+02 -0.11434179085E+03  0.13215278155E+03  0.00000000000E+00 0. -1.
          2    1    6    6  503    0  0.30643578014E+03  0.56500748915E+03  0.40784451592E+03  0.76123156747E+03  0.00000000000E+00 0. -1.
         -2    1    6    6    0  503  0.34174042171E+02  0.10624422515E+03  0.11222370908E+03  0.15827148011E+03  0.00000000000E+00 0.  1.
<mgrwt>
<rscale>  0 0.18839366E+04</rscale>
<asrwt>0</asrwt>
<pdfrwt beam="1">  1        2 0.26507683E+00 0.18839366E+04</pdfrwt>
<pdfrwt beam="2">  1       -2 0.79227164E-01 0.18839366E+04</pdfrwt>
<totfact> 0.12614737E+01</totfact>
</mgrwt>
</event>
<event>
12    2  0.3555611E-008  0.2629118E+04  0.7818608E-02  0.8358377E-01
          1   -1    0    0  501    0  0.00000000000E+00  0.00000000000E+00  0.26973635059E+04  0.26973635059E+04  0.00000000000E+00 0. -1.
         -1   -1    0    0    0  501 -0.00000000000E+00 -0.00000000000E+00 -0.64064981749E+03  0.64064981749E+03  0.00000000000E+00 0.  1.
         23    2    1    2    0    0 -0.43762851441E+03  0.65834395077E+03 -0.16901798836E+03  0.81265790056E+03  0.83128267255E+02 0.  0.
        254    2    1    2    0    0  0.43762851441E+03 -0.65834395077E+03  0.22257316768E+04  0.25253554228E+04  0.89364592572E+03 0.  0.
         23    2    4    4    0    0  0.26620111021E+03 -0.22237426851E+03  0.13594044708E+03  0.38175978550E+03  0.83350958560E+02 0.  0.
         23    2    4    4    0    0  0.17142740419E+03 -0.43596968226E+03  0.20897912297E+04  0.21435956373E+04  0.91202817938E+02 0.  0.
          3    1    3    3  502    0 -0.36113817635E+02  0.88849339010E+02 -0.11430959112E+01  0.95915168430E+02  0.00000000000E+00 0. -1.
         -3    1    3    3    0  502 -0.40151469677E+03  0.56949461176E+03 -0.16787489245E+03  0.71674273213E+03  0.00000000000E+00 0.  1.
         11    1    5    5    0    0  0.24207141673E+03 -0.21543930946E+03  0.10237412554E+03  0.33984279960E+03  0.00000000000E+00 0.  1.
        -11    1    5    5    0    0  0.24129693487E+02 -0.69349590483E+01  0.33566321543E+02  0.41916985897E+02  0.00000000000E+00 0. -1.
          2    1    6    6  503    0 -0.83409578065E+01 -0.42979497148E+02  0.24327490773E+03  0.24718310922E+03  0.00000000000E+00 0. -1.
         -2    1    6    6    0  503  0.17976836200E+03 -0.39299018511E+03  0.18465163220E+04  0.18964125281E+04  0.00000000000E+00 0.  1.
<mgrwt>
<rscale>  0 0.26291181E+04</rscale>
<asrwt>0</asrwt>
<pdfrwt beam="1">  1        1 0.41497899E+00 0.26291181E+04</pdfrwt>
<pdfrwt beam="2">  1       -1 0.98561512E-01 0.26291181E+04</pdfrwt>
<totfact> 0.85267814E-01</totfact>
</mgrwt>
</event>
<event>
12    2  0.3555611E-008  0.2232169E+04  0.7818608E-02  0.8505157E-01
         -1   -1    0    0    0  501 -0.00000000000E+00  0.00000000000E+00  0.98791403682E+03  0.98791403682E+03  0.00000000000E+00 0.  1.
          1   -1    0    0  501    0  0.00000000000E+00 -0.00000000000E+00 -0.12608835780E+04  0.12608835780E+04  0.00000000000E+00 0. -1.
         23    2    1    2    0    0 -0.58144708283E+03  0.18030419799E+02  0.61985369801E+03  0.85527896568E+03  0.94221526321E+02 0.  0.
        254    2    1    2    0    0  0.58144708283E+03 -0.18030419799E+02 -0.89282323924E+03  0.13935186492E+04  0.89797276293E+03 0.  0.
         23    2    4    4    0    0  0.30839243517E+03  0.29387135435E+03 -0.35068796877E+02  0.43655692931E+03  0.88802393234E+02 0.  0.
         23    2    4    4    0    0  0.27305464766E+03 -0.31190177415E+03 -0.85775444236E+03  0.95696171988E+03  0.90506864927E+02 0.  0.
          3    1    3    3  502    0 -0.43591479764E+02 -0.20608660488E+02  0.71212249369E+02  0.86000688691E+02  0.00000000000E+00 0. -1.
         -3    1    3    3    0  502 -0.53785560307E+03  0.38639080287E+02  0.54864144864E+03  0.76927827699E+03  0.00000000000E+00 0.  1.
         11    1    5    5    0    0  0.97433114381E+02  0.15122644790E+03 -0.25724435364E+02  0.18172615909E+03  0.00000000000E+00 0.  1.
        -11    1    5    5    0    0  0.21095932079E+03  0.14264490645E+03 -0.93443615126E+01  0.25483077023E+03  0.00000000000E+00 0. -1.
          3    1    6    6  503    0  0.23830430953E+02 -0.37165839668E+00 -0.32180602267E+02  0.40045208597E+02  0.00000000000E+00 0. -1.
         -3    1    6    6    0  503  0.24922421671E+03 -0.31153011575E+03 -0.82557384009E+03  0.91691651128E+03  0.00000000000E+00 0.  1.
<mgrwt>
<rscale>  0 0.22321690E+04</rscale>
<asrwt>0</asrwt>
<pdfrwt beam="1">  1        1 0.19398209E+00 0.22321690E+04</pdfrwt>
<pdfrwt beam="2">  1       -1 0.15198678E+00 0.22321690E+04</pdfrwt>
<totfact> 0.29543360E+00</totfact>
</mgrwt>
</event>
<event>
12    2  0.3555611E-008  0.1454301E+04  0.7818608E-02  0.8915424E-01
         -2   -1    0    0    0  501 -0.00000000000E+00  0.00000000000E+00  0.37343627700E+03  0.37343627700E+03  0.00000000000E+00 0.  1.
          2   -1    0    0  501    0  0.00000000000E+00 -0.00000000000E+00 -0.14158991313E+04  0.14158991313E+04  0.00000000000E+00 0. -1.
         23    2    1    2    0    0  0.32046709031E+03 -0.26003495241E+03 -0.45540368356E+03  0.62144759409E+03  0.92126352100E+02 0.  0.
        254    2    1    2    0    0 -0.32046709031E+03  0.26003495241E+03 -0.58705917074E+03  0.11678878142E+04  0.92141529408E+03 0.  0.
         23    2    4    4    0    0  0.10063692800E+03  0.49017173700E+03 -0.20549789219E+03  0.54800229776E+03  0.87641380812E+02 0.  0.
         23    2    4    4    0    0 -0.42110401831E+03 -0.23013678458E+03 -0.38156127855E+03  0.61988551644E+03  0.91528740516E+02 0.  0.
          3    1    3    3  502    0  0.32515728930E+03 -0.25382168713E+03 -0.43439207091E+03  0.59904021811E+03  0.00000000000E+00 0. -1.
         -3    1    3    3    0  502 -0.46901989939E+01 -0.62132652811E+01 -0.21011612649E+02  0.22407375977E+02  0.00000000000E+00 0.  1.
         11    1    5    5    0    0  0.36633684632E+02  0.27709018192E+03 -0.72334414759E+02  0.28870965229E+03  0.00000000000E+00 0.  1.
        -11    1    5    5    0    0  0.64003243371E+02  0.21308155508E+03 -0.13316347743E+03  0.25929264547E+03  0.00000000000E+00 0. -1.
          4    1    6    6  503    0 -0.56040816308E+02 -0.43034546110E+02 -0.99569188739E+02  0.12209245922E+03  0.00000000000E+00 0.  1.
         -4    1    6    6    0  503 -0.36506320201E+03 -0.18710223847E+03 -0.28199208981E+03  0.49779305722E+03  0.00000000000E+00 0. -1.
<mgrwt>
<rscale>  0 0.14543013E+04</rscale>
<asrwt>0</asrwt>
<pdfrwt beam="1">  1        2 0.21783064E+00 0.14543013E+04</pdfrwt>
<pdfrwt beam="2">  1       -2 0.57451735E-01 0.14543013E+04</pdfrwt>
<totfact> 0.38983724E+01</totfact>
</mgrwt>
</event>
<event>
12    2  0.3555611E-008  0.1172380E+04  0.7818608E-02  0.9137382E-01
          3   -1    0    0  501    0  0.00000000000E+00  0.00000000000E+00  0.35698731791E+03  0.35698731791E+03  0.00000000000E+00 0. -1.
         -3   -1    0    0    0  501 -0.00000000000E+00 -0.00000000000E+00 -0.96255155447E+03  0.96255155447E+03  0.00000000000E+00 0.  1.
         23    2    1    2    0    0 -0.46915916763E+02 -0.19182820883E+03  0.70535615750E+01  0.21775259493E+03  0.91472809713E+02 0.  0.
        254    2    1    2    0    0  0.46915916763E+02  0.19182820883E+03 -0.61261779813E+03  0.11017862775E+04  0.89422215901E+03 0.  0.
         23    2    4    4    0    0 -0.28505047493E+03 -0.14055409122E+03 -0.51833812511E+03  0.61409740024E+03  0.86208927751E+02 0.  0.
         23    2    4    4    0    0  0.33196639169E+03  0.33238230005E+03 -0.94279673022E+02  0.48768887722E+03  0.90951116641E+02 0.  0.
          2    1    3    3  502    0 -0.12721554081E+02 -0.14943048471E+03 -0.28571362355E+02  0.15266836754E+03  0.00000000000E+00 0.  1.
         -2    1    3    3    0  502 -0.34194362682E+02 -0.42397724117E+02  0.35624923930E+02  0.65084227387E+02  0.00000000000E+00 0. -1.
         11    1    5    5    0    0 -0.10540950186E+03 -0.43311341546E+02 -0.26640368841E+03  0.28975500097E+03  0.00000000000E+00 0. -1.
        -11    1    5    5    0    0 -0.17964097307E+03 -0.97242749670E+02 -0.25193443670E+03  0.32434239927E+03  0.00000000000E+00 0.  1.
          1    1    6    6  503    0  0.20062693538E+03  0.14037807630E+03 -0.32592855488E+02  0.24702118480E+03  0.00000000000E+00 0. -1.
         -1    1    6    6    0  503  0.13133945631E+03  0.19200422374E+03 -0.61686817534E+02  0.24066769242E+03  0.00000000000E+00 0.  1.
<mgrwt>
<rscale>  0 0.11723800E+04</rscale>
<asrwt>0</asrwt>
<pdfrwt beam="1">  1        3 0.54921127E-01 0.11723800E+04</pdfrwt>
<pdfrwt beam="2">  1       -3 0.14808485E+00 0.11723800E+04</pdfrwt>
<totfact> 0.28235741E+00</totfact>
</mgrwt>
</event>
<event>
12    2  0.3555611E-008  0.1917636E+04  0.7818608E-02  0.8646127E-01
         -1   -1    0    0    0  501 -0.00000000000E+00  0.00000000000E+00  0.73131699213E+03  0.73131699213E+03  0.00000000000E+00 0.  1.
          1   -1    0    0  501    0  0.00000000000E+00 -0.00000000000E+00 -0.12570906372E+04  0.12570906372E+04  0.00000000000E+00 0. -1.
         23    2    1    2    0    0  0.34359022161E+03  0.48390333304E+03 -0.66323921409E+03  0.89441557416E+03  0.88748453968E+02 0.  0.
        254    2    1    2    0    0 -0.34359022161E+03 -0.48390333304E+03  0.13746556906E+03  0.10939920551E+04  0.90868319996E+03 0.  0.
         23    2    4    4    0    0 -0.75031172512E+02  0.26105231499E+03  0.17192958216E+02  0.28652370935E+03  0.89567015119E+02 0.  0.
         23    2    4    4    0    0 -0.26855904910E+03 -0.74495564804E+03  0.12027261084E+03  0.80746834577E+03  0.10225824226E+03 0.  0.
          1    1    3    3  502    0  0.27834050739E+03  0.43791936408E+03 -0.55317865615E+03  0.75845463484E+03  0.00000000000E+00 0. -1.
         -1    1    3    3    0  502  0.65249714222E+02  0.45983968963E+02 -0.11006055794E+03  0.13596093932E+03  0.00000000000E+00 0.  1.
         11    1    5    5    0    0  0.13899860088E+02  0.28907079820E+02 -0.15785926006E+02  0.35749417255E+02  0.00000000000E+00 0.  1.
        -11    1    5    5    0    0 -0.88931032600E+02  0.23214523517E+03  0.32978884222E+02  0.25077429210E+03  0.00000000000E+00 0. -1.
          2    1    6    6  503    0 -0.13278938788E+03 -0.40114190827E+03  0.11444024741E+03  0.43777211233E+03  0.00000000000E+00 0. -1.
         -2    1    6    6    0  503 -0.13576966122E+03 -0.34381373977E+03  0.58323634309E+01  0.36969623345E+03  0.00000000000E+00 0.  1.
<mgrwt>
<rscale>  0 0.19176358E+04</rscale>
<asrwt>0</asrwt>
<pdfrwt beam="1">  1        1 0.19339856E+00 0.19176358E+04</pdfrwt>
<pdfrwt beam="2">  1       -1 0.11251031E+00 0.19176358E+04</pdfrwt>
<totfact> 0.65630106E+00</totfact>
</mgrwt>
</event>
<event>
12    2  0.3555611E-008  0.1977451E+04  0.7818608E-02  0.8617236E-01
         -1   -1    0    0    0  501 -0.00000000000E+00  0.00000000000E+00  0.54456453131E+03  0.54456453131E+03  0.00000000000E+00 0.  1.
          1   -1    0    0  501    0  0.00000000000E+00 -0.00000000000E+00 -0.17951550365E+04  0.17951550365E+04  0.00000000000E+00 0. -1.
         23    2    1    2    0    0 -0.12378485204E+02 -0.71429195040E+03 -0.52806908943E+03  0.89303038008E+03  0.90994940753E+02 0.  0.
        254    2    1    2    0    0  0.12378485204E+02  0.71429195040E+03 -0.72252141578E+03  0.14466891878E+04  0.10298088135E+04 0.  0.
         23    2    4    4    0    0  0.35614866196E+03  0.60027690309E+03 -0.80016685031E+03  0.10655561745E+04  0.89267815519E+02 0.  0.
         23    2    4    4    0    0 -0.34377017676E+03  0.11401504731E+03  0.77645434532E+02  0.38113301324E+03  0.89756308081E+02 0.  0.
          4    1    3    3  502    0 -0.40470567486E+02 -0.18300788433E+03 -0.15529379992E+03  0.24340484147E+03  0.00000000000E+00 0. -1.
         -4    1    3    3    0  502  0.28092082282E+02 -0.53128406607E+03 -0.37277528951E+03  0.64962553861E+03  0.00000000000E+00 0.  1.
         11    1    5    5    0    0  0.17168521020E+03  0.28389534264E+03 -0.31327404282E+03  0.45630363014E+03  0.00000000000E+00 0.  1.
        -11    1    5    5    0    0  0.18446345176E+03  0.31638156046E+03 -0.48689280750E+03  0.60925254437E+03  0.00000000000E+00 0. -1.
          4    1    6    6  503    0 -0.31575249518E+03  0.12362048843E+03  0.87000022258E+02  0.35007237430E+03  0.00000000000E+00 0. -1.
         -4    1    6    6    0  503 -0.28017681576E+02 -0.96054411277E+01 -0.93545877265E+01  0.31060638946E+02  0.00000000000E+00 0.  1.
<mgrwt>
<rscale>  0 0.19774506E+04</rscale>
<asrwt>0</asrwt>
<pdfrwt beam="1">  1        1 0.27617770E+00 0.19774506E+04</pdfrwt>
<pdfrwt beam="2">  1       -1 0.83779158E-01 0.19774506E+04</pdfrwt>
<totfact> 0.53894600E+00</totfact>
</mgrwt>
</event>
<event>
12    2  0.3555611E-008  0.2923021E+04  0.7818608E-02  0.8266061E-01
         -1   -1    0    0    0  501 -0.00000000000E+00  0.00000000000E+00  0.60371850161E+03  0.60371850161E+03  0.00000000000E+00 0.  1.
          1   -1    0    0  501    0  0.00000000000E+00 -0.00000000000E+00 -0.35380930940E+04  0.35380930940E+04  0.00000000000E+00 0. -1.
         23    2    1    2    0    0  0.29841188582E+03  0.57518692147E+03  0.30018773261E+03  0.71991464137E+03  0.90965750797E+02 0.  0.
        254    2    1    2    0    0 -0.29841188582E+03 -0.57518692147E+03 -0.32345623250E+04  0.34218969543E+04  0.90944801003E+03 0.  0.
         23    2    4    4    0    0 -0.42529867283E+03 -0.55940214166E+03 -0.12901658570E+04  0.14712979526E+04  0.79874962461E+02 0.  0.
         23    2    4    4    0    0  0.12688678701E+03 -0.15784779802E+02 -0.19443964681E+04  0.19505990017E+04  0.88370947319E+02 0.  0.
          2    1    3    3  502    0  0.27462970822E+03  0.45262402571E+03  0.23875960301E+03  0.58077201492E+03  0.00000000000E+00 0. -1.
         -2    1    3    3    0  502  0.23782177601E+02  0.12256289576E+03  0.61428129597E+02  0.13914262644E+03  0.00000000000E+00 0.  1.
         11    1    5    5    0    0 -0.31090056373E+03 -0.39289749656E+03 -0.84366719695E+03  0.98122471561E+03  0.00000000000E+00 0. -1.
        -11    1    5    5    0    0 -0.11439810910E+03 -0.16650464511E+03 -0.44649866003E+03  0.49007323700E+03  0.00000000000E+00 0.  1.
          3    1    6    6  503    0  0.13602222220E+03 -0.12535266823E+02 -0.15290667026E+04  0.15351560699E+04  0.00000000000E+00 0. -1.
         -3    1    6    6    0  503 -0.91354351912E+01 -0.32495129783E+01 -0.41532976545E+03  0.41544293179E+03  0.00000000000E+00 0.  1.
<mgrwt>
<rscale>  0 0.29230205E+04</rscale>
<asrwt>0</asrwt>
<pdfrwt beam="1">  1        1 0.54432200E+00 0.29230205E+04</pdfrwt>
<pdfrwt beam="2">  1       -1 0.92879772E-01 0.29230205E+04</pdfrwt>
<totfact> 0.22479304E-01</totfact>
</mgrwt>
</event>
<event>
12    2  0.3555611E-008  0.2503342E+04  0.7818608E-02  0.8401796E-01
         -2   -1    0    0    0  501 -0.00000000000E+00  0.00000000000E+00  0.13401745822E+04  0.13401745822E+04  0.00000000000E+00 0.  1.
          2   -1    0    0  501    0  0.00000000000E+00 -0.00000000000E+00 -0.11690119348E+04  0.11690119348E+04  0.00000000000E+00 0. -1.
         23    2    1    2    0    0 -0.58683383902E+02 -0.18846282846E+03 -0.98419314072E+03  0.10079375714E+04  0.91323777948E+02 0.  0.
        254    2    1    2    0    0  0.58683383902E+02  0.18846282846E+03  0.11553557881E+04  0.15012489455E+04  0.93805086323E+03 0.  0.
         23    2    4    4    0    0  0.24898822343E+03  0.32540676845E+03  0.11760460056E+04  0.12486879533E+04  0.90844355943E+02 0.  0.
         23    2    4    4    0    0 -0.19030483953E+03 -0.13694393999E+03 -0.20690217490E+02  0.25256099223E+03  0.91593640866E+02 0.  0.
          2    1    3    3  502    0 -0.20555055718E+02 -0.17612331838E+03 -0.81411362383E+03  0.83320041172E+03  0.00000000000E+00 0. -1.
         -2    1    3    3    0  502 -0.38128328185E+02 -0.12339510081E+02 -0.17007951689E+03  0.17473715972E+03  0.00000000000E+00 0.  1.
         11    1    5    5    0    0  0.79462129502E+02  0.12014722854E+03  0.54657075805E+03  0.56523373936E+03  0.00000000000E+00 0. -1.
        -11    1    5    5    0    0  0.16952609393E+03  0.20525953991E+03  0.62947524758E+03  0.68345421395E+03  0.00000000000E+00 0.  1.
          1    1    6    6  503    0 -0.42998358495E+02 -0.21137462377E+02  0.32361561006E+02  0.57818005671E+02  0.00000000000E+00 0. -1.
         -1    1    6    6    0  503 -0.14730648103E+03 -0.11580647761E+03 -0.53051778496E+02  0.19474298655E+03  0.00000000000E+00 0.  1.
<mgrwt>
<rscale>  0 0.25033418E+04</rscale>
<asrwt>0</asrwt>
<pdfrwt beam="1">  1        2 0.17984799E+00 0.25033418E+04</pdfrwt>
<pdfrwt beam="2">  1       -2 0.20618071E+00 0.25033418E+04</pdfrwt>
<totfact> 0.21364940E+00</totfact>
</mgrwt>
</event>
<event>
12    2  0.3555611E-008  0.1412046E+04  0.7818608E-02  0.8945145E-01
         -2   -1    0    0    0  501 -0.00000000000E+00  0.00000000000E+00  0.37569638182E+03  0.37569638182E+03  0.00000000000E+00 0. -1.
          2   -1    0    0  501    0  0.00000000000E+00 -0.00000000000E+00 -0.13267847862E+04  0.13267847862E+04  0.00000000000E+00 0.  1.
         23    2    1    2    0    0 -0.58151916584E+02  0.19277002130E+03 -0.74737315131E+03  0.77923440502E+03  0.89987244366E+02 0.  0.
        254    2    1    2    0    0  0.58151916584E+02 -0.19277002130E+03 -0.20371525307E+03  0.92324676301E+03  0.87769171955E+03 0.  0.
         23    2    4    4    0    0 -0.26055223769E+03 -0.34808942837E+03 -0.31034901095E+03  0.54225232839E+03  0.93098659155E+02 0.  0.
         23    2    4    4    0    0  0.31870415428E+03  0.15531940707E+03  0.10663375788E+03  0.38099443462E+03  0.89941896399E+02 0.  0.
          3    1    3    3  502    0 -0.51879021666E+01  0.37926021760E+02 -0.50302197550E+02  0.63210826081E+02  0.00000000000E+00 0. -1.
         -3    1    3    3    0  502 -0.52964014418E+02  0.15484399954E+03 -0.69707095376E+03  0.71602357894E+03  0.00000000000E+00 0.  1.
         11    1    5    5    0    0 -0.27925992116E+02 -0.33716636080E+01 -0.27308508854E+02  0.39204385047E+02  0.00000000000E+00 0.  1.
        -11    1    5    5    0    0 -0.23262624558E+03 -0.34471776476E+03 -0.28304050209E+03  0.50304794334E+03  0.00000000000E+00 0. -1.
          3    1    6    6  503    0  0.16349997737E+03  0.95620532108E+02  0.10089637944E+03  0.21460570390E+03  0.00000000000E+00 0. -1.
         -3    1    6    6    0  503  0.15520417691E+03  0.59698874957E+02  0.57373784377E+01  0.16638873072E+03  0.00000000000E+00 0.  1.
<mgrwt>
<rscale>  0 0.14120457E+04</rscale>
<asrwt>0</asrwt>
<pdfrwt beam="1">  1        2 0.20412074E+00 0.14120457E+04</pdfrwt>
<pdfrwt beam="2">  1       -2 0.57799443E-01 0.14120457E+04</pdfrwt>
<totfact> 0.43456769E+01</totfact>
</mgrwt>
</event>
<event>
12    2  0.3555611E-008  0.1539400E+04  0.7818608E-02  0.8858667E-01
          2   -1    0    0  501    0  0.00000000000E+00  0.00000000000E+00  0.72150663996E+03  0.72150663996E+03  0.00000000000E+00 0. -1.
         -2   -1    0    0    0  501 -0.00000000000E+00 -0.00000000000E+00 -0.82111215062E+03  0.82111215062E+03  0.00000000000E+00 0.  1.
         23    2    1    2    0    0  0.20044956305E+03  0.24947903383E+03  0.35403519076E+03  0.48155919343E+03  0.64331367431E+02 0.  0.
        254    2    1    2    0    0 -0.20044956305E+03 -0.24947903383E+03 -0.45364070142E+03  0.10610595972E+04  0.90423324816E+03 0.  0.
         23    2    4    4    0    0 -0.38546136087E+03  0.17636924957E+03 -0.39102711039E+03  0.58380247072E+03  0.90755445249E+02 0.  0.
         23    2    4    4    0    0  0.18501179782E+03 -0.42584828340E+03 -0.62613591026E+02  0.47725712643E+03  0.90982290285E+02 0.  0.
          3    1    3    3  502    0  0.57244323492E+02  0.10895899158E+03  0.16543500813E+03  0.20619824522E+03  0.00000000000E+00 0. -1.
         -3    1    3    3    0  502  0.14320523956E+03  0.14052004225E+03  0.18860018263E+03  0.27536094821E+03  0.00000000000E+00 0.  1.
         11    1    5    5    0    0 -0.11510280739E+02 -0.99975941259E+01 -0.18992484035E+02  0.24354730564E+02  0.00000000000E+00 0.  1.
        -11    1    5    5    0    0 -0.37395108013E+03  0.18636684370E+03 -0.37203462636E+03  0.55944774016E+03  0.00000000000E+00 0. -1.
          3    1    6    6  503    0  0.17250920839E+03 -0.41646538991E+03 -0.43958461085E+02  0.45291852940E+03  0.00000000000E+00 0. -1.
         -3    1    6    6    0  503  0.12502589423E+02 -0.93828934923E+01 -0.18655129941E+02  0.24338597036E+02  0.00000000000E+00 0.  1.
<mgrwt>
<rscale>  0 0.15393997E+04</rscale>
<asrwt>0</asrwt>
<pdfrwt beam="1">  1        2 0.11100102E+00 0.15393997E+04</pdfrwt>
<pdfrwt beam="2">  1       -2 0.12632495E+00 0.15393997E+04</pdfrwt>
<totfact> 0.17728969E+01</totfact>
</mgrwt>
</event>
<event>
12    2  0.3555611E-008  0.1348978E+04  0.7818608E-02  0.8991602E-01
          1   -1    0    0  501    0  0.00000000000E+00  0.00000000000E+00  0.70184319085E+03  0.70184319085E+03  0.00000000000E+00 0. -1.
         -1   -1    0    0    0  501 -0.00000000000E+00 -0.00000000000E+00 -0.64820066061E+03  0.64820066061E+03  0.00000000000E+00 0.  1.
         23    2    1    2    0    0  0.21973224015E+03 -0.15887092420E+03 -0.21731401483E+03  0.35897200264E+03  0.90073801525E+02 0.  0.
        254    2    1    2    0    0 -0.21973224015E+03  0.15887092420E+03  0.27095654507E+03  0.99107184882E+03  0.91393858234E+03 0.  0.
         23    2    4    4    0    0  0.30438375128E+03  0.62387325680E+01  0.29921294319E+03  0.43644552382E+03  0.90928103776E+02 0.  0.
         23    2    4    4    0    0 -0.52411599143E+03  0.15263219163E+03 -0.28256398121E+02  0.55462632500E+03  0.93903024229E+02 0.  0.
          1    1    3    3  502    0  0.14715718633E+03 -0.15007670312E+03 -0.13986188382E+03  0.25246702924E+03  0.00000000000E+00 0. -1.
         -1    1    3    3    0  502  0.72575053814E+02 -0.87942210811E+01 -0.77452131008E+02  0.10650497340E+03  0.00000000000E+00 0.  1.
         11    1    5    5    0    0  0.22842103478E+03 -0.28823798423E+02  0.24779306571E+03  0.33824308404E+03  0.00000000000E+00 0.  1.
        -11    1    5    5    0    0  0.75962716498E+02  0.35062530991E+02  0.51419877477E+02  0.98202439771E+02  0.00000000000E+00 0. -1.
          3    1    6    6  503    0 -0.91342357338E+02 -0.56667555507E+01 -0.20295416926E+02  0.93741358592E+02  0.00000000000E+00 0. -1.
         -3    1    6    6    0  503 -0.43277363409E+03  0.15829894718E+03 -0.79609811950E+01  0.46088496641E+03  0.00000000000E+00 0.  1.
<mgrwt>
<rscale>  0 0.13489777E+04</rscale>
<asrwt>0</asrwt>
<pdfrwt beam="1">  1        1 0.10797588E+00 0.13489777E+04</pdfrwt>
<pdfrwt beam="2">  1       -1 0.99723179E-01 0.13489777E+04</pdfrwt>
<totfact> 0.25490799E+01</totfact>
</mgrwt>
</event>
<event>
12    2  0.3555611E-008  0.1667936E+04  0.7818608E-02  0.8779866E-01
         -2   -1    0    0    0  501 -0.00000000000E+00  0.00000000000E+00  0.38317116276E+03  0.38317116276E+03  0.00000000000E+00 0.  1.
          2   -1    0    0  501    0  0.00000000000E+00 -0.00000000000E+00 -0.18151223433E+04  0.18151223433E+04  0.00000000000E+00 0. -1.
         23    2    1    2    0    0 -0.20576763301E+03 -0.82685023149E+02 -0.11597785750E+04  0.11843173351E+04  0.91345911431E+02 0.  0.
        254    2    1    2    0    0  0.20576763301E+03  0.82685023149E+02 -0.27217260558E+03  0.10139761709E+04  0.95125843814E+03 0.  0.
         23    2    4    4    0    0 -0.36870617256E+02  0.57620410857E+02 -0.59248182397E+03  0.60314149148E+03  0.89807532251E+02 0.  0.
         23    2    4    4    0    0  0.24263825027E+03  0.25064612292E+02  0.32030921839E+03  0.41083467944E+03  0.81765415437E+02 0.  0.
          1    1    3    3  502    0 -0.18834585805E+03 -0.85359007113E+02 -0.11362818286E+04  0.11549444647E+04  0.00000000000E+00 0. -1.
         -1    1    3    3    0  502 -0.17421774961E+02  0.26739839644E+01 -0.23496746318E+02  0.29372870486E+02  0.00000000000E+00 0.  1.
         11    1    5    5    0    0  0.90380682500E+01  0.14116543653E+02 -0.40367598076E+03  0.40402383707E+03  0.00000000000E+00 0. -1.
        -11    1    5    5    0    0 -0.45908685506E+02  0.43503867204E+02 -0.18880584321E+03  0.19911765441E+03  0.00000000000E+00 0.  1.
          3    1    6    6  503    0  0.18758291227E+03  0.28941643401E+01  0.18688493478E+03  0.26480503019E+03  0.00000000000E+00 0. -1.
         -3    1    6    6    0  503  0.55055337995E+02  0.22170447952E+02  0.13342428361E+03  0.14602964925E+03  0.00000000000E+00 0.  1.
<mgrwt>
<rscale>  0 0.16679359E+04</rscale>
<asrwt>0</asrwt>
<pdfrwt beam="1">  1        2 0.27924958E+00 0.16679359E+04</pdfrwt>
<pdfrwt beam="2">  1       -2 0.58949411E-01 0.16679359E+04</pdfrwt>
<totfact> 0.21704236E+01</totfact>
</mgrwt>
</event>
<event>
12    2  0.3555611E-008  0.1547308E+04  0.7818608E-02  0.8853589E-01
          2   -1    0    0  501    0  0.00000000000E+00  0.00000000000E+00  0.39959877566E+04  0.39959877566E+04  0.00000000000E+00 0. -1.
         -2   -1    0    0    0  501 -0.00000000000E+00 -0.00000000000E+00 -0.14978546604E+03  0.14978546604E+03  0.00000000000E+00 0.  1.
         23    2    1    2    0    0  0.21457140656E+03 -0.36989156722E+03  0.54681086639E+03  0.70002991575E+03  0.90438373044E+02 0.  0.
        254    2    1    2    0    0 -0.21457140656E+03  0.36989156722E+03  0.32993914241E+04  0.34457433069E+04  0.89682914041E+03 0.  0.
         23    2    4    4    0    0 -0.48567519619E+02  0.50071525754E+03  0.30981768512E+04  0.31401109390E+04  0.92316491518E+02 0.  0.
         23    2    4    4    0    0 -0.16600388694E+03 -0.13082369032E+03  0.20121457294E+03  0.30563236790E+03  0.90838931717E+02 0.  0.
          2    1    3    3  502    0  0.97341604113E+02 -0.10604092114E+03  0.23058069951E+03  0.27182259625E+03  0.00000000000E+00 0. -1.
         -2    1    3    3    0  502  0.11722980245E+03 -0.26385064608E+03  0.31623016688E+03  0.42820731949E+03  0.00000000000E+00 0.  1.
         11    1    5    5    0    0  0.23276192121E+02  0.13542771318E+03  0.72436386244E+03  0.73728247764E+03  0.00000000000E+00 0. -1.
        -11    1    5    5    0    0 -0.71843711741E+02  0.36528754436E+03  0.23738129888E+04  0.24028284613E+04  0.00000000000E+00 0.  1.
          2    1    6    6  503    0 -0.16393713273E+03 -0.87423379936E+02  0.17271179010E+03  0.25366827410E+03  0.00000000000E+00 0. -1.
         -2    1    6    6    0  503 -0.20667542118E+01 -0.43400310384E+02  0.28502782840E+02  0.51964093796E+02  0.00000000000E+00 0.  1.
<mgrwt>
<rscale>  0 0.15473085E+04</rscale>
<asrwt>0</asrwt>
<pdfrwt beam="1">  1        2 0.61476727E+00 0.15473085E+04</pdfrwt>
<pdfrwt beam="2">  1       -2 0.23043921E-01 0.15473085E+04</pdfrwt>
<totfact> 0.56371634E+00</totfact>
</mgrwt>
</event>
<event>
12    2  0.3555611E-008  0.2387995E+04  0.7818608E-02  0.8444012E-01
          1   -1    0    0  501    0  0.00000000000E+00  0.00000000000E+00  0.11472762016E+04  0.11472762016E+04  0.00000000000E+00 0. -1.
         -1   -1    0    0    0  501 -0.00000000000E+00 -0.00000000000E+00 -0.12426216681E+04  0.12426216681E+04  0.00000000000E+00 0.  1.
         23    2    1    2    0    0  0.76074812527E+03 -0.45042209117E+03  0.47367453270E+03  0.10067774583E+04  0.87266931091E+02 0.  0.
        254    2    1    2    0    0 -0.76074812527E+03  0.45042209117E+03 -0.56901999917E+03  0.13831204114E+04  0.89867710701E+03 0.  0.
         23    2    4    4    0    0 -0.30048418051E+03  0.65720250022E+02  0.21879289558E+03  0.38877484539E+03  0.93089501301E+02 0.  0.
         23    2    4    4    0    0 -0.46026394475E+03  0.38470184115E+03 -0.78781289475E+03  0.99434556601E+03  0.90749887585E+02 0.  0.
          3    1    3    3  502    0  0.33417628082E+03 -0.24305287808E+03  0.19840551276E+03  0.45838110312E+03  0.00000000000E+00 0. -1.
         -3    1    3    3    0  502  0.42657184445E+03 -0.20736921309E+03  0.27526901994E+03  0.54839635516E+03  0.00000000000E+00 0.  1.
         11    1    5    5    0    0 -0.30506073904E+03  0.64238848755E+02  0.22224012495E+03  0.38285683660E+03  0.00000000000E+00 0.  1.
        -11    1    5    5    0    0  0.45765585303E+01  0.14814012664E+01 -0.34472293720E+01  0.59180087899E+01  0.00000000000E+00 0. -1.
          3    1    6    6  503    0 -0.15829484719E+02  0.10800204236E+02 -0.61231887326E+02  0.64160431915E+02  0.00000000000E+00 0. -1.
         -3    1    6    6    0  503 -0.44443446003E+03  0.37390163691E+03 -0.72658100742E+03  0.93018513410E+03  0.00000000000E+00 0.  1.
<mgrwt>
<rscale>  0 0.23879952E+04</rscale>
<asrwt>0</asrwt>
<pdfrwt beam="1">  1        1 0.17650403E+00 0.23879952E+04</pdfrwt>
<pdfrwt beam="2">  1       -1 0.19117256E+00 0.23879952E+04</pdfrwt>
<totfact> 0.18177057E+00</totfact>
</mgrwt>
</event>
<event>
12    2  0.3555611E-008  0.2024016E+04  0.7818608E-02  0.8595474E-01
          2   -1    0    0  501    0  0.00000000000E+00  0.00000000000E+00  0.14845285295E+04  0.14845285295E+04  0.00000000000E+00 0.  1.
         -2   -1    0    0    0  501 -0.00000000000E+00 -0.00000000000E+00 -0.68988891547E+03  0.68988891547E+03  0.00000000000E+00 0. -1.
         23    2    1    2    0    0  0.18040855940E+03  0.17013340999E+03 -0.50788653637E+03  0.57241613572E+03  0.90658000780E+02 0.  0.
        254    2    1    2    0    0 -0.18040855940E+03 -0.17013340999E+03  0.13025261504E+04  0.16020013093E+04  0.89907797041E+03 0.  0.
         23    2    4    4    0    0  0.27685191136E+03  0.15645956419E+03  0.69511961658E+03  0.76952999121E+03  0.88648462887E+02 0.  0.
         23    2    4    4    0    0 -0.45726047076E+03 -0.32659297418E+03  0.60740653384E+03  0.83247131806E+03  0.91190400464E+02 0.  0.
          3    1    3    3  502    0  0.18736945086E+03  0.14219448283E+03 -0.45467864703E+03  0.51191723367E+03  0.00000000000E+00 0. -1.
         -3    1    3    3    0  502 -0.69608914650E+01  0.27938927164E+02 -0.53207889343E+02  0.60498902051E+02  0.00000000000E+00 0.  1.
         11    1    5    5    0    0  0.64342556105E+02  0.91280249934E+01  0.20958811812E+03  0.21943214127E+03  0.00000000000E+00 0.  1.
        -11    1    5    5    0    0  0.21250935526E+03  0.14733153919E+03  0.48553149846E+03  0.55009784994E+03  0.00000000000E+00 0. -1.
          2    1    6    6  503    0 -0.37457152746E+03 -0.23951885642E+03  0.51874727322E+03  0.68320702956E+03  0.00000000000E+00 0. -1.
         -2    1    6    6    0  503 -0.82688943292E+02 -0.87074117764E+02  0.88659260618E+02  0.14926428850E+03  0.00000000000E+00 0.  1.
<mgrwt>
<rscale>  0 0.20240156E+04</rscale>
<asrwt>0</asrwt>
<pdfrwt beam="1">  1        2 0.22838900E+00 0.20240156E+04</pdfrwt>
<pdfrwt beam="2">  1       -2 0.10613676E+00 0.20240156E+04</pdfrwt>
<totfact> 0.86038551E+00</totfact>
</mgrwt>
</event>
<event>
12    2  0.3555611E-008  0.2051505E+04  0.7818608E-02  0.8582912E-01
          2   -1    0    0  501    0  0.00000000000E+00  0.00000000000E+00  0.18937895243E+04  0.18937895243E+04  0.00000000000E+00 0. -1.
         -2   -1    0    0    0  501 -0.00000000000E+00 -0.00000000000E+00 -0.55558856159E+03  0.55558856159E+03  0.00000000000E+00 0.  1.
         23    2    1    2    0    0  0.95408852740E+02 -0.59990085284E+03 -0.12217226683E+03  0.62644838540E+03  0.92345191385E+02 0.  0.
        254    2    1    2    0    0 -0.95408852740E+02  0.59990085284E+03  0.14603732296E+04  0.18229297005E+04  0.90631056542E+03 0.  0.
         23    2    4    4    0    0  0.17180740250E+03  0.45957692834E+03  0.22358486264E+03  0.54668083721E+03  0.90227547644E+02 0.  0.
         23    2    4    4    0    0 -0.26721625524E+03  0.14032392450E+03  0.12367883669E+04  0.12762488633E+04  0.89835214127E+02 0.  0.
          3    1    3    3  502    0  0.14327663373E+01 -0.25488422654E+02 -0.26126404310E+02  0.36528092079E+02  0.00000000000E+00 0. -1.
         -3    1    3    3    0  502  0.93976086403E+02 -0.57441243018E+03 -0.96045862521E+02  0.58992029332E+03  0.00000000000E+00 0.  1.
         11    1    5    5    0    0  0.12468527653E+03  0.21557622859E+03  0.13179697536E+03  0.28176226012E+03  0.00000000000E+00 0. -1.
        -11    1    5    5    0    0  0.47122125974E+02  0.24400069975E+03  0.91787887286E+02  0.26491857709E+03  0.00000000000E+00 0.  1.
          4    1    6    6  503    0 -0.62230712913E+02  0.14299455887E+02  0.41751593504E+03  0.42237032575E+03  0.00000000000E+00 0.  1.
         -4    1    6    6    0  503 -0.20498554233E+03  0.12602446861E+03  0.81927243188E+03  0.85387853755E+03  0.00000000000E+00 0. -1.
<mgrwt>
<rscale>  0 0.20515046E+04</rscale>
<asrwt>0</asrwt>
<pdfrwt beam="1">  1        2 0.29135223E+00 0.20515046E+04</pdfrwt>
<pdfrwt beam="2">  1       -2 0.85475165E-01 0.20515046E+04</pdfrwt>
<totfact> 0.84240287E+00</totfact>
</mgrwt>
</event>
<event>
12    2  0.3555611E-008  0.2110653E+04  0.7818608E-02  0.8556565E-01
         -2   -1    0    0    0  501 -0.00000000000E+00  0.00000000000E+00  0.28718750907E+04  0.28718750907E+04  0.00000000000E+00 0.  1.
          2   -1    0    0  501    0  0.00000000000E+00 -0.00000000000E+00 -0.38780048322E+03  0.38780048322E+03  0.00000000000E+00 0. -1.
         23    2    1    2    0    0 -0.81856815699E+03 -0.31784288627E+02  0.14421427950E+04  0.16608850836E+04  0.87745946247E+02 0.  0.
        254    2    1    2    0    0  0.81856815699E+03  0.31784288627E+02  0.10419318125E+04  0.15987904903E+04  0.89411691711E+03 0.  0.
         23    2    4    4    0    0  0.45469441868E+03 -0.41022466084E+03  0.41746100028E+03  0.74660828215E+03  0.90105235627E+02 0.  0.
         23    2    4    4    0    0  0.36387373831E+03  0.44200894946E+03  0.62447081219E+03  0.85218220816E+03  0.92058197907E+02 0.  0.
          2    1    3    3  502    0 -0.66225101310E+03 -0.11850212657E+02  0.12247905079E+04  0.13924182634E+04  0.00000000000E+00 0.  1.
         -2    1    3    3    0  502 -0.15631714389E+03 -0.19934075970E+02  0.21735228711E+03  0.26846682024E+03  0.00000000000E+00 0. -1.
         11    1    5    5    0    0  0.17919371217E+03 -0.12873901920E+03  0.19375531767E+03  0.29364135382E+03  0.00000000000E+00 0.  1.
        -11    1    5    5    0    0  0.27550070651E+03 -0.28148564163E+03  0.22370568261E+03  0.45296692833E+03  0.00000000000E+00 0. -1.
          3    1    6    6  503    0  0.20649315181E+03  0.22347072097E+03  0.39335145645E+03  0.49729664504E+03  0.00000000000E+00 0. -1.
         -3    1    6    6    0  503  0.15738058650E+03  0.21853822849E+03  0.23111935574E+03  0.35488556313E+03  0.00000000000E+00 0.  1.
<mgrwt>
<rscale>  0 0.21106535E+04</rscale>
<asrwt>0</asrwt>
<pdfrwt beam="1">  1        2 0.59661615E-01 0.21106535E+04</pdfrwt>
<pdfrwt beam="2">  1       -2 0.44182692E+00 0.21106535E+04</pdfrwt>
<totfact> 0.29842850E-01</totfact>
</mgrwt>
</event>
<event>
12    2  0.3555611E-008  0.2314261E+04  0.7818608E-02  0.8472319E-01
          1   -1    0    0  501    0  0.00000000000E+00  0.00000000000E+00  0.42072966457E+04  0.42072966457E+04  0.00000000000E+00 0. -1.
         -1   -1    0    0    0  501 -0.00000000000E+00 -0.00000000000E+00 -0.31824488496E+03  0.31824488496E+03  0.00000000000E+00 0.  1.
         23    2    1    2    0    0  0.57159019606E+03 -0.17016672845E+03  0.13208075655E+03  0.61731764019E+03  0.89239424730E+02 0.  0.
        254    2    1    2    0    0 -0.57159019606E+03  0.17016672845E+03  0.37569710042E+04  0.39082238905E+04  0.89649918239E+03 0.  0.
         23    2    4    4    0    0 -0.68814366316E+03  0.40136358404E+03  0.28374262719E+04  0.29485197175E+04  0.90256569936E+02 0.  0.
         23    2    4    4    0    0  0.11655346710E+03 -0.23119685559E+03  0.91954473234E+03  0.95970417300E+03  0.91830758280E+02 0.  0.
          1    1    3    3  502    0  0.19690007312E+03 -0.10088197876E+03  0.33812667459E+02  0.22380819671E+03  0.00000000000E+00 0. -1.
         -1    1    3    3    0  502  0.37469012295E+03 -0.69284749684E+02  0.98268089093E+02  0.39350944348E+03  0.00000000000E+00 0.  1.
         11    1    5    5    0    0 -0.42967011450E+03  0.23009378166E+03  0.18789907622E+04  0.19411764062E+04  0.00000000000E+00 0. -1.
        -11    1    5    5    0    0 -0.25847354866E+03  0.17126980237E+03  0.95843550969E+03  0.10073433113E+04  0.00000000000E+00 0.  1.
          3    1    6    6  503    0  0.11197047381E+03 -0.20513010435E+03  0.88939194461E+03  0.91958348064E+03  0.00000000000E+00 0. -1.
         -3    1    6    6    0  503  0.45829932869E+01 -0.26066751244E+02  0.30152787728E+02  0.40120692363E+02  0.00000000000E+00 0.  1.
<mgrwt>
<rscale>  0 0.23142607E+04</rscale>
<asrwt>0</asrwt>
<pdfrwt beam="1">  1        1 0.64727637E+00 0.23142607E+04</pdfrwt>
<pdfrwt beam="2">  1       -1 0.48960755E-01 0.23142607E+04</pdfrwt>
<totfact> 0.23615145E-01</totfact>
</mgrwt>
</event>
<event>
12    2  0.3555611E-008  0.1066964E+04  0.7818608E-02  0.9238003E-01
          2   -1    0    0  501    0  0.00000000000E+00  0.00000000000E+00  0.12079059956E+04  0.12079059956E+04  0.00000000000E+00 0. -1.
         -2   -1    0    0    0  501 -0.00000000000E+00 -0.00000000000E+00 -0.23561694997E+03  0.23561694997E+03  0.00000000000E+00 0.  1.
         23    2    1    2    0    0  0.10508746294E+03  0.38973832806E+02  0.86721368454E+02  0.17123222908E+03  0.96112153342E+02 0.  0.
        254    2    1    2    0    0 -0.10508746294E+03 -0.38973832806E+02  0.88556767720E+03  0.12722907165E+04  0.90660422563E+03 0.  0.
         23    2    4    4    0    0  0.17679488346E+03 -0.16097538165E+03 -0.69465923405E+02  0.26499949242E+03  0.90717760964E+02 0.  0.
         23    2    4    4    0    0 -0.28188234639E+03  0.12200154885E+03  0.95503360061E+03  0.10072912241E+04  0.90578125003E+02 0.  0.
          3    1    3    3  502    0  0.10214818176E+03  0.41466722078E+02  0.10518340271E+03  0.15237220311E+03  0.00000000000E+00 0. -1.
         -3    1    3    3    0  502  0.29392811784E+01 -0.24928892717E+01 -0.18462034254E+02  0.18860025969E+02  0.00000000000E+00 0.  1.
         11    1    5    5    0    0  0.92262472687E+02 -0.86464288556E+02  0.10415931560E+02  0.12687367218E+03  0.00000000000E+00 0.  1.
        -11    1    5    5    0    0  0.84532410770E+02 -0.74511093097E+02 -0.79881854966E+02  0.13812582024E+03  0.00000000000E+00 0. -1.
          3    1    6    6  503    0 -0.53009634863E+02  0.95438814786E+01  0.29165678764E+03  0.29658858515E+03  0.00000000000E+00 0. -1.
         -3    1    6    6    0  503 -0.22887271153E+03  0.11245766737E+03  0.66337681296E+03  0.71070263895E+03  0.00000000000E+00 0.  1.
<mgrwt>
<rscale>  0 0.10669642E+04</rscale>
<asrwt>0</asrwt>
<pdfrwt beam="1">  1        2 0.18583169E+00 0.10669642E+04</pdfrwt>
<pdfrwt beam="2">  1       -2 0.36248762E-01 0.10669642E+04</pdfrwt>
<totfact> 0.13334047E+02</totfact>
</mgrwt>
</event>
<event>
12    2  0.3555611E-008  0.2040945E+04  0.7818608E-02  0.8587713E-01
          2   -1    0    0  501    0  0.00000000000E+00  0.00000000000E+00  0.31047617236E+04  0.31047617236E+04  0.00000000000E+00 0. -1.
         -2   -1    0    0    0  501 -0.00000000000E+00 -0.00000000000E+00 -0.33540857328E+03  0.33540857328E+03  0.00000000000E+00 0.  1.
         23    2    1    2    0    0 -0.76422005074E+03 -0.29592115105E+03  0.11298301389E+04  0.13987432363E+04  0.91459744104E+02 0.  0.
        254    2    1    2    0    0  0.76422005074E+03  0.29592115105E+03  0.16395230114E+04  0.20414270606E+04  0.89876978422E+03 0.  0.
         23    2    4    4    0    0  0.95700081578E+03  0.27254124667E+03  0.12907561387E+04  0.16323943618E+04  0.92361518272E+02 0.  0.
         23    2    4    4    0    0 -0.19278076504E+03  0.23379904380E+02  0.34876687269E+03  0.40903269882E+03  0.89209718712E+02 0.  0.
          3    1    3    3  502    0 -0.10671278878E+03 -0.15921332567E+02  0.11680379184E+03  0.15901016920E+03  0.00000000000E+00 0. -1.
         -3    1    3    3    0  502 -0.65750726196E+03 -0.27999981848E+03  0.10130263470E+04  0.12397330671E+04  0.00000000000E+00 0.  1.
         11    1    5    5    0    0  0.41344061405E+03  0.12895802843E+03  0.63502725770E+03  0.76865007153E+03  0.00000000000E+00 0.  1.
        -11    1    5    5    0    0  0.54356020174E+03  0.14358321825E+03  0.65572888104E+03  0.86374429023E+03  0.00000000000E+00 0. -1.
          2    1    6    6  503    0 -0.15051547549E+03  0.13029858183E+01  0.18518253527E+03  0.23864026799E+03  0.00000000000E+00 0. -1.
         -2    1    6    6    0  503 -0.42265289546E+02  0.22076918561E+02  0.16358433742E+03  0.17039243083E+03  0.00000000000E+00 0.  1.
<mgrwt>
<rscale>  0 0.20409446E+04</rscale>
<asrwt>0</asrwt>
<pdfrwt beam="1">  1        2 0.47765563E+00 0.20409446E+04</pdfrwt>
<pdfrwt beam="2">  1       -2 0.51601321E-01 0.20409446E+04</pdfrwt>
<totfact> 0.49218311E+00</totfact>
</mgrwt>
</event>
<event>
12    2  0.3555611E-008  0.4899218E+04  0.7818608E-02  0.7844245E-01
          2   -1    0    0  501    0  0.00000000000E+00  0.00000000000E+00  0.22929308827E+04  0.22929308827E+04  0.00000000000E+00 0. -1.
         -2   -1    0    0    0  501 -0.00000000000E+00 -0.00000000000E+00 -0.26169926217E+04  0.26169926217E+04  0.00000000000E+00 0.  1.
         23    2    1    2    0    0 -0.38537728219E+02 -0.66830321672E+03 -0.24297252547E+04  0.25221125054E+04  0.96810796517E+02 0.  0.
        254    2    1    2    0    0  0.38537728219E+02  0.66830321672E+03  0.21056635157E+04  0.23878109990E+04  0.90537736877E+03 0.  0.
         23    2    4    4    0    0 -0.27300361786E+02  0.21721478240E+03  0.18346462451E+04  0.18495755827E+04  0.84115515928E+02 0.  0.
         23    2    4    4    0    0  0.65838090005E+02  0.45108843432E+03  0.27101727058E+03  0.53823541634E+03  0.91823595942E+02 0.  0.
          4    1    3    3  502    0  0.13745753527E+02 -0.35781027998E+03 -0.11653293319E+04  0.12191019621E+04  0.00000000000E+00 0. -1.
         -4    1    3    3    0  502 -0.52283481745E+02 -0.31049293674E+03 -0.12643959228E+04  0.13030105432E+04  0.00000000000E+00 0.  1.
         11    1    5    5    0    0 -0.47423071958E+01  0.20620810628E+03  0.15202040228E+04  0.15341331570E+04  0.00000000000E+00 0. -1.
        -11    1    5    5    0    0 -0.22558054591E+02  0.11006676118E+02  0.31444222233E+03  0.31544242569E+03  0.00000000000E+00 0.  1.
          1    1    6    6  503    0  0.35886788848E+02  0.64972005917E+02  0.20525871221E+02  0.77009964005E+02  0.00000000000E+00 0. -1.
         -1    1    6    6    0  503  0.29951301157E+02  0.38611642841E+03  0.25049139936E+03  0.46122545233E+03  0.00000000000E+00 0.  1.
<mgrwt>
<rscale>  0 0.48992176E+04</rscale>
<asrwt>0</asrwt>
<pdfrwt beam="1">  1        2 0.35275860E+00 0.48992176E+04</pdfrwt>
<pdfrwt beam="2">  1       -2 0.40261425E+00 0.48992176E+04</pdfrwt>
<totfact> 0.23976579E-02</totfact>
</mgrwt>
</event>
<event>
12    2  0.3555611E-008  0.1833644E+04  0.7818608E-02  0.8688610E-01
         -1   -1    0    0    0  501 -0.00000000000E+00  0.00000000000E+00  0.39859684039E+03  0.39859684039E+03  0.00000000000E+00 0.  1.
          1   -1    0    0  501    0  0.00000000000E+00 -0.00000000000E+00 -0.21088045962E+04  0.21088045962E+04  0.00000000000E+00 0. -1.
         23    2    1    2    0    0  0.19235553826E+03 -0.28135976166E+03 -0.14537617127E+04  0.14959416510E+04  0.90853383875E+02 0.  0.
        254    2    1    2    0    0 -0.19235553826E+03  0.28135976166E+03 -0.25644604316E+03  0.10114597856E+04  0.91712723017E+03 0.  0.
         23    2    4    4    0    0  0.22299453190E+03  0.32862383323E+03  0.13725255487E+03  0.42995717208E+03  0.91130241835E+02 0.  0.
         23    2    4    4    0    0 -0.41535007016E+03 -0.47264071570E+02 -0.39369859804E+03  0.58150261355E+03  0.91635856674E+02 0.  0.
          3    1    3    3  502    0  0.12541004672E+03 -0.20184694032E+03 -0.11663551170E+04  0.11903168175E+04  0.00000000000E+00 0. -1.
         -3    1    3    3    0  502  0.66945491541E+02 -0.79512821340E+02 -0.28740659567E+03  0.30562483347E+03  0.00000000000E+00 0.  1.
         11    1    5    5    0    0  0.61208312084E+02  0.31280378068E+02  0.28449194039E+02  0.74392715784E+02  0.00000000000E+00 0. -1.
        -11    1    5    5    0    0  0.16178621982E+03  0.29734345516E+03  0.10880336083E+03  0.35556445629E+03  0.00000000000E+00 0.  1.
          2    1    6    6  503    0 -0.11387011282E+03  0.46732191882E+01 -0.16044525473E+03  0.19680173103E+03  0.00000000000E+00 0. -1.
         -2    1    6    6    0  503 -0.30147995734E+03 -0.51937290758E+02 -0.23325334331E+03  0.38470088252E+03  0.00000000000E+00 0.  1.
<mgrwt>
<rscale>  0 0.18336443E+04</rscale>
<asrwt>0</asrwt>
<pdfrwt beam="1">  1        1 0.32443147E+00 0.18336443E+04</pdfrwt>
<pdfrwt beam="2">  1       -1 0.61322592E-01 0.18336443E+04</pdfrwt>
<totfact> 0.63798121E+00</totfact>
</mgrwt>
</event>
<event>
12    2  0.3555611E-008  0.1399338E+04  0.7818608E-02  0.8954298E-01
         -2   -1    0    0    0  501 -0.00000000000E+00  0.00000000000E+00  0.42091843214E+03  0.42091843214E+03  0.00000000000E+00 0.  1.
          2   -1    0    0  501    0  0.00000000000E+00 -0.00000000000E+00 -0.11630201888E+04  0.11630201888E+04  0.00000000000E+00 0. -1.
         23    2    1    2    0    0 -0.33862128914E+03  0.17157899009E+03 -0.69780348168E+02  0.39911736530E+03  0.10159550678E+03 0.  0.
        254    2    1    2    0    0  0.33862128914E+03 -0.17157899009E+03 -0.67232140850E+03  0.11848212556E+04  0.89871107938E+03 0.  0.
         23    2    4    4    0    0  0.29163665408E+03 -0.45749981832E+03 -0.68778356694E+03  0.88057518717E+03  0.89489683987E+02 0.  0.
         23    2    4    4    0    0  0.46984635059E+02  0.28592082823E+03  0.15462158438E+02  0.30424606847E+03  0.91478499627E+02 0.  0.
          1    1    3    3  502    0 -0.24300451204E+03  0.81443425384E+02 -0.76732640332E+02  0.26752966659E+03  0.00000000000E+00 0. -1.
         -1    1    3    3    0  502 -0.95616777094E+02  0.90135564709E+02  0.69522921635E+01  0.13158769872E+03  0.00000000000E+00 0.  1.
         11    1    5    5    0    0  0.25423564975E+03 -0.42255993770E+03 -0.65463021479E+03  0.81959342644E+03  0.00000000000E+00 0.  1.
        -11    1    5    5    0    0  0.37401004326E+02 -0.34939880623E+02 -0.33153352150E+02  0.60981760726E+02  0.00000000000E+00 0. -1.
          1    1    6    6  503    0 -0.25229816894E+02  0.44237303544E+02 -0.50262943887E+01  0.51173687776E+02  0.00000000000E+00 0. -1.
         -1    1    6    6    0  503  0.72214451953E+02  0.24168352468E+03  0.20488452827E+02  0.25307238070E+03  0.00000000000E+00 0.  1.
<mgrwt>
<rscale>  0 0.13993379E+04</rscale>
<asrwt>0</asrwt>
<pdfrwt beam="1">  1        2 0.17892618E+00 0.13993379E+04</pdfrwt>
<pdfrwt beam="2">  1       -2 0.64756684E-01 0.13993379E+04</pdfrwt>
<totfact> 0.42711212E+01</totfact>
</mgrwt>
</event>
<event>
12    2  0.3555611E-008  0.1555852E+04  0.7818608E-02  0.8848138E-01
          1   -1    0    0  501    0  0.00000000000E+00  0.00000000000E+00  0.10808377857E+04  0.10808377857E+04  0.00000000000E+00 0. -1.
         -1   -1    0    0    0  501 -0.00000000000E+00 -0.00000000000E+00 -0.55990718147E+03  0.55990718147E+03  0.00000000000E+00 0.  1.
         23    2    1    2    0    0 -0.12828816618E+01 -0.15297970427E+02  0.72666806959E+03  0.73219173377E+03  0.88445338839E+02 0.  0.
        254    2    1    2    0    0  0.12828816618E+01  0.15297970427E+02 -0.20573746541E+03  0.90855323336E+03  0.88481941631E+03 0.  0.
         23    2    4    4    0    0 -0.17923016828E+03 -0.16877290711E+03  0.25958074914E+03  0.36895941635E+03  0.90228256106E+02 0.  0.
         23    2    4    4    0    0  0.18051304994E+03  0.18407087754E+03 -0.46531821454E+03  0.53959381700E+03  0.90406843804E+02 0.  0.
          3    1    3    3  502    0  0.36769088163E+02 -0.16666106612E+02  0.19353023547E+03  0.19769592054E+03  0.00000000000E+00 0. -1.
         -3    1    3    3    0  502 -0.38051969825E+02  0.13681361851E+01  0.53313783411E+03  0.53449581324E+03  0.00000000000E+00 0.  1.
         11    1    5    5    0    0 -0.45255854045E+02 -0.63840957296E+01  0.80518504720E+02  0.92585520499E+02  0.00000000000E+00 0.  1.
        -11    1    5    5    0    0 -0.13397431423E+03 -0.16238881138E+03  0.17906224442E+03  0.27637389586E+03  0.00000000000E+00 0. -1.
          1    1    6    6  503    0  0.10423106145E+03  0.16125750786E+03 -0.35417000489E+03  0.40287031458E+03  0.00000000000E+00 0. -1.
         -1    1    6    6    0  503  0.76281988489E+02  0.22813369680E+02 -0.11114820966E+03  0.13672350242E+03  0.00000000000E+00 0.  1.
<mgrwt>
<rscale>  0 0.15558520E+04</rscale>
<asrwt>0</asrwt>
<pdfrwt beam="1">  1        1 0.16628274E+00 0.15558520E+04</pdfrwt>
<pdfrwt beam="2">  1       -1 0.86139567E-01 0.15558520E+04</pdfrwt>
<totfact> 0.16792693E+01</totfact>
</mgrwt>
</event>
<event>
12    2  0.3555611E-008  0.1338370E+04  0.7818608E-02  0.8999678E-01
          2   -1    0    0  501    0  0.00000000000E+00  0.00000000000E+00  0.14724429717E+04  0.14724429717E+04  0.00000000000E+00 0. -1.
         -2   -1    0    0    0  501 -0.00000000000E+00 -0.00000000000E+00 -0.30412645535E+03  0.30412645535E+03  0.00000000000E+00 0.  1.
         23    2    1    2    0    0  0.67689047051E+02 -0.22442321231E+03 -0.37778455371E+02  0.25387467488E+03  0.89875210916E+02 0.  0.
        254    2    1    2    0    0 -0.67689047051E+02  0.22442321231E+03  0.12060949718E+04  0.15226947522E+04  0.89943684724E+03 0.  0.
         23    2    4    4    0    0 -0.21504257640E+03  0.50731912434E+03  0.53107939262E+03  0.77069681515E+03  0.91171574629E+02 0.  0.
         23    2    4    4    0    0  0.14735352935E+03 -0.28289591203E+03  0.67501557914E+03  0.75199793706E+03  0.90065007673E+02 0.  0.
          1    1    3    3  502    0  0.72032275480E+02 -0.19572983621E+03 -0.30085693000E+01  0.20858539973E+03  0.00000000000E+00 0. -1.
         -1    1    3    3    0  502 -0.43432284290E+01 -0.28693376106E+02 -0.34769886071E+02  0.45289275142E+02  0.00000000000E+00 0.  1.
         11    1    5    5    0    0 -0.15747088404E+03  0.40519445887E+03  0.46313739274E+03  0.63519750737E+03  0.00000000000E+00 0. -1.
        -11    1    5    5    0    0 -0.57571692357E+02  0.10212466548E+03  0.67941999883E+02  0.13549930778E+03  0.00000000000E+00 0.  1.
          4    1    6    6  503    0  0.48733126384E+02 -0.17872685331E+03  0.33182420809E+03  0.38003356533E+03  0.00000000000E+00 0. -1.
         -4    1    6    6    0  503  0.98620402965E+02 -0.10416905872E+03  0.34319137105E+03  0.37196437173E+03  0.00000000000E+00 0.  1.
<mgrwt>
<rscale>  0 0.13383704E+04</rscale>
<asrwt>0</asrwt>
<pdfrwt beam="1">  1        2 0.22652968E+00 0.13383704E+04</pdfrwt>
<pdfrwt beam="2">  1       -2 0.46788686E-01 0.13383704E+04</pdfrwt>
<totfact> 0.55683020E+01</totfact>
</mgrwt>
</event>
<event>
12    2  0.3555611E-008  0.1549435E+04  0.7818608E-02  0.8852228E-01
          2   -1    0    0  501    0  0.00000000000E+00  0.00000000000E+00  0.11988390213E+04  0.11988390213E+04  0.00000000000E+00 0. -1.
         -2   -1    0    0    0  501 -0.00000000000E+00 -0.00000000000E+00 -0.50064062268E+03  0.50064062268E+03  0.00000000000E+00 0.  1.
         23    2    1    2    0    0 -0.65543213054E+02 -0.18175955508E+03 -0.28428434112E+03  0.35554817407E+03  0.90909124064E+02 0.  0.
        254    2    1    2    0    0  0.65543213054E+02  0.18175955508E+03  0.98248273978E+03  0.13439314700E+04  0.89640783873E+03 0.  0.
         23    2    4    4    0    0  0.41098939701E+03  0.20439778684E+03  0.25502437405E+03  0.53270116545E+03  0.89679209364E+02 0.  0.
         23    2    4    4    0    0 -0.34544618396E+03 -0.22638231761E+02  0.72745836573E+03  0.81123030450E+03  0.95149238228E+02 0.  0.
          2    1    3    3  502    0 -0.29273734483E+01  0.10551584201E+02 -0.10572522753E+02  0.15221159017E+02  0.00000000000E+00 0. -1.
         -2    1    3    3    0  502 -0.62615839606E+02 -0.19231113928E+03 -0.27371181837E+03  0.34032701505E+03  0.00000000000E+00 0.  1.
         11    1    5    5    0    0  0.19904601174E+03  0.14391968883E+03  0.11197795634E+03  0.26994676203E+03  0.00000000000E+00 0.  1.
        -11    1    5    5    0    0  0.21194338527E+03  0.60478098009E+02  0.14304641771E+03  0.26275440342E+03  0.00000000000E+00 0. -1.
          2    1    6    6  503    0 -0.56063755553E+02 -0.34045582516E+02  0.18535022961E+03  0.19661371771E+03  0.00000000000E+00 0.  1.
         -2    1    6    6    0  503 -0.28938242840E+03  0.11407350755E+02  0.54210813612E+03  0.61461658680E+03  0.00000000000E+00 0. -1.
<mgrwt>
<rscale>  0 0.15494354E+04</rscale>
<asrwt>0</asrwt>
<pdfrwt beam="1">  1        2 0.18443677E+00 0.15494354E+04</pdfrwt>
<pdfrwt beam="2">  1       -2 0.77021635E-01 0.15494354E+04</pdfrwt>
<totfact> 0.27487784E+01</totfact>
</mgrwt>
</event>
<event>
12    2  0.3555611E-008  0.1413817E+04  0.7818608E-02  0.8943878E-01
          2   -1    0    0  501    0  0.00000000000E+00  0.00000000000E+00  0.26251359788E+04  0.26251359788E+04  0.00000000000E+00 0. -1.
         -2   -1    0    0    0  501 -0.00000000000E+00 -0.00000000000E+00 -0.19035945781E+03  0.19035945781E+03  0.00000000000E+00 0.  1.
         23    2    1    2    0    0 -0.25655250397E+02  0.49106718395E+02  0.15434865344E+04  0.15471116015E+04  0.90188491339E+02 0.  0.
        254    2    1    2    0    0  0.25655250397E+02 -0.49106718395E+02  0.89128998657E+03  0.12683838351E+04  0.90073861428E+03 0.  0.
         23    2    4    4    0    0 -0.14892710306E+02  0.36597720099E+03  0.13483970044E+03  0.39950489525E+03  0.85213332538E+02 0.  0.
         23    2    4    4    0    0  0.40547960704E+02 -0.41508391939E+03  0.75645028612E+03  0.86887893983E+03  0.93780485433E+02 0.  0.
          4    1    3    3  502    0 -0.63602342727E+00  0.13973421548E+02  0.12831588451E+04  0.12832350848E+04  0.00000000000E+00 0. -1.
         -4    1    3    3    0  502 -0.25019226970E+02  0.35133296847E+02  0.26032768930E+03  0.26387651673E+03  0.00000000000E+00 0.  1.
         11    1    5    5    0    0 -0.89964708212E+01  0.22776107629E+03  0.39106507161E+02  0.23126902789E+03  0.00000000000E+00 0.  1.
        -11    1    5    5    0    0 -0.58962394852E+01  0.13821612471E+03  0.95733193283E+02  0.16823586736E+03  0.00000000000E+00 0. -1.
          4    1    6    6  503    0  0.41064137798E+01 -0.24302310193E+03  0.52180052634E+03  0.57563259115E+03  0.00000000000E+00 0.  1.
         -4    1    6    6    0  503  0.36441546924E+02 -0.17206081746E+03  0.23464975979E+03  0.29324634868E+03  0.00000000000E+00 0. -1.
<mgrwt>
<rscale>  0 0.14138168E+04</rscale>
<asrwt>0</asrwt>
<pdfrwt beam="1">  1        2 0.40386705E+00 0.14138168E+04</pdfrwt>
<pdfrwt beam="2">  1       -2 0.29286072E-01 0.14138168E+04</pdfrwt>
<totfact> 0.30817257E+01</totfact>
</mgrwt>
</event>
<event>
12    2  0.3555611E-008  0.2194983E+04  0.7818608E-02  0.8520519E-01
          1   -1    0    0  501    0  0.00000000000E+00  0.00000000000E+00  0.13571549653E+04  0.13571549653E+04  0.00000000000E+00 0. -1.
         -1   -1    0    0    0  501 -0.00000000000E+00 -0.00000000000E+00 -0.88750963312E+03  0.88750963312E+03  0.00000000000E+00 0.  1.
         23    2    1    2    0    0  0.40085273750E+03 -0.30016195696E+03  0.97229745652E+03  0.10975271207E+04  0.91778641750E+02 0.  0.
        254    2    1    2    0    0 -0.40085273750E+03  0.30016195696E+03 -0.50265212439E+03  0.11471374777E+04  0.90137956324E+03 0.  0.
         23    2    4    4    0    0 -0.52486901990E+02  0.24410119635E+02 -0.65866324011E+03  0.66811011303E+03  0.95828651420E+02 0.  0.
         23    2    4    4    0    0 -0.34836583551E+03  0.27575183733E+03  0.15601111573E+03  0.47902736467E+03  0.87919945023E+02 0.  0.
          4    1    3    3  502    0  0.23103216958E+03 -0.21700087687E+03  0.66574518815E+03  0.73734788227E+03  0.00000000000E+00 0. -1.
         -4    1    3    3    0  502  0.16982056792E+03 -0.83161080088E+02  0.30655226837E+03  0.36017923840E+03  0.00000000000E+00 0.  1.
         11    1    5    5    0    0  0.14354714819E+02  0.28492745347E+02 -0.38707684954E+03  0.38838947182E+03  0.00000000000E+00 0.  1.
        -11    1    5    5    0    0 -0.66841616810E+02 -0.40826257127E+01 -0.27158639058E+03  0.27972064121E+03  0.00000000000E+00 0. -1.
          3    1    6    6  503    0 -0.19803131277E+03  0.18797728437E+03  0.13207082713E+03  0.30330605608E+03  0.00000000000E+00 0. -1.
         -3    1    6    6    0  503 -0.15033452274E+03  0.87774552959E+02  0.23940288595E+02  0.17572130859E+03  0.00000000000E+00 0.  1.
<mgrwt>
<rscale>  0 0.21949835E+04</rscale>
<asrwt>0</asrwt>
<pdfrwt beam="1">  1        1 0.20879307E+00 0.21949835E+04</pdfrwt>
<pdfrwt beam="2">  1       -1 0.13653994E+00 0.21949835E+04</pdfrwt>
<totfact> 0.33613949E+00</totfact>
</mgrwt>
</event>
<event>
12    2  0.3555611E-008  0.1463256E+04  0.7818608E-02  0.8909261E-01
         -1   -1    0    0    0  501 -0.00000000000E+00  0.00000000000E+00  0.81539017382E+03  0.81539017382E+03  0.00000000000E+00 0.  1.
          1   -1    0    0  501    0  0.00000000000E+00 -0.00000000000E+00 -0.65647076619E+03  0.65647076619E+03  0.00000000000E+00 0. -1.
         23    2    1    2    0    0 -0.20482635799E+03  0.87710811843E+02 -0.30954896414E+03  0.39239119341E+03  0.92213144539E+02 0.  0.
        254    2    1    2    0    0  0.20482635799E+03 -0.87710811843E+02  0.46846837177E+03  0.10794697466E+04  0.94664951013E+03 0.  0.
         23    2    4    4    0    0 -0.76870252314E+01 -0.15281300601E+03  0.71259033161E+03  0.73460984320E+03  0.91955075228E+02 0.  0.
         23    2    4    4    0    0  0.21251338322E+03  0.65102194171E+02 -0.24412195984E+03  0.34485990340E+03  0.99662369845E+02 0.  0.
          2    1    3    3  502    0 -0.60961273319E+02  0.58785661909E+02 -0.16981096787E+03  0.18975720197E+03  0.00000000000E+00 0. -1.
         -2    1    3    3    0  502 -0.14386508467E+03  0.28925149934E+02 -0.13973799627E+03  0.20263399144E+03  0.00000000000E+00 0.  1.
         11    1    5    5    0    0  0.26919796777E+02 -0.67432099829E+01  0.90200285876E+02  0.94372866394E+02  0.00000000000E+00 0. -1.
        -11    1    5    5    0    0 -0.34606822008E+02 -0.14606979603E+03  0.62239004573E+03  0.64023697681E+03  0.00000000000E+00 0.  1.
          1    1    6    6  503    0  0.46387642989E+01  0.16637916753E+01 -0.59462246424E+02  0.59666113387E+02  0.00000000000E+00 0. -1.
         -1    1    6    6    0  503  0.20787461892E+03  0.63438402496E+02 -0.18465971342E+03  0.28519379001E+03  0.00000000000E+00 0.  1.
<mgrwt>
<rscale>  0 0.14632564E+04</rscale>
<asrwt>0</asrwt>
<pdfrwt beam="1">  1        1 0.10099550E+00 0.14632564E+04</pdfrwt>
<pdfrwt beam="2">  1       -1 0.12544464E+00 0.14632564E+04</pdfrwt>
<totfact> 0.16155768E+01</totfact>
</mgrwt>
</event>
<event>
12    2  0.3555611E-008  0.1075893E+04  0.7818608E-02  0.9229012E-01
         -1   -1    0    0    0  501 -0.00000000000E+00  0.00000000000E+00  0.75412849364E+03  0.75412849364E+03  0.00000000000E+00 0.  1.
          1   -1    0    0  501    0  0.00000000000E+00 -0.00000000000E+00 -0.38373633661E+03  0.38373633661E+03  0.00000000000E+00 0. -1.
         23    2    1    2    0    0  0.75053458106E+02 -0.10668698335E+03  0.81107743693E+02  0.17823532647E+03  0.90411456814E+02 0.  0.
        254    2    1    2    0    0 -0.75053458106E+02  0.10668698335E+03  0.28928441333E+03  0.95962950378E+03  0.90564241218E+03 0.  0.
         23    2    4    4    0    0  0.16246725299E+03  0.97951427850E+02 -0.27233500061E+03  0.34433186354E+03  0.91695088084E+02 0.  0.
         23    2    4    4    0    0 -0.23752071109E+03  0.87355555010E+01  0.56161941394E+03  0.61529764024E+03  0.81746081507E+02 0.  0.
          4    1    3    3  502    0  0.65280669162E+02 -0.86678177953E+02  0.16324991808E+02  0.10973229997E+03  0.00000000000E+00 0. -1.
         -4    1    3    3    0  502  0.97727889447E+01 -0.20008805398E+02  0.64782751885E+02  0.68503026495E+02  0.00000000000E+00 0.  1.
         11    1    5    5    0    0  0.10683804859E+03  0.58135289713E+02 -0.95237194214E+02  0.15448043144E+03  0.00000000000E+00 0.  1.
        -11    1    5    5    0    0  0.55629204394E+02  0.39816138137E+02 -0.17709780640E+03  0.18985143209E+03  0.00000000000E+00 0. -1.
          3    1    6    6  503    0 -0.73761127538E+02  0.41068141414E+02  0.18973259475E+03  0.20766741123E+03  0.00000000000E+00 0. -1.
         -3    1    6    6    0  503 -0.16375958356E+03 -0.32332585913E+02  0.37188681919E+03  0.40763022901E+03  0.00000000000E+00 0.  1.
<mgrwt>
<rscale>  0 0.10758931E+04</rscale>
<asrwt>0</asrwt>
<pdfrwt beam="1">  1        1 0.59036359E-01 0.10758931E+04</pdfrwt>
<pdfrwt beam="2">  1       -1 0.11601977E+00 0.10758931E+04</pdfrwt>
<totfact> 0.42541552E+01</totfact>
</mgrwt>
</event>
<event>
12    2  0.3555611E-008  0.1506735E+04  0.7818608E-02  0.8879987E-01
          1   -1    0    0  501    0  0.00000000000E+00  0.00000000000E+00  0.11424669452E+04  0.11424669452E+04  0.00000000000E+00 0. -1.
         -1   -1    0    0    0  501 -0.00000000000E+00 -0.00000000000E+00 -0.49678675833E+03  0.49678675833E+03  0.00000000000E+00 0.  1.
         23    2    1    2    0    0  0.15681686487E+03  0.45178678811E+03  0.21092838390E+03  0.53139320205E+03  0.95839037079E+02 0.  0.
        254    2    1    2    0    0 -0.15681686487E+03 -0.45178678811E+03  0.43475180296E+03  0.11078605015E+04  0.89980160566E+03 0.  0.
         23    2    4    4    0    0 -0.19617467724E+03  0.18152759280E+03  0.36554301732E+03  0.46195200470E+03  0.91330094699E+02 0.  0.
         23    2    4    4    0    0  0.39357812378E+02 -0.63331438091E+03  0.69208785642E+02  0.64590849678E+03  0.98852353216E+02 0.  0.
          2    1    3    3  502    0  0.10577531448E+03  0.36224303855E+03  0.12602703013E+03  0.39785832712E+03  0.00000000000E+00 0. -1.
         -2    1    3    3    0  502  0.51041550382E+02  0.89543749563E+02  0.84901353769E+02  0.13353487493E+03  0.00000000000E+00 0.  1.
         11    1    5    5    0    0 -0.47789059971E+02  0.64039780028E+02  0.17985978817E+03  0.19681064778E+03  0.00000000000E+00 0. -1.
        -11    1    5    5    0    0 -0.14838561727E+03  0.11748781277E+03  0.18568322915E+03  0.26514135692E+03  0.00000000000E+00 0.  1.
          4    1    6    6  503    0  0.51223063809E+02 -0.18726725841E+03  0.43522241348E+02  0.19896485577E+03  0.00000000000E+00 0.  1.
         -4    1    6    6    0  503 -0.11865251430E+02 -0.44604712250E+03  0.25686544295E+02  0.44694364101E+03  0.00000000000E+00 0. -1.
<mgrwt>
<rscale>  0 0.15067348E+04</rscale>
<asrwt>0</asrwt>
<pdfrwt beam="1">  1        1 0.17576414E+00 0.15067348E+04</pdfrwt>
<pdfrwt beam="2">  1       -1 0.76428732E-01 0.15067348E+04</pdfrwt>
<totfact> 0.19579151E+01</totfact>
</mgrwt>
</event>
<event>
12    2  0.3555611E-008  0.1316584E+04  0.7818608E-02  0.9016516E-01
         -1   -1    0    0    0  501 -0.00000000000E+00  0.00000000000E+00  0.27803160819E+03  0.27803160819E+03  0.00000000000E+00 0.  1.
          1   -1    0    0  501    0  0.00000000000E+00 -0.00000000000E+00 -0.15586302289E+04  0.15586302289E+04  0.00000000000E+00 0. -1.
         23    2    1    2    0    0  0.24075122987E+03  0.23672533777E+03 -0.41174472807E+03  0.53936887349E+03  0.85936141213E+02 0.  0.
        254    2    1    2    0    0 -0.24075122987E+03 -0.23672533777E+03 -0.86885389265E+03  0.12972929636E+04  0.90225379270E+03 0.  0.
         23    2    4    4    0    0  0.21892541923E+03  0.35158533614E+02  0.35575058136E+02  0.24296183914E+03  0.92738389286E+02 0.  0.
         23    2    4    4    0    0 -0.45967664909E+03 -0.27188387139E+03 -0.90442895078E+03  0.10543311245E+04  0.91645686075E+02 0.  0.
          3    1    3    3  502    0  0.92282072870E+01  0.15267062767E+02 -0.22946800379E+00  0.17840842773E+02  0.00000000000E+00 0. -1.
         -3    1    3    3    0  502  0.23152302258E+03  0.22145827501E+03 -0.41151526007E+03  0.52152803071E+03  0.00000000000E+00 0.  1.
         11    1    5    5    0    0  0.21315227835E+03  0.42383837339E+02  0.12021413220E+02  0.21765752413E+03  0.00000000000E+00 0. -1.
        -11    1    5    5    0    0  0.57731408783E+01 -0.72253037250E+01  0.23553644916E+02  0.25304315014E+02  0.00000000000E+00 0.  1.
          1    1    6    6  503    0 -0.40845070727E+03 -0.22595686074E+03 -0.72617094322E+03  0.86325704281E+03  0.00000000000E+00 0. -1.
         -1    1    6    6    0  503 -0.51225941820E+02 -0.45927010645E+02 -0.17825800756E+03  0.19107408166E+03  0.00000000000E+00 0.  1.
<mgrwt>
<rscale>  0 0.13165842E+04</rscale>
<asrwt>0</asrwt>
<pdfrwt beam="1">  1        1 0.23978927E+00 0.13165842E+04</pdfrwt>
<pdfrwt beam="2">  1       -1 0.42774093E-01 0.13165842E+04</pdfrwt>
<totfact> 0.31470001E+01</totfact>
</mgrwt>
</event>
<event>
12    2  0.3555611E-008  0.1555466E+04  0.7818608E-02  0.8848384E-01
          2   -1    0    0  501    0  0.00000000000E+00  0.00000000000E+00  0.27317771161E+04  0.27317771161E+04  0.00000000000E+00 0. -1.
         -2   -1    0    0    0  501 -0.00000000000E+00 -0.00000000000E+00 -0.22141955663E+03  0.22141955663E+03  0.00000000000E+00 0.  1.
         23    2    1    2    0    0  0.18333001695E+03  0.23151927903E+03  0.55245120239E+02  0.31328418257E+03  0.88791238667E+02 0.  0.
        254    2    1    2    0    0 -0.18333001695E+03 -0.23151927903E+03  0.24551124392E+04  0.26399124902E+04  0.92431044283E+03 0.  0.
         23    2    4    4    0    0  0.21849627792E+03  0.17156616895E+03  0.14720220588E+04  0.15008251973E+04  0.91933441156E+02 0.  0.
         23    2    4    4    0    0 -0.40182629487E+03 -0.40308544798E+03  0.98309038045E+03  0.11390872928E+04  0.84326241002E+02 0.  0.
          3    1    3    3  502    0  0.69522036073E+02  0.83549725705E+02 -0.22621704028E+02  0.11102077129E+03  0.00000000000E+00 0.  1.
         -3    1    3    3    0  502  0.11380798088E+03  0.14796955332E+03  0.77866824267E+02  0.20226341128E+03  0.00000000000E+00 0. -1.
         11    1    5    5    0    0  0.44086448652E+02  0.70048357270E+01  0.12752128922E+03  0.13510870394E+03  0.00000000000E+00 0.  1.
        -11    1    5    5    0    0  0.17440982927E+03  0.16456133322E+03  0.13445007696E+04  0.13657164934E+04  0.00000000000E+00 0. -1.
          3    1    6    6  503    0 -0.21720167336E+03 -0.23140178822E+03  0.46597138469E+03  0.56378425470E+03  0.00000000000E+00 0. -1.
         -3    1    6    6    0  503 -0.18462462151E+03 -0.17168365976E+03  0.51711899577E+03  0.57530303813E+03  0.00000000000E+00 0.  1.
<mgrwt>
<rscale>  0 0.15554663E+04</rscale>
<asrwt>0</asrwt>
<pdfrwt beam="1">  1        2 0.42027338E+00 0.15554663E+04</pdfrwt>
<pdfrwt beam="2">  1       -2 0.34064549E-01 0.15554663E+04</pdfrwt>
<totfact> 0.19812621E+01</totfact>
</mgrwt>
</event>
<event>
12    2  0.3555611E-008  0.1889031E+04  0.7818608E-02  0.8660336E-01
          2   -1    0    0  501    0  0.00000000000E+00  0.00000000000E+00  0.73828520557E+03  0.73828520557E+03  0.00000000000E+00 0. -1.
         -2   -1    0    0    0  501 -0.00000000000E+00 -0.00000000000E+00 -0.12083532721E+04  0.12083532721E+04  0.00000000000E+00 0.  1.
         23    2    1    2    0    0 -0.23355207046E+03 -0.49513865900E+03 -0.64657265391E+03  0.85031712576E+03  0.72623386913E+02 0.  0.
        254    2    1    2    0    0  0.23355207046E+03  0.49513865900E+03  0.17650458742E+03  0.10963213519E+04  0.93330476049E+03 0.  0.
         23    2    4    4    0    0  0.77450757041E+02 -0.70732380395E+02  0.42879749546E+03  0.45039205607E+03  0.89353358361E+02 0.  0.
         23    2    4    4    0    0  0.15610131342E+03  0.56587103939E+03 -0.25229290805E+03  0.64592929581E+03  0.94843505136E+02 0.  0.
          2    1    3    3  502    0 -0.97278678538E+02 -0.15807947432E+03 -0.17728221206E+03  0.25667341937E+03  0.00000000000E+00 0. -1.
         -2    1    3    3    0  502 -0.13627339192E+03 -0.33705918467E+03 -0.46929044185E+03  0.59364370639E+03  0.00000000000E+00 0.  1.
         11    1    5    5    0    0  0.31679324631E+02  0.78909768982E+01  0.42866529146E+02  0.53883081264E+02  0.00000000000E+00 0. -1.
        -11    1    5    5    0    0  0.45771432410E+02 -0.78623357293E+02  0.38593096632E+03  0.39650897480E+03  0.00000000000E+00 0.  1.
          1    1    6    6  503    0  0.29656002883E+02  0.95272925762E+02 -0.60725547318E+01  0.99966418418E+02  0.00000000000E+00 0. -1.
         -1    1    6    6    0  503  0.12644531053E+03  0.47059811363E+03 -0.24622035331E+03  0.54596287739E+03  0.00000000000E+00 0.  1.
<mgrwt>
<rscale>  0 0.18890308E+04</rscale>
<asrwt>0</asrwt>
<pdfrwt beam="1">  1        2 0.11358234E+00 0.18890308E+04</pdfrwt>
<pdfrwt beam="2">  1       -2 0.18590050E+00 0.18890308E+04</pdfrwt>
<totfact> 0.59231750E+00</totfact>
</mgrwt>
</event>
<event>
12    2  0.3555611E-008  0.1393912E+04  0.7818608E-02  0.8958237E-01
          2   -1    0    0  501    0  0.00000000000E+00  0.00000000000E+00  0.20236190245E+04  0.20236190245E+04  0.00000000000E+00 0.  1.
         -2   -1    0    0    0  501 -0.00000000000E+00 -0.00000000000E+00 -0.24003902995E+03  0.24003902995E+03  0.00000000000E+00 0. -1.
         23    2    1    2    0    0  0.24162576070E+03  0.19560510122E+03  0.10877556239E+03  0.34142031086E+03  0.89951886233E+02 0.  0.
        254    2    1    2    0    0 -0.24162576070E+03 -0.19560510122E+03  0.16748044322E+04  0.19222377436E+04  0.89072088393E+03 0.  0.
         23    2    4    4    0    0  0.19785670159E+03 -0.56184585389E+02  0.13040200682E+04  0.13232866273E+04  0.91187596605E+02 0.  0.
         23    2    4    4    0    0 -0.43948246228E+03 -0.13942051583E+03  0.37078436401E+03  0.59895111633E+03  0.93158361219E+02 0.  0.
          3    1    3    3  502    0  0.13300986389E+03  0.15825242240E+03  0.88097899129E+02  0.22471469226E+03  0.00000000000E+00 0. -1.
         -3    1    3    3    0  502  0.10861589680E+03  0.37352678823E+02  0.20677663259E+02  0.11670561859E+03  0.00000000000E+00 0.  1.
         11    1    5    5    0    0  0.16143509643E+03 -0.48597700153E+02  0.12173557569E+04  0.12289743958E+04  0.00000000000E+00 0.  1.
        -11    1    5    5    0    0  0.36421605162E+02 -0.75868852359E+01  0.86664311311E+02  0.94312231472E+02  0.00000000000E+00 0. -1.
          1    1    6    6  503    0 -0.89552837795E+02 -0.66292310512E+02  0.10891205250E+03  0.15580826798E+03  0.00000000000E+00 0. -1.
         -1    1    6    6    0  503 -0.34992962449E+03 -0.73128205323E+02  0.26187231151E+03  0.44314284835E+03  0.00000000000E+00 0.  1.
<mgrwt>
<rscale>  0 0.13939118E+04</rscale>
<asrwt>0</asrwt>
<pdfrwt beam="1">  1        2 0.31132599E+00 0.13939118E+04</pdfrwt>
<pdfrwt beam="2">  1       -2 0.36929083E-01 0.13939118E+04</pdfrwt>
<totfact> 0.43640478E+01</totfact>
</mgrwt>
</event>
<event>
12    2  0.3555611E-008  0.1315829E+04  0.7818608E-02  0.9017106E-01
         -1   -1    0    0    0  501 -0.00000000000E+00  0.00000000000E+00  0.22194960583E+04  0.22194960583E+04  0.00000000000E+00 0.  1.
          1   -1    0    0  501    0  0.00000000000E+00 -0.00000000000E+00 -0.19502227039E+03  0.19502227039E+03  0.00000000000E+00 0. -1.
         23    2    1    2    0    0  0.22543968028E+02 -0.12744809870E+02  0.11753636800E+04  0.11791722540E+04  0.91086571543E+02 0.  0.
        254    2    1    2    0    0 -0.22543968028E+02  0.12744809870E+02  0.84911010783E+03  0.12353460747E+04  0.89689536086E+03 0.  0.
         23    2    4    4    0    0 -0.26088014286E+03  0.33671738135E+03  0.63061428326E+03  0.76635726834E+03  0.90509914592E+02 0.  0.
         23    2    4    4    0    0  0.23833617483E+03 -0.32397257148E+03  0.21849582457E+03  0.46898880634E+03  0.10221406856E+03 0.  0.
          2    1    3    3  502    0 -0.29100278940E+02 -0.23740392480E+02  0.67152204336E+03  0.67257139932E+03  0.00000000000E+00 0. -1.
         -2    1    3    3    0  502  0.51644246968E+02  0.10995582610E+02  0.50384163667E+03  0.50660085464E+03  0.00000000000E+00 0.  1.
         11    1    5    5    0    0 -0.80635143418E+02  0.10813556785E+03  0.27887528129E+03  0.30978500593E+03  0.00000000000E+00 0. -1.
        -11    1    5    5    0    0 -0.18024499944E+03  0.22858181351E+03  0.35173900197E+03  0.45657226241E+03  0.00000000000E+00 0.  1.
          1    1    6    6  503    0  0.39291590096E+02 -0.10242929395E+03  0.21186687546E+02  0.11173390283E+03  0.00000000000E+00 0. -1.
         -1    1    6    6    0  503  0.19904458473E+03 -0.22154327753E+03  0.19730913703E+03  0.35725490352E+03  0.00000000000E+00 0.  1.
<mgrwt>
<rscale>  0 0.13158285E+04</rscale>
<asrwt>0</asrwt>
<pdfrwt beam="1">  1        1 0.30003428E-01 0.13158285E+04</pdfrwt>
<pdfrwt beam="2">  1       -1 0.34146091E+00 0.13158285E+04</pdfrwt>
<totfact> 0.26908484E+00</totfact>
</mgrwt>
</event>
<event>
12    2  0.3555611E-008  0.1346941E+04  0.7818608E-02  0.8993147E-01
         -2   -1    0    0    0  501 -0.00000000000E+00  0.00000000000E+00  0.18564379892E+03  0.18564379892E+03  0.00000000000E+00 0.  1.
          2   -1    0    0  501    0  0.00000000000E+00 -0.00000000000E+00 -0.24431868826E+04  0.24431868826E+04  0.00000000000E+00 0. -1.
         23    2    1    2    0    0  0.15416255228E+03 -0.16976111842E+03 -0.11067000234E+04  0.11338231370E+04  0.90471179402E+02 0.  0.
        254    2    1    2    0    0 -0.15416255228E+03  0.16976111842E+03 -0.11508430603E+04  0.14950075446E+04  0.92629524398E+03 0.  0.
         23    2    4    4    0    0  0.21632336860E+03 -0.25011760003E+03 -0.23068530557E+03  0.41397747720E+03  0.93845765881E+02 0.  0.
         23    2    4    4    0    0 -0.37048592088E+03  0.41987871844E+03 -0.92015775471E+03  0.10810300674E+04  0.91530089041E+02 0.  0.
          1    1    3    3  502    0  0.14144274275E+03 -0.11714284671E+03 -0.70656557770E+03  0.73004343131E+03  0.00000000000E+00 0. -1.
         -1    1    3    3    0  502  0.12719809529E+02 -0.52618271712E+02 -0.40013444572E+03  0.40377970568E+03  0.00000000000E+00 0.  1.
         11    1    5    5    0    0  0.20707714922E+02  0.37534099552E+01 -0.27011470240E+02  0.34242036565E+02  0.00000000000E+00 0.  1.
        -11    1    5    5    0    0  0.19561565368E+03 -0.25387100998E+03 -0.20367383533E+03  0.37973544064E+03  0.00000000000E+00 0. -1.
          3    1    6    6  503    0 -0.24582711375E+03  0.30632902112E+03 -0.56787900949E+03  0.69047448067E+03  0.00000000000E+00 0. -1.
         -3    1    6    6    0  503 -0.12465880713E+03  0.11354969732E+03 -0.35227874523E+03  0.39055558669E+03  0.00000000000E+00 0.  1.
<mgrwt>
<rscale>  0 0.13469410E+04</rscale>
<asrwt>0</asrwt>
<pdfrwt beam="1">  1        2 0.37587488E+00 0.13469410E+04</pdfrwt>
<pdfrwt beam="2">  1       -2 0.28560587E-01 0.13469410E+04</pdfrwt>
<totfact> 0.41372716E+01</totfact>
</mgrwt>
</event>
<event>
12    2  0.3555611E-008  0.1295057E+04  0.7818608E-02  0.9033494E-01
          2   -1    0    0  501    0  0.00000000000E+00  0.00000000000E+00  0.10898126756E+04  0.10898126756E+04  0.00000000000E+00 0. -1.
         -2   -1    0    0    0  501 -0.00000000000E+00 -0.00000000000E+00 -0.38473872688E+03  0.38473872688E+03  0.00000000000E+00 0.  1.
         23    2    1    2    0    0 -0.18686735917E+03 -0.13832714236E+03 -0.70452809773E+02  0.25969689334E+03  0.91788178791E+02 0.  0.
        254    2    1    2    0    0  0.18686735917E+03  0.13832714236E+03  0.77552675847E+03  0.12148545091E+04  0.90574605545E+03 0.  0.
         23    2    4    4    0    0 -0.91808455273E+02  0.25857255950E+03 -0.81945613166E+02  0.30072191241E+03  0.91815162688E+02 0.  0.
         23    2    4    4    0    0  0.27867581444E+03 -0.12024541714E+03  0.85747237163E+03  0.91413259670E+03  0.90886557498E+02 0.  0.
          3    1    3    3  502    0 -0.57973463041E+02  0.31069666936E+01 -0.92334173619E+01  0.58786322008E+02  0.00000000000E+00 0. -1.
         -3    1    3    3    0  502 -0.12889389613E+03 -0.14143410906E+03 -0.61219392411E+02  0.20091057133E+03  0.00000000000E+00 0.  1.
         11    1    5    5    0    0 -0.94961667342E+02  0.26534345747E+03 -0.80689946630E+02  0.29314797658E+03  0.00000000000E+00 0.  1.
        -11    1    5    5    0    0  0.31532120692E+01 -0.67708979621E+01 -0.12556665354E+01  0.75739358338E+01  0.00000000000E+00 0. -1.
          1    1    6    6  503    0  0.46634939030E+02  0.48676431371E+01  0.75051807291E+02  0.88494549356E+02  0.00000000000E+00 0. -1.
         -1    1    6    6    0  503  0.23204087541E+03 -0.12511306028E+03  0.78242056434E+03  0.82563804734E+03  0.00000000000E+00 0.  1.
<mgrwt>
<rscale>  0 0.12950570E+04</rscale>
<asrwt>0</asrwt>
<pdfrwt beam="1">  1        2 0.16766349E+00 0.12950570E+04</pdfrwt>
<pdfrwt beam="2">  1       -2 0.59190574E-01 0.12950570E+04</pdfrwt>
<totfact> 0.57771892E+01</totfact>
</mgrwt>
</event>
<event>
12    2  0.3555611E-008  0.1323959E+04  0.7818608E-02  0.9010778E-01
         -1   -1    0    0    0  501 -0.00000000000E+00  0.00000000000E+00  0.68245461222E+03  0.68245461222E+03  0.00000000000E+00 0.  1.
          1   -1    0    0  501    0  0.00000000000E+00 -0.00000000000E+00 -0.64211899240E+03  0.64211899240E+03  0.00000000000E+00 0. -1.
         23    2    1    2    0    0  0.11921273072E+03 -0.20654273390E+02 -0.32347862027E+03  0.35714028625E+03  0.90953241352E+02 0.  0.
        254    2    1    2    0    0 -0.11921273072E+03  0.20654273390E+02  0.36381424009E+03  0.96743331837E+03  0.88821627435E+03 0.  0.
         23    2    4    4    0    0 -0.31944886008E+02  0.37221048897E+03 -0.71774327343E+02  0.39359648550E+03  0.10102235143E+03 0.  0.
         23    2    4    4    0    0 -0.87267844715E+02 -0.35155621558E+03  0.43558856743E+03  0.57383683287E+03  0.91344738437E+02 0.  0.
          4    1    3    3  502    0  0.12846833528E+03 -0.35371572871E+02 -0.29620843793E+03  0.32479947666E+03  0.00000000000E+00 0. -1.
         -4    1    3    3    0  502 -0.92556045604E+01  0.14717299481E+02 -0.27270182338E+02  0.32340809584E+02  0.00000000000E+00 0.  1.
         11    1    5    5    0    0 -0.21551831130E+02  0.24954378886E+03 -0.95799041238E+02  0.26816793299E+03  0.00000000000E+00 0. -1.
        -11    1    5    5    0    0 -0.10393054878E+02  0.12266670011E+03  0.24024713894E+02  0.12542855251E+03  0.00000000000E+00 0.  1.
          4    1    6    6  503    0 -0.62849094166E+02 -0.19585992228E+03  0.31132131686E+03  0.37313815153E+03  0.00000000000E+00 0. -1.
         -4    1    6    6    0  503 -0.24418750549E+02 -0.15569629330E+03  0.12426725057E+03  0.20069868134E+03  0.00000000000E+00 0.  1.
<mgrwt>
<rscale>  0 0.13239593E+04</rscale>
<asrwt>0</asrwt>
<pdfrwt beam="1">  1        1 0.98787537E-01 0.13239593E+04</pdfrwt>
<pdfrwt beam="2">  1       -1 0.10499302E+00 0.13239593E+04</pdfrwt>
<totfact> 0.25911132E+01</totfact>
</mgrwt>
</event>
<event>
12    2  0.3555611E-008  0.2597139E+04  0.7818608E-02  0.8369174E-01
         -2   -1    0    0    0  501 -0.00000000000E+00  0.00000000000E+00  0.16813249292E+04  0.16813249292E+04  0.00000000000E+00 0.  1.
          2   -1    0    0  501    0  0.00000000000E+00 -0.00000000000E+00 -0.10029487116E+04  0.10029487116E+04  0.00000000000E+00 0. -1.
         23    2    1    2    0    0 -0.91450289315E+03  0.64649969118E+02  0.98790499053E+03  0.13506899790E+04  0.88949362532E+02 0.  0.
        254    2    1    2    0    0  0.91450289315E+03 -0.64649969118E+02 -0.30952877292E+03  0.13335836618E+04  0.91768303988E+03 0.  0.
         23    2    4    4    0    0  0.10011852557E+04  0.15191637174E+03 -0.13017169574E+03  0.10249955024E+04  0.90667576354E+02 0.  0.
         23    2    4    4    0    0 -0.86682362570E+02 -0.21656634085E+03 -0.17935707718E+03  0.30858815936E+03  0.92967085512E+02 0.  0.
          2    1    3    3  502    0 -0.26867679024E+03  0.40832429802E+02  0.24350774411E+03  0.36489796708E+03  0.00000000000E+00 0. -1.
         -2    1    3    3    0  502 -0.64582610290E+03  0.23817539317E+02  0.74439724642E+03  0.98579201196E+03  0.00000000000E+00 0.  1.
         11    1    5    5    0    0  0.48323251944E+03  0.88304066671E+02 -0.19959200012E+02  0.49163975195E+03  0.00000000000E+00 0.  1.
        -11    1    5    5    0    0  0.51795273628E+03  0.63612305065E+02 -0.11021249573E+03  0.53335575050E+03  0.00000000000E+00 0. -1.
          2    1    6    6  503    0  0.43545443200E+01 -0.85880841295E+02 -0.95797662048E+02  0.12873101029E+03  0.00000000000E+00 0.  1.
         -2    1    6    6    0  503 -0.91036906890E+02 -0.13068549956E+03 -0.83559415132E+02  0.17985714906E+03  0.00000000000E+00 0. -1.
<mgrwt>
<rscale>  0 0.25971389E+04</rscale>
<asrwt>0</asrwt>
<pdfrwt beam="1">  1        2 0.15429980E+00 0.25971389E+04</pdfrwt>
<pdfrwt beam="2">  1       -2 0.25866537E+00 0.25971389E+04</pdfrwt>
<totfact> 0.12614013E+00</totfact>
</mgrwt>
</event>
<event>
12    2  0.3555611E-008  0.2095024E+04  0.7818608E-02  0.8563439E-01
         -2   -1    0    0    0  501 -0.00000000000E+00  0.00000000000E+00  0.29646229186E+03  0.29646229186E+03  0.00000000000E+00 0.  1.
          2   -1    0    0  501    0  0.00000000000E+00 -0.00000000000E+00 -0.37012494558E+04  0.37012494558E+04  0.00000000000E+00 0. -1.
         23    2    1    2    0    0 -0.43256305948E+03  0.17703886736E+03 -0.32932159625E+02  0.47617103366E+03  0.84857322495E+02 0.  0.
        254    2    1    2    0    0  0.43256305948E+03 -0.17703886736E+03 -0.33718550043E+04  0.35215407140E+04  0.90188096181E+03 0.  0.
         23    2    4    4    0    0  0.68849153457E+03 -0.12267242040E+02 -0.24601236370E+04  0.25562599117E+04  0.89918564480E+02 0.  0.
         23    2    4    4    0    0 -0.25592847509E+03 -0.16477162532E+03 -0.91173136732E+03  0.96528080234E+03  0.88678454818E+02 0.  0.
          3    1    3    3  502    0 -0.82533991837E+02  0.40120527267E+02  0.26793456379E+02  0.95600239652E+02  0.00000000000E+00 0. -1.
         -3    1    3    3    0  502 -0.35002906764E+03  0.13691834009E+03 -0.59725616004E+02  0.38057079401E+03  0.00000000000E+00 0.  1.
         11    1    5    5    0    0  0.41356199403E+03 -0.37794879740E+02 -0.15927119108E+04  0.16459626991E+04  0.00000000000E+00 0. -1.
        -11    1    5    5    0    0  0.27492954055E+03  0.25527637700E+02 -0.86741172619E+03  0.91029721261E+03  0.00000000000E+00 0.  1.
          4    1    6    6  503    0 -0.60575101369E+02 -0.49031509130E+02 -0.13331267359E+03  0.15442053210E+03  0.00000000000E+00 0. -1.
         -4    1    6    6    0  503 -0.19535337373E+03 -0.11574011619E+03 -0.77841869372E+03  0.81086027024E+03  0.00000000000E+00 0.  1.
<mgrwt>
<rscale>  0 0.20950235E+04</rscale>
<asrwt>0</asrwt>
<pdfrwt beam="1">  1        2 0.56942296E+00 0.20950235E+04</pdfrwt>
<pdfrwt beam="2">  1       -2 0.45609586E-01 0.20950235E+04</pdfrwt>
<totfact> 0.24628858E+00</totfact>
</mgrwt>
</event>
<event>
12    2  0.3555611E-008  0.2341765E+04  0.7818608E-02  0.8461634E-01
         -1   -1    0    0    0  501 -0.00000000000E+00  0.00000000000E+00  0.91773747446E+03  0.91773747446E+03  0.00000000000E+00 0.  1.
          1   -1    0    0  501    0  0.00000000000E+00 -0.00000000000E+00 -0.14938537294E+04  0.14938537294E+04  0.00000000000E+00 0. -1.
         23    2    1    2    0    0 -0.11317205379E+02  0.99052271134E+03 -0.15565587311E+03  0.10070956925E+04  0.93539628786E+02 0.  0.
        254    2    1    2    0    0  0.11317205379E+02 -0.99052271134E+03 -0.42046038181E+03  0.14044955114E+04  0.90252833083E+03 0.  0.
         23    2    4    4    0    0  0.29782697492E+03 -0.23341544369E+03  0.14219942956E+03  0.41442559522E+03  0.91346701403E+02 0.  0.
         23    2    4    4    0    0 -0.28650976954E+03 -0.75710726765E+03 -0.56265981137E+03  0.99006991615E+03  0.91395365059E+02 0.  0.
          1    1    3    3  502    0 -0.14614279980E+01  0.93285019697E+03 -0.12544623258E+03  0.94124831103E+03  0.00000000000E+00 0. -1.
         -1    1    3    3    0  502 -0.98557773807E+01  0.57672514372E+02 -0.30209640535E+02  0.65847381444E+02  0.00000000000E+00 0.  1.
         11    1    5    5    0    0  0.20357160422E+03 -0.10404337288E+03  0.72461210751E+02  0.23982712222E+03  0.00000000000E+00 0.  1.
        -11    1    5    5    0    0  0.94255370699E+02 -0.12937207081E+03  0.69738218810E+02  0.17459847300E+03  0.00000000000E+00 0. -1.
          3    1    6    6  503    0 -0.20174691342E+03 -0.40657378112E+03 -0.32250079270E+03  0.55678615092E+03  0.00000000000E+00 0. -1.
         -3    1    6    6    0  503 -0.84762856127E+02 -0.35053348653E+03 -0.24015901867E+03  0.43328376522E+03  0.00000000000E+00 0.  1.
<mgrwt>
<rscale>  0 0.23417648E+04</rscale>
<asrwt>0</asrwt>
<pdfrwt beam="1">  1        1 0.22982365E+00 0.23417648E+04</pdfrwt>
<pdfrwt beam="2">  1       -1 0.14119038E+00 0.23417648E+04</pdfrwt>
<totfact> 0.24392087E+00</totfact>
</mgrwt>
</event>
<event>
12    2  0.3555611E-008  0.1580502E+04  0.7818608E-02  0.8832617E-01
         -2   -1    0    0    0  501 -0.00000000000E+00  0.00000000000E+00  0.41929444287E+03  0.41929444287E+03  0.00000000000E+00 0.  1.
          2   -1    0    0  501    0  0.00000000000E+00 -0.00000000000E+00 -0.14893987577E+04  0.14893987577E+04  0.00000000000E+00 0. -1.
         23    2    1    2    0    0  0.22854101109E+03 -0.23293429555E+03 -0.84795587212E+03  0.91328274682E+03  0.92557197372E+02 0.  0.
        254    2    1    2    0    0 -0.22854101109E+03  0.23293429555E+03 -0.22214844275E+03  0.99541045378E+03  0.91378480021E+03 0.  0.
         23    2    4    4    0    0  0.25324322134E+03  0.23607857933E+03 -0.33842576620E+03  0.49128993693E+03  0.83478009857E+02 0.  0.
         23    2    4    4    0    0 -0.48178423244E+03 -0.31442837814E+01  0.11627732345E+03  0.50412051685E+03  0.92147416752E+02 0.  0.
          1    1    3    3  502    0  0.48632605684E+02 -0.10872221633E+02 -0.17962597925E+03  0.18641037514E+03  0.00000000000E+00 0. -1.
         -1    1    3    3    0  502  0.17990840541E+03 -0.22206207392E+03 -0.66832989286E+03  0.72687237168E+03  0.00000000000E+00 0.  1.
         11    1    5    5    0    0  0.12866930038E+03  0.66255938886E+02 -0.12183656572E+03  0.18918188878E+03  0.00000000000E+00 0. -1.
        -11    1    5    5    0    0  0.12457392096E+03  0.16982264044E+03 -0.21658920048E+03  0.30210804815E+03  0.00000000000E+00 0.  1.
          3    1    6    6  503    0 -0.43017320545E+02  0.19224375811E+02 -0.74289847699E+01  0.47699646822E+02  0.00000000000E+00 0. -1.
         -3    1    6    6    0  503 -0.43876691189E+03 -0.22368659592E+02  0.12370630822E+03  0.45642087003E+03  0.00000000000E+00 0.  1.
<mgrwt>
<rscale>  0 0.15805020E+04</rscale>
<asrwt>0</asrwt>
<pdfrwt beam="1">  1        2 0.22913827E+00 0.15805020E+04</pdfrwt>
<pdfrwt beam="2">  1       -2 0.64506837E-01 0.15805020E+04</pdfrwt>
<totfact> 0.27426867E+01</totfact>
</mgrwt>
</event>
<event>
12    2  0.3555611E-008  0.1577464E+04  0.7818608E-02  0.8834514E-01
         -1   -1    0    0    0  501 -0.00000000000E+00  0.00000000000E+00  0.15170551299E+04  0.15170551299E+04  0.00000000000E+00 0.  1.
          1   -1    0    0  501    0  0.00000000000E+00 -0.00000000000E+00 -0.41006953161E+03  0.41006953161E+03  0.00000000000E+00 0. -1.
         23    2    1    2    0    0 -0.94839676994E+02 -0.16287114414E+03 -0.21782481838E+03  0.30260059418E+03  0.92724830389E+02 0.  0.
        254    2    1    2    0    0  0.94839676994E+02  0.16287114414E+03  0.13248104167E+04  0.16245240673E+04  0.92110489702E+03 0.  0.
         23    2    4    4    0    0 -0.25130250705E+03 -0.26095079648E+03  0.41452710338E+03  0.55842609702E+03  0.93588023628E+02 0.  0.
         23    2    4    4    0    0  0.34614218404E+03  0.42382194062E+03  0.91028331329E+03  0.10660979703E+04  0.92248159545E+02 0.  0.
          2    1    3    3  502    0 -0.62194536208E+02 -0.36166575030E+02 -0.41580546907E+02  0.83097071937E+02  0.00000000000E+00 0.  1.
         -2    1    3    3    0  502 -0.32645140786E+02 -0.12670456911E+03 -0.17624427147E+03  0.21950352224E+03  0.00000000000E+00 0. -1.
         11    1    5    5    0    0 -0.66361581455E+02 -0.29505284353E+02  0.12264573696E+03  0.14253560289E+03  0.00000000000E+00 0.  1.
        -11    1    5    5    0    0 -0.18494092559E+03 -0.23144551212E+03  0.29188136642E+03  0.41589049412E+03  0.00000000000E+00 0. -1.
          3    1    6    6  503    0  0.11276003160E+03  0.20518908607E+03  0.41673374621E+03  0.47800041946E+03  0.00000000000E+00 0. -1.
         -3    1    6    6    0  503  0.23338215244E+03  0.21863285455E+03  0.49354956707E+03  0.58809755086E+03  0.00000000000E+00 0.  1.
<mgrwt>
<rscale>  0 0.15774639E+04</rscale>
<asrwt>0</asrwt>
<pdfrwt beam="1">  1        1 0.63087621E-01 0.15774639E+04</pdfrwt>
<pdfrwt beam="2">  1       -1 0.23339309E+00 0.15774639E+04</pdfrwt>
<totfact> 0.50009280E+00</totfact>
</mgrwt>
</event>
<event>
12    2  0.3555611E-008  0.1927663E+04  0.7818608E-02  0.8641208E-01
         -2   -1    0    0    0  501 -0.00000000000E+00  0.00000000000E+00  0.16040161499E+04  0.16040161499E+04  0.00000000000E+00 0.  1.
          2   -1    0    0  501    0  0.00000000000E+00 -0.00000000000E+00 -0.57915347482E+03  0.57915347482E+03  0.00000000000E+00 0. -1.
         23    2    1    2    0    0  0.60609154518E+02  0.69985046724E+03  0.67450057112E+03  0.97804935934E+03  0.90362507448E+02 0.  0.
        254    2    1    2    0    0 -0.60609154518E+02 -0.69985046724E+03  0.35036210394E+03  0.12051202654E+04  0.91438345566E+03 0.  0.
         23    2    4    4    0    0  0.76871724390E+01 -0.73401589626E+03 -0.93647887086E+02  0.74552064081E+03  0.90513372149E+02 0.  0.
         23    2    4    4    0    0 -0.68296326957E+02  0.34165429019E+02  0.44400999102E+03  0.45959962455E+03  0.90858560082E+02 0.  0.
          4    1    3    3  502    0  0.30996885844E+02  0.25162314926E+03  0.30340998502E+03  0.39538921986E+03  0.00000000000E+00 0. -1.
         -4    1    3    3    0  502  0.29612268674E+02  0.44822731798E+03  0.37109058610E+03  0.58266013947E+03  0.00000000000E+00 0.  1.
         11    1    5    5    0    0  0.10661639583E+02 -0.39688504125E+03 -0.55942653873E+01  0.39706762942E+03  0.00000000000E+00 0.  1.
        -11    1    5    5    0    0 -0.29744671437E+01 -0.33713085500E+03 -0.88053621699E+02  0.34845301139E+03  0.00000000000E+00 0. -1.
          1    1    6    6  503    0 -0.56979750547E+02  0.16783941946E+02  0.43109147764E+03  0.43516462951E+03  0.00000000000E+00 0. -1.
         -1    1    6    6    0  503 -0.11316576410E+02  0.17381487072E+02  0.12918513377E+02  0.24434995035E+02  0.00000000000E+00 0.  1.
<mgrwt>
<rscale>  0 0.19276634E+04</rscale>
<asrwt>0</asrwt>
<pdfrwt beam="1">  1        2 0.89100535E-01 0.19276634E+04</pdfrwt>
<pdfrwt beam="2">  1       -2 0.24677171E+00 0.19276634E+04</pdfrwt>
<totfact> 0.32531449E+00</totfact>
</mgrwt>
</event>
<event>
12    2  0.3555611E-008  0.1832804E+04  0.7818608E-02  0.8689047E-01
         -1   -1    0    0    0  501 -0.00000000000E+00  0.00000000000E+00  0.99484478385E+03  0.99484478385E+03  0.00000000000E+00 0.  1.
          1   -1    0    0  501    0  0.00000000000E+00 -0.00000000000E+00 -0.84414413692E+03  0.84414413692E+03  0.00000000000E+00 0. -1.
         23    2    1    2    0    0 -0.14602163066E+03 -0.18133236356E+03  0.69720637679E+03  0.74063237296E+03  0.90751514303E+02 0.  0.
        254    2    1    2    0    0  0.14602163066E+03  0.18133236356E+03 -0.54650572986E+03  0.10983565478E+04  0.92385867461E+03 0.  0.
         23    2    4    4    0    0 -0.38047222943E+03  0.14549061505E+03 -0.21471480574E+03  0.46882281270E+03  0.88123467211E+02 0.  0.
         23    2    4    4    0    0  0.52649386009E+03  0.35841748513E+02 -0.33179092412E+03  0.62953373511E+03  0.88017558868E+02 0.  0.
          1    1    3    3  502    0 -0.83828669521E+02 -0.60199813346E+02  0.19921991249E+03  0.22436540930E+03  0.00000000000E+00 0. -1.
         -1    1    3    3    0  502 -0.62192961138E+02 -0.12113255021E+03  0.49798646430E+03  0.51626696366E+03  0.00000000000E+00 0.  1.
         11    1    5    5    0    0 -0.25208029416E+03  0.11892001078E+03 -0.18455624236E+03  0.33428647932E+03  0.00000000000E+00 0. -1.
        -11    1    5    5    0    0 -0.12839193527E+03  0.26570604270E+02 -0.30158563387E+02  0.13453633338E+03  0.00000000000E+00 0.  1.
          2    1    6    6  503    0  0.18422909060E+03 -0.14821425869E+00 -0.69808140913E+02  0.19701156395E+03  0.00000000000E+00 0. -1.
         -2    1    6    6    0  503  0.34226476948E+03  0.35989962772E+02 -0.26198278320E+03  0.43252217116E+03  0.00000000000E+00 0.  1.
<mgrwt>
<rscale>  0 0.18328037E+04</rscale>
<asrwt>0</asrwt>
<pdfrwt beam="1">  1        1 0.12986833E+00 0.18328037E+04</pdfrwt>
<pdfrwt beam="2">  1       -1 0.15305304E+00 0.18328037E+04</pdfrwt>
<totfact> 0.62974258E+00</totfact>
</mgrwt>
</event>
<event>
12    2  0.3555611E-008  0.1410142E+04  0.7818608E-02  0.8946510E-01
         -2   -1    0    0    0  501 -0.00000000000E+00  0.00000000000E+00  0.22773406627E+03  0.22773406627E+03  0.00000000000E+00 0.  1.
          2   -1    0    0  501    0  0.00000000000E+00 -0.00000000000E+00 -0.21829196403E+04  0.21829196403E+04  0.00000000000E+00 0. -1.
         23    2    1    2    0    0  0.14947858224E+03 -0.12087764171E+02 -0.12248684276E+04  0.12372883726E+04  0.89943824595E+02 0.  0.
        254    2    1    2    0    0 -0.14947858224E+03  0.12087764171E+02 -0.73031714648E+03  0.11733653340E+04  0.90605359218E+03 0.  0.
         23    2    4    4    0    0 -0.15779617131E+03  0.36993807359E+03 -0.68664094694E+03  0.80096191830E+03  0.91161365627E+02 0.  0.
         23    2    4    4    0    0  0.83175890683E+01 -0.35785030942E+03 -0.43676199539E+02  0.37240341566E+03  0.93008963797E+02 0.  0.
          4    1    3    3  502    0  0.72762405217E+02 -0.69619974927E+01 -0.91907268058E+03  0.92197474435E+03  0.00000000000E+00 0. -1.
         -4    1    3    3    0  502  0.76716177028E+02 -0.51257666784E+01 -0.30579574699E+03  0.31531362828E+03  0.00000000000E+00 0.  1.
         11    1    5    5    0    0 -0.53389451430E+02  0.23911791096E+03 -0.40568498649E+03  0.47392838819E+03  0.00000000000E+00 0.  1.
        -11    1    5    5    0    0 -0.10440671988E+03  0.13082016263E+03 -0.28095596045E+03  0.32703353011E+03  0.00000000000E+00 0. -1.
          1    1    6    6  503    0  0.42244272511E+02 -0.92563672413E+02 -0.21846912684E+02  0.10406680357E+03  0.00000000000E+00 0. -1.
         -1    1    6    6    0  503 -0.33926683442E+02 -0.26528663701E+03 -0.21829286855E+02  0.26833661209E+03  0.00000000000E+00 0.  1.
<mgrwt>
<rscale>  0 0.14101421E+04</rscale>
<asrwt>0</asrwt>
<pdfrwt beam="1">  1        2 0.33583380E+00 0.14101421E+04</pdfrwt>
<pdfrwt beam="2">  1       -2 0.35036009E-01 0.14101421E+04</pdfrwt>
<totfact> 0.39313373E+01</totfact>
</mgrwt>
</event>
<event>
12    2  0.3555611E-008  0.1196467E+04  0.7818608E-02  0.9115955E-01
          2   -1    0    0  501    0  0.00000000000E+00  0.00000000000E+00  0.22610259988E+04  0.22610259988E+04  0.00000000000E+00 0.  1.
         -2   -1    0    0    0  501 -0.00000000000E+00 -0.00000000000E+00 -0.15828346185E+03  0.15828346185E+03  0.00000000000E+00 0. -1.
         23    2    1    2    0    0 -0.84966990919E+02  0.23135540068E+03  0.57016969484E+03  0.62772813418E+03  0.90578245518E+02 0.  0.
        254    2    1    2    0    0  0.84966990919E+02 -0.23135540068E+03  0.15325728421E+04  0.17915813265E+04  0.89456102197E+03 0.  0.
         23    2    4    4    0    0 -0.19724804187E+03  0.25484192942E+03  0.77246415561E+03  0.84176272278E+03  0.89512070455E+02 0.  0.
         23    2    4    4    0    0  0.28221503278E+03 -0.48619733010E+03  0.76010868648E+03  0.94981860367E+03  0.91416607330E+02 0.  0.
          2    1    3    3  502    0 -0.74528768476E+02  0.23650036098E+03  0.55930251365E+03  0.61180573702E+03  0.00000000000E+00 0. -1.
         -2    1    3    3    0  502 -0.10438222443E+02 -0.51449603070E+01  0.10867181189E+02  0.15922397160E+02  0.00000000000E+00 0.  1.
         11    1    5    5    0    0 -0.12628107917E+03  0.15345103509E+03  0.57845881126E+03  0.61164428180E+03  0.00000000000E+00 0. -1.
        -11    1    5    5    0    0 -0.70966962697E+02  0.10139089433E+03  0.19400534434E+03  0.23011844099E+03  0.00000000000E+00 0.  1.
          2    1    6    6  503    0  0.83777888428E+02 -0.19171411873E+03  0.22153279340E+03  0.30471267854E+03  0.00000000000E+00 0. -1.
         -2    1    6    6    0  503  0.19843714436E+03 -0.29448321137E+03  0.53857589308E+03  0.64510592514E+03  0.00000000000E+00 0.  1.
<mgrwt>
<rscale>  0 0.11964665E+04</rscale>
<asrwt>0</asrwt>
<pdfrwt beam="1">  1        2 0.34785013E+00 0.11964665E+04</pdfrwt>
<pdfrwt beam="2">  1       -2 0.24351303E-01 0.11964665E+04</pdfrwt>
<totfact> 0.71095477E+01</totfact>
</mgrwt>
</event>
<event>
12    2  0.3555611E-008  0.1409739E+04  0.7818608E-02  0.8946799E-01
         -1   -1    0    0    0  501 -0.00000000000E+00  0.00000000000E+00  0.10800463019E+04  0.10800463019E+04  0.00000000000E+00 0.  1.
          1   -1    0    0  501    0  0.00000000000E+00 -0.00000000000E+00 -0.46001807826E+03  0.46001807826E+03  0.00000000000E+00 0. -1.
         23    2    1    2    0    0  0.17645199017E+03 -0.32389724279E+03  0.39798564955E+03  0.55013423173E+03  0.90611075196E+02 0.  0.
        254    2    1    2    0    0 -0.17645199017E+03  0.32389724279E+03  0.22204257412E+03  0.98993014846E+03  0.89141127736E+03 0.  0.
         23    2    4    4    0    0 -0.98704107806E+02  0.23301422266E+03 -0.32629766046E+03  0.42137140402E+03  0.83937882056E+02 0.  0.
         23    2    4    4    0    0 -0.77747882361E+02  0.90883020129E+02  0.54834023458E+03  0.56855874444E+03  0.90981187416E+02 0.  0.
          4    1    3    3  502    0  0.95657323947E+02 -0.13641683182E+03  0.12040630306E+03  0.20556642101E+03  0.00000000000E+00 0. -1.
         -4    1    3    3    0  502  0.80794666220E+02 -0.18748041097E+03  0.27757934649E+03  0.34456781072E+03  0.00000000000E+00 0.  1.
         11    1    5    5    0    0 -0.95272714322E+02  0.24012519266E+03 -0.31229773571E+03  0.40529849984E+03  0.00000000000E+00 0. -1.
        -11    1    5    5    0    0 -0.34313934837E+01 -0.71109700032E+01 -0.13999924756E+02  0.16072904181E+02  0.00000000000E+00 0.  1.
          3    1    6    6  503    0 -0.93814526071E+02  0.65756137916E+02  0.48777534342E+03  0.50104872081E+03  0.00000000000E+00 0. -1.
         -3    1    6    6    0  503  0.16066643710E+02  0.25126882213E+02  0.60564891158E+02  0.67510023632E+02  0.00000000000E+00 0.  1.
<mgrwt>
<rscale>  0 0.14097387E+04</rscale>
<asrwt>0</asrwt>
<pdfrwt beam="1">  1        1 0.70772012E-01 0.14097387E+04</pdfrwt>
<pdfrwt beam="2">  1       -1 0.16616097E+00 0.14097387E+04</pdfrwt>
<totfact> 0.12718452E+01</totfact>
</mgrwt>
</event>
<event>
12    2  0.3555611E-008  0.1470557E+04  0.7818608E-02  0.8904272E-01
         -1   -1    0    0    0  501 -0.00000000000E+00  0.00000000000E+00  0.22904330216E+03  0.22904330216E+03  0.00000000000E+00 0.  1.
          1   -1    0    0  501    0  0.00000000000E+00 -0.00000000000E+00 -0.23604034542E+04  0.23604034542E+04  0.00000000000E+00 0. -1.
         23    2    1    2    0    0  0.17917778868E+01  0.32075451067E+03 -0.13118908618E+04  0.13537596497E+04  0.93385701744E+02 0.  0.
        254    2    1    2    0    0 -0.17917778868E+01 -0.32075451067E+03 -0.81946929023E+03  0.12356871066E+04  0.86747106080E+03 0.  0.
         23    2    4    4    0    0  0.39525255267E+03 -0.31599931648E+03 -0.40754086897E+03  0.65606023645E+03  0.90803775091E+02 0.  0.
         23    2    4    4    0    0 -0.39704433056E+03 -0.47551941959E+01 -0.41192842126E+03  0.57962687019E+03  0.92819567466E+02 0.  0.
          3    1    3    3  502    0 -0.91332573837E+01  0.20992684872E+03 -0.10183741182E+04  0.10398262080E+04  0.00000000000E+00 0. -1.
         -3    1    3    3    0  502  0.10925035271E+02  0.11082766195E+03 -0.29351674363E+03  0.31393344173E+03  0.00000000000E+00 0.  1.
         11    1    5    5    0    0  0.96946956488E+02 -0.82701455785E+02 -0.15600634045E+03  0.20143540260E+03  0.00000000000E+00 0.  1.
        -11    1    5    5    0    0  0.29830559618E+03 -0.23329786069E+03 -0.25153452852E+03  0.45462483385E+03  0.00000000000E+00 0. -1.
          3    1    6    6  503    0 -0.19119353873E+03  0.34382470033E+02 -0.23867932770E+03  0.30774168546E+03  0.00000000000E+00 0. -1.
         -3    1    6    6    0  503 -0.20585079183E+03 -0.39137664229E+02 -0.17324909356E+03  0.27188518473E+03  0.00000000000E+00 0.  1.
<mgrwt>
<rscale>  0 0.14705572E+04</rscale>
<asrwt>0</asrwt>
<pdfrwt beam="1">  1        1 0.36313899E+00 0.14705572E+04</pdfrwt>
<pdfrwt beam="2">  1       -1 0.35237431E-01 0.14705572E+04</pdfrwt>
<totfact> 0.12601408E+01</totfact>
</mgrwt>
</event>
<event>
12    2  0.3555611E-008  0.2292511E+04  0.7818608E-02  0.8480880E-01
          1   -1    0    0  501    0  0.00000000000E+00  0.00000000000E+00  0.16092506587E+04  0.16092506587E+04  0.00000000000E+00 0. -1.
         -1   -1    0    0    0  501 -0.00000000000E+00 -0.00000000000E+00 -0.81646790192E+03  0.81646790192E+03  0.00000000000E+00 0.  1.
         23    2    1    2    0    0  0.28320688191E+03 -0.16417651358E+03  0.13032925388E+04  0.13459081283E+04  0.75744191781E+02 0.  0.
        254    2    1    2    0    0 -0.28320688191E+03  0.16417651358E+03 -0.51050978197E+03  0.10798104324E+04  0.89342613952E+03 0.  0.
         23    2    4    4    0    0 -0.41895075764E+03  0.35617591127E+03 -0.56080525212E+02  0.56060374308E+03  0.93544183958E+02 0.  0.
         23    2    4    4    0    0  0.13574387573E+03 -0.19199939769E+03 -0.45442925676E+03  0.51920668929E+03  0.88201294143E+02 0.  0.
          4    1    3    3  502    0  0.15595024514E+03 -0.12165129785E+03  0.67135528855E+03  0.69988387658E+03  0.00000000000E+00 0. -1.
         -4    1    3    3    0  502  0.12725663677E+03 -0.42525215724E+02  0.63193725021E+03  0.64602425169E+03  0.00000000000E+00 0.  1.
         11    1    5    5    0    0 -0.11272431993E+03  0.13202511475E+03  0.15944871559E+02  0.17433198834E+03  0.00000000000E+00 0.  1.
        -11    1    5    5    0    0 -0.30622643771E+03  0.22415079651E+03 -0.72025396771E+02  0.38627175474E+03  0.00000000000E+00 0. -1.
          1    1    6    6  503    0  0.84360992781E+02 -0.17936189100E+03 -0.36072436708E+03  0.41159389458E+03  0.00000000000E+00 0. -1.
         -1    1    6    6    0  503  0.51382882950E+02 -0.12637506689E+02 -0.93704889678E+02  0.10761279471E+03  0.00000000000E+00 0.  1.
<mgrwt>
<rscale>  0 0.22925109E+04</rscale>
<asrwt>0</asrwt>
<pdfrwt beam="1">  1        1 0.24757703E+00 0.22925109E+04</pdfrwt>
<pdfrwt beam="2">  1       -1 0.12561045E+00 0.22925109E+04</pdfrwt>
<totfact> 0.27497332E+00</totfact>
</mgrwt>
</event>
<event>
12    2  0.3555611E-008  0.2401936E+04  0.7818608E-02  0.8438779E-01
          2   -1    0    0  501    0  0.00000000000E+00  0.00000000000E+00  0.29129540326E+04  0.29129540326E+04  0.00000000000E+00 0. -1.
         -2   -1    0    0    0  501 -0.00000000000E+00 -0.00000000000E+00 -0.49514119529E+03  0.49514119529E+03  0.00000000000E+00 0.  1.
         23    2    1    2    0    0 -0.51550293435E+03 -0.45585511998E+03 -0.43824358645E+02  0.69593315592E+03  0.94102164436E+02 0.  0.
        254    2    1    2    0    0  0.51550293435E+03  0.45585511998E+03  0.24616371959E+04  0.27121620719E+04  0.90698305080E+03 0.  0.
         23    2    4    4    0    0 -0.10374939116E+03  0.36958190718E+03  0.42799506178E+03  0.58263862904E+03  0.94516013731E+02 0.  0.
         23    2    4    4    0    0  0.61925232551E+03  0.86273212801E+02  0.20336421341E+04  0.21295234429E+04  0.90847423094E+02 0.  0.
          3    1    3    3  502    0 -0.10988538249E+03 -0.13010228937E+03 -0.43239537556E+02  0.17570162376E+03  0.00000000000E+00 0. -1.
         -3    1    3    3    0  502 -0.40561755187E+03 -0.32575283061E+03 -0.58482108858E+00  0.52023153216E+03  0.00000000000E+00 0.  1.
         11    1    5    5    0    0  0.41565910652E+01  0.22893421225E+02  0.26879628029E+01  0.23422449247E+02  0.00000000000E+00 0.  1.
        -11    1    5    5    0    0 -0.10790598223E+03  0.34668848596E+03  0.42530709898E+03  0.55921617979E+03  0.00000000000E+00 0. -1.
          2    1    6    6  503    0  0.59730364104E+03  0.10041637905E+03  0.19484214992E+04  0.20403924689E+04  0.00000000000E+00 0. -1.
         -2    1    6    6    0  503  0.21948684474E+02 -0.14143166250E+02  0.85220634950E+02  0.89130973982E+02  0.00000000000E+00 0.  1.
<mgrwt>
<rscale>  0 0.24019355E+04</rscale>
<asrwt>0</asrwt>
<pdfrwt beam="1">  1        2 0.44814677E+00 0.24019355E+04</pdfrwt>
<pdfrwt beam="2">  1       -2 0.76175570E-01 0.24019355E+04</pdfrwt>
<totfact> 0.27363606E+00</totfact>
</mgrwt>
</event>
<event>
12    2  0.3555611E-008  0.1444072E+04  0.7818608E-02  0.8922521E-01
         -2   -1    0    0    0  501 -0.00000000000E+00  0.00000000000E+00  0.44958776316E+03  0.44958776316E+03  0.00000000000E+00 0.  1.
          2   -1    0    0  501    0  0.00000000000E+00 -0.00000000000E+00 -0.11595859438E+04  0.11595859438E+04  0.00000000000E+00 0. -1.
         23    2    1    2    0    0  0.22377209765E+03  0.15626855393E+03  0.16835038166E+03  0.33428921321E+03  0.94411940099E+02 0.  0.
        254    2    1    2    0    0 -0.22377209765E+03 -0.15626855393E+03 -0.87834856229E+03  0.12748844937E+04  0.88280261830E+03 0.  0.
         23    2    4    4    0    0  0.26304209969E+03  0.89107188202E+02 -0.57456211652E+03  0.64427829646E+03  0.88553149847E+02 0.  0.
         23    2    4    4    0    0 -0.48681419734E+03 -0.24537574213E+03 -0.30378644577E+03  0.63060619729E+03  0.90446967146E+02 0.  0.
          2    1    3    3  502    0  0.17591273426E+03  0.15950550539E+03  0.15798558380E+03  0.28521350076E+03  0.00000000000E+00 0.  1.
         -2    1    3    3    0  502  0.47859363382E+02 -0.32369514608E+01  0.10364797855E+02  0.49075712452E+02  0.00000000000E+00 0. -1.
         11    1    5    5    0    0  0.13113690123E+03  0.75877194551E+02 -0.23336702644E+03  0.27823444170E+03  0.00000000000E+00 0.  1.
        -11    1    5    5    0    0  0.13190519846E+03  0.13229993650E+02 -0.34119509008E+03  0.36604385476E+03  0.00000000000E+00 0. -1.
          1    1    6    6  503    0 -0.76495828020E+02 -0.31037238550E+02 -0.12067946143E+02  0.83429953886E+02  0.00000000000E+00 0. -1.
         -1    1    6    6    0  503 -0.41031836932E+03 -0.21433850358E+03 -0.29171849963E+03  0.54717624340E+03  0.00000000000E+00 0.  1.
<mgrwt>
<rscale>  0 0.14440715E+04</rscale>
<asrwt>0</asrwt>
<pdfrwt beam="1">  1        2 0.17839784E+00 0.14440715E+04</pdfrwt>
<pdfrwt beam="2">  1       -2 0.69167347E-01 0.14440715E+04</pdfrwt>
<totfact> 0.37089420E+01</totfact>
</mgrwt>
</event>
<event>
12    2  0.3555611E-008  0.1489059E+04  0.7818608E-02  0.8891761E-01
          2   -1    0    0  501    0  0.00000000000E+00  0.00000000000E+00  0.77887500079E+03  0.77887500079E+03  0.00000000000E+00 0. -1.
         -2   -1    0    0    0  501 -0.00000000000E+00 -0.00000000000E+00 -0.71169858778E+03  0.71169858778E+03  0.00000000000E+00 0.  1.
         23    2    1    2    0    0  0.38962024450E+03  0.25834091773E+02 -0.47320422684E+02  0.40390780690E+03  0.91820252938E+02 0.  0.
        254    2    1    2    0    0 -0.38962024450E+03 -0.25834091773E+02  0.11449683569E+03  0.10866657817E+04  0.10076019355E+04 0.  0.
         23    2    4    4    0    0 -0.34007890307E+03  0.44869237704E+03 -0.52307640488E+02  0.57272118604E+03  0.91076660954E+02 0.  0.
         23    2    4    4    0    0 -0.49541341431E+02 -0.47452646881E+03  0.16680447618E+03  0.51394459564E+03  0.93196566448E+02 0.  0.
          3    1    3    3  502    0  0.11605816790E+03 -0.25574213226E+02  0.11541647260E+02  0.11940162621E+03  0.00000000000E+00 0. -1.
         -3    1    3    3    0  502  0.27356207659E+03  0.51408304999E+02 -0.58862069944E+02  0.28450618069E+03  0.00000000000E+00 0.  1.
         11    1    5    5    0    0 -0.14391323008E+02 -0.15029020153E+01  0.10878028340E+01  0.14510417202E+02  0.00000000000E+00 0. -1.
        -11    1    5    5    0    0 -0.32568758006E+03  0.45019527905E+03 -0.53395443322E+02  0.55821076884E+03  0.00000000000E+00 0.  1.
          1    1    6    6  503    0 -0.55471754856E+02 -0.20533410412E+03  0.40423238834E+02  0.21650230516E+03  0.00000000000E+00 0. -1.
         -1    1    6    6    0  503  0.59304134248E+01 -0.26919236469E+03  0.12638123735E+03  0.29744229047E+03  0.00000000000E+00 0.  1.
<mgrwt>
<rscale>  0 0.14890591E+04</rscale>
<asrwt>0</asrwt>
<pdfrwt beam="1">  1        2 0.11982692E+00 0.14890591E+04</pdfrwt>
<pdfrwt beam="2">  1       -2 0.10949209E+00 0.14890591E+04</pdfrwt>
<totfact> 0.22932904E+01</totfact>
</mgrwt>
</event>
<event>
12    2  0.3555611E-008  0.1480395E+04  0.7818608E-02  0.8897596E-01
          1   -1    0    0  501    0  0.00000000000E+00  0.00000000000E+00  0.77425240992E+03  0.77425240992E+03  0.00000000000E+00 0. -1.
         -1   -1    0    0    0  501 -0.00000000000E+00 -0.00000000000E+00 -0.70764041479E+03  0.70764041479E+03  0.00000000000E+00 0.  1.
         23    2    1    2    0    0  0.40248715067E+03  0.82517051815E+02 -0.20042014068E+03  0.46636950512E+03  0.92343447087E+02 0.  0.
        254    2    1    2    0    0 -0.40248715067E+03 -0.82517051815E+02  0.26703213581E+03  0.10155233196E+04  0.88948101767E+03 0.  0.
         23    2    4    4    0    0 -0.11518403979E+03 -0.37558310617E+03 -0.14372733962E+03  0.42761398452E+03  0.88691256262E+02 0.  0.
         23    2    4    4    0    0 -0.28730311088E+03  0.29306605436E+03  0.41075947543E+03  0.58790933507E+03  0.92104559455E+02 0.  0.
          2    1    3    3  502    0  0.58902292460E+01  0.14147169350E+01  0.88085537903E+01  0.10690502535E+02  0.00000000000E+00 0. -1.
         -2    1    3    3    0  502  0.39659692142E+03  0.81102334880E+02 -0.20922869447E+03  0.45567900258E+03  0.00000000000E+00 0.  1.
         11    1    5    5    0    0 -0.10311915079E+03 -0.18526330416E+03 -0.76795650210E+02  0.22550747886E+03  0.00000000000E+00 0. -1.
        -11    1    5    5    0    0 -0.12064889000E+02 -0.19031980201E+03 -0.66931689413E+02  0.20210650567E+03  0.00000000000E+00 0.  1.
          3    1    6    6  503    0 -0.93874097521E+02  0.15898745422E+03  0.16476373282E+03  0.24745998553E+03  0.00000000000E+00 0. -1.
         -3    1    6    6    0  503 -0.19342901335E+03  0.13407860014E+03  0.24599574261E+03  0.34044934955E+03  0.00000000000E+00 0.  1.
<mgrwt>
<rscale>  0 0.14803949E+04</rscale>
<asrwt>0</asrwt>
<pdfrwt beam="1">  1        1 0.11911576E+00 0.14803949E+04</pdfrwt>
<pdfrwt beam="2">  1       -1 0.10886776E+00 0.14803949E+04</pdfrwt>
<totfact> 0.17658505E+01</totfact>
</mgrwt>
</event>
<event>
12    2  0.3555611E-008  0.1384045E+04  0.7818608E-02  0.8965449E-01
          2   -1    0    0  501    0  0.00000000000E+00  0.00000000000E+00  0.16095688984E+04  0.16095688984E+04  0.00000000000E+00 0. -1.
         -2   -1    0    0    0  501 -0.00000000000E+00 -0.00000000000E+00 -0.29752995377E+03  0.29752995377E+03  0.00000000000E+00 0.  1.
         23    2    1    2    0    0 -0.13414889860E+03 -0.20783665606E+03 -0.45087788383E+02  0.26783925686E+03  0.92265682988E+02 0.  0.
        254    2    1    2    0    0  0.13414889860E+03  0.20783665606E+03  0.13571267330E+04  0.16392595953E+04  0.88554336356E+03 0.  0.
         23    2    4    4    0    0 -0.67324347703E+01 -0.16291110405E+03 -0.33832042539E+02  0.18995917142E+03  0.91403097341E+02 0.  0.
         23    2    4    4    0    0  0.14088133337E+03  0.37074776010E+03  0.13909587755E+04  0.14493004239E+04  0.91673069637E+02 0.  0.
          1    1    3    3  502    0 -0.10820860856E+03 -0.82915147321E+02 -0.27106274111E+02  0.13899199516E+03  0.00000000000E+00 0. -1.
         -1    1    3    3    0  502 -0.25940290041E+02 -0.12492150874E+03 -0.17981514272E+02  0.12884726170E+03  0.00000000000E+00 0.  1.
         11    1    5    5    0    0 -0.47019934182E+02 -0.82433138326E+02 -0.31285415123E+02  0.99924339899E+02  0.00000000000E+00 0.  1.
        -11    1    5    5    0    0  0.40287499412E+02 -0.80477965719E+02 -0.25466274161E+01  0.90034831517E+02  0.00000000000E+00 0. -1.
          1    1    6    6  503    0  0.78636880001E+01  0.12241987338E+03  0.34903555301E+03  0.36996524195E+03  0.00000000000E+00 0. -1.
         -1    1    6    6    0  503  0.13301764537E+03  0.24832788673E+03  0.10419232225E+04  0.10793351819E+04  0.00000000000E+00 0.  1.
<mgrwt>
<rscale>  0 0.13840447E+04</rscale>
<asrwt>0</asrwt>
<pdfrwt beam="1">  1        2 0.24762598E+00 0.13840447E+04</pdfrwt>
<pdfrwt beam="2">  1       -2 0.45773840E-01 0.13840447E+04</pdfrwt>
<totfact> 0.48565862E+01</totfact>
</mgrwt>
</event>
<event>
12    2  0.3555611E-008  0.1273055E+04  0.7818608E-02  0.9051210E-01
         -2   -1    0    0    0  501 -0.00000000000E+00  0.00000000000E+00  0.39619181948E+03  0.39619181948E+03  0.00000000000E+00 0.  1.
          2   -1    0    0  501    0  0.00000000000E+00 -0.00000000000E+00 -0.10226549955E+04  0.10226549955E+04  0.00000000000E+00 0. -1.
         23    2    1    2    0    0  0.15133367701E+03  0.20690848996E+03  0.36947659967E+02  0.27407121742E+03  0.89648745825E+02 0.  0.
        254    2    1    2    0    0 -0.15133367701E+03 -0.20690848996E+03 -0.66341083599E+03  0.11447755976E+04  0.89704193128E+03 0.  0.
         23    2    4    4    0    0 -0.49284737494E+02 -0.52998609254E+02 -0.85514834604E+03  0.86304544998E+03  0.91273857424E+02 0.  0.
         23    2    4    4    0    0 -0.10204893951E+03 -0.15390988071E+03  0.19173751005E+03  0.28173014759E+03  0.92229961874E+02 0.  0.
          3    1    3    3  502    0  0.34491901663E+02  0.31144072607E+02 -0.26737891003E+02  0.53614917273E+02  0.00000000000E+00 0. -1.
         -3    1    3    3    0  502  0.11684177534E+03  0.17576441735E+03  0.63685550970E+02  0.22045630015E+03  0.00000000000E+00 0.  1.
         11    1    5    5    0    0 -0.16568801614E+02 -0.11688892266E+02 -0.67609314560E+03  0.67639714437E+03  0.00000000000E+00 0. -1.
        -11    1    5    5    0    0 -0.32715935879E+02 -0.41309716988E+02 -0.17905520045E+03  0.18664830560E+03  0.00000000000E+00 0.  1.
          1    1    6    6  503    0 -0.13004224616E+02 -0.74534028369E+02  0.12199145911E+03  0.14354911124E+03  0.00000000000E+00 0. -1.
         -1    1    6    6    0  503 -0.89044714898E+02 -0.79375852336E+02  0.69746050948E+02  0.13818103636E+03  0.00000000000E+00 0.  1.
<mgrwt>
<rscale>  0 0.12730554E+04</rscale>
<asrwt>0</asrwt>
<pdfrwt beam="1">  1        2 0.15733154E+00 0.12730554E+04</pdfrwt>
<pdfrwt beam="2">  1       -2 0.60952588E-01 0.12730554E+04</pdfrwt>
<totfact> 0.59928010E+01</totfact>
</mgrwt>
</event>
<event>
12    2  0.3555611E-008  0.2174120E+04  0.7818608E-02  0.8529278E-01
          1   -1    0    0  501    0  0.00000000000E+00  0.00000000000E+00  0.25859309369E+04  0.25859309369E+04  0.00000000000E+00 0. -1.
         -1   -1    0    0    0  501 -0.00000000000E+00 -0.00000000000E+00 -0.45697259945E+03  0.45697259945E+03  0.00000000000E+00 0.  1.
         23    2    1    2    0    0 -0.76823469358E+03  0.57336133098E+02  0.15520410089E+04  0.17352154576E+04  0.93109691529E+02 0.  0.
        254    2    1    2    0    0  0.76823469358E+03 -0.57336133098E+02  0.57691732857E+03  0.13076880787E+04  0.88529234187E+03 0.  0.
         23    2    4    4    0    0  0.68644455440E+02 -0.20298904864E+02  0.59012207633E+03  0.60123215916E+03  0.90066294651E+02 0.  0.
         23    2    4    4    0    0  0.69959023814E+03 -0.37037228234E+02 -0.13204747762E+02  0.70645591954E+03  0.90040786892E+02 0.  0.
          2    1    3    3  502    0 -0.27127776747E+03  0.58199020910E+02  0.60984743108E+03  0.66999450920E+03  0.00000000000E+00 0. -1.
         -2    1    3    3    0  502 -0.49695692611E+03 -0.86288781216E+00  0.94219357777E+03  0.10652209484E+04  0.00000000000E+00 0.  1.
         11    1    5    5    0    0  0.70226543930E+02 -0.13068232252E+02  0.58949146231E+03  0.59380361257E+03  0.00000000000E+00 0.  1.
        -11    1    5    5    0    0 -0.15820884903E+01 -0.72306726125E+01  0.63061402579E+00  0.74285465920E+01  0.00000000000E+00 0. -1.
          1    1    6    6  503    0  0.37110434967E+03 -0.15472416402E+02  0.37759945814E+02  0.37334119451E+03  0.00000000000E+00 0. -1.
         -1    1    6    6    0  503  0.32848588848E+03 -0.21564811832E+02 -0.50964693577E+02  0.33311472502E+03  0.00000000000E+00 0.  1.
<mgrwt>
<rscale>  0 0.21741201E+04</rscale>
<asrwt>0</asrwt>
<pdfrwt beam="1">  1        1 0.39783552E+00 0.21741201E+04</pdfrwt>
<pdfrwt beam="2">  1       -1 0.70303478E-01 0.21741201E+04</pdfrwt>
<totfact> 0.22059404E+00</totfact>
</mgrwt>
</event>
<event>
12    2  0.3555611E-008  0.1773444E+04  0.7818608E-02  0.8720550E-01
          1   -1    0    0  501    0  0.00000000000E+00  0.00000000000E+00  0.12355617896E+04  0.12355617896E+04  0.00000000000E+00 0. -1.
         -1   -1    0    0    0  501 -0.00000000000E+00 -0.00000000000E+00 -0.63637124780E+03  0.63637124780E+03  0.00000000000E+00 0.  1.
         23    2    1    2    0    0  0.84035431120E+02 -0.49327022403E+03 -0.22198018290E+03  0.55480889373E+03  0.90334043230E+02 0.  0.
        254    2    1    2    0    0 -0.84035431120E+02  0.49327022403E+03  0.82117072465E+03  0.13171241436E+04  0.90006509937E+03 0.  0.
         23    2    4    4    0    0 -0.87386214267E+02 -0.24940843776E+03  0.18570843176E+03  0.33533623845E+03  0.90121317780E+02 0.  0.
         23    2    4    4    0    0  0.33507831467E+01  0.74267866179E+03  0.63546229289E+03  0.98178790518E+03  0.92262357650E+02 0.  0.
          2    1    3    3  502    0  0.60650302303E+02 -0.42995818843E+03 -0.15874992828E+03  0.46232460749E+03  0.00000000000E+00 0.  1.
         -2    1    3    3    0  502  0.23385128817E+02 -0.63312035601E+02 -0.63230254617E+02  0.92484286236E+02  0.00000000000E+00 0. -1.
         11    1    5    5    0    0 -0.58482133505E+02 -0.52553156217E+02  0.36761213895E+02  0.86795051787E+02  0.00000000000E+00 0.  1.
        -11    1    5    5    0    0 -0.28904080762E+02 -0.19685528154E+03  0.14894721787E+03  0.24854118666E+03  0.00000000000E+00 0. -1.
          1    1    6    6  503    0 -0.28232697336E+02  0.10478127435E+03  0.73414543157E+02  0.13101868493E+03  0.00000000000E+00 0. -1.
         -1    1    6    6    0  503  0.31583480482E+02  0.63789738744E+03  0.56204774974E+03  0.85076922025E+03  0.00000000000E+00 0.  1.
<mgrwt>
<rscale>  0 0.17734441E+04</rscale>
<asrwt>0</asrwt>
<pdfrwt beam="1">  1        1 0.19008643E+00 0.17734441E+04</pdfrwt>
<pdfrwt beam="2">  1       -1 0.97903269E-01 0.17734441E+04</pdfrwt>
<totfact> 0.95240939E+00</totfact>
</mgrwt>
</event>
<event>
12    2  0.3555611E-008  0.4881548E+04  0.7818608E-02  0.7847044E-01
         -1   -1    0    0    0  501 -0.00000000000E+00  0.00000000000E+00  0.25033442238E+04  0.25033442238E+04  0.00000000000E+00 0.  1.
          1   -1    0    0  501    0  0.00000000000E+00 -0.00000000000E+00 -0.23797679176E+04  0.23797679176E+04  0.00000000000E+00 0. -1.
         23    2    1    2    0    0 -0.22441372928E+04  0.66148268719E+03  0.33156590729E+03  0.23647399410E+04  0.91364671156E+02 0.  0.
        254    2    1    2    0    0  0.22441372928E+04 -0.66148268719E+03 -0.20798960107E+03  0.25183722004E+04  0.90842023936E+03 0.  0.
         23    2    4    4    0    0  0.15213457876E+04 -0.39004204663E+03  0.28366381753E+03  0.15985003353E+04  0.90068623993E+02 0.  0.
         23    2    4    4    0    0  0.72279150525E+03 -0.27144064056E+03 -0.49165341860E+03  0.91987186515E+03  0.91288459658E+02 0.  0.
          2    1    3    3  502    0 -0.91109322947E+03  0.29175892357E+03  0.96184036512E+02  0.96149129541E+03  0.00000000000E+00 0. -1.
         -2    1    3    3    0  502 -0.13330440633E+04  0.36972376362E+03  0.23538187078E+03  0.14032486456E+04  0.00000000000E+00 0.  1.
         11    1    5    5    0    0  0.14426464144E+04 -0.36292882171E+03  0.28770482009E+03  0.15151633807E+04  0.00000000000E+00 0.  1.
        -11    1    5    5    0    0  0.78699373108E+02 -0.27113224923E+02 -0.40410025622E+01  0.83336954558E+02  0.00000000000E+00 0. -1.
          1    1    6    6  503    0  0.11222001844E+03 -0.18147418960E+02 -0.45901017096E+02  0.12259512520E+03  0.00000000000E+00 0. -1.
         -1    1    6    6    0  503  0.61057148682E+03 -0.25329322160E+03 -0.44575240150E+03  0.79727673995E+03  0.00000000000E+00 0.  1.
<mgrwt>
<rscale>  0 0.48815482E+04</rscale>
<asrwt>0</asrwt>
<pdfrwt beam="1">  1        1 0.36611814E+00 0.48815482E+04</pdfrwt>
<pdfrwt beam="2">  1       -1 0.38512988E+00 0.48815482E+04</pdfrwt>
<totfact> 0.10800262E-02</totfact>
</mgrwt>
</event>
<event>
12    2  0.3555611E-008  0.1636891E+04  0.7818608E-02  0.8798200E-01
          2   -1    0    0  501    0  0.00000000000E+00  0.00000000000E+00  0.18948892029E+04  0.18948892029E+04  0.00000000000E+00 0. -1.
         -2   -1    0    0    0  501 -0.00000000000E+00 -0.00000000000E+00 -0.35350510202E+03  0.35350510202E+03  0.00000000000E+00 0.  1.
         23    2    1    2    0    0  0.53961672930E+03 -0.16799556149E+03  0.59162110164E+03  0.82290296049E+03  0.88005859254E+02 0.  0.
        254    2    1    2    0    0 -0.53961672930E+03  0.16799556149E+03  0.94976299923E+03  0.14254913444E+04  0.90031499770E+03 0.  0.
         23    2    4    4    0    0 -0.67308706907E+03 -0.94973395065E+02  0.86631894006E+03  0.11048433311E+04  0.90022952959E+02 0.  0.
         23    2    4    4    0    0  0.13347033977E+03  0.26296895656E+03  0.83444059175E+02  0.32064801332E+03  0.94261517712E+02 0.  0.
          1    1    3    3  502    0  0.47785461836E+03 -0.17509768229E+03  0.54075133118E+03  0.74257406150E+03  0.00000000000E+00 0. -1.
         -1    1    3    3    0  502  0.61762110937E+02  0.71021208032E+01  0.50869770454E+02  0.80328898992E+02  0.00000000000E+00 0.  1.
         11    1    5    5    0    0 -0.36253462055E+03 -0.73859784140E+01  0.43925727759E+03  0.56959008041E+03  0.00000000000E+00 0. -1.
        -11    1    5    5    0    0 -0.31055244851E+03 -0.87587416651E+02  0.42706166246E+03  0.53525325069E+03  0.00000000000E+00 0.  1.
          3    1    6    6  503    0  0.14356314894E+03  0.21690565581E+03  0.55948543685E+02  0.26606142298E+03  0.00000000000E+00 0. -1.
         -3    1    6    6    0  503 -0.10092809173E+02  0.46063300745E+02  0.27495515490E+02  0.54586590336E+02  0.00000000000E+00 0.  1.
<mgrwt>
<rscale>  0 0.16368910E+04</rscale>
<asrwt>0</asrwt>
<pdfrwt beam="1">  1        2 0.29152141E+00 0.16368910E+04</pdfrwt>
<pdfrwt beam="2">  1       -2 0.54385402E-01 0.16368910E+04</pdfrwt>
<totfact> 0.23260018E+01</totfact>
</mgrwt>
</event>
<event>
12    2  0.3555611E-008  0.1713768E+04  0.7818608E-02  0.8753550E-01
          2   -1    0    0  501    0  0.00000000000E+00  0.00000000000E+00  0.17966420238E+04  0.17966420238E+04  0.00000000000E+00 0. -1.
         -2   -1    0    0    0  501 -0.00000000000E+00 -0.00000000000E+00 -0.40867938923E+03  0.40867938923E+03  0.00000000000E+00 0.  1.
         23    2    1    2    0    0  0.18500329383E+03  0.48877004231E+03  0.91688926579E+03  0.10592856672E+04  0.90982559116E+02 0.  0.
        254    2    1    2    0    0 -0.18500329383E+03 -0.48877004231E+03  0.47107336877E+03  0.11460357458E+04  0.90463552821E+03 0.  0.
         23    2    4    4    0    0  0.23625600544E+03 -0.53981276939E+03  0.18021090745E+03  0.62249442614E+03  0.88366358466E+02 0.  0.
         23    2    4    4    0    0 -0.42125929927E+03  0.51042727077E+02  0.29086246132E+03  0.52354131966E+03  0.97107078939E+02 0.  0.
          2    1    3    3  502    0  0.18059378867E+03  0.41836967068E+03  0.74261761418E+03  0.87127964440E+03  0.00000000000E+00 0. -1.
         -2    1    3    3    0  502  0.44095051553E+01  0.70400371631E+02  0.17427165161E+03  0.18800602282E+03  0.00000000000E+00 0.  1.
         11    1    5    5    0    0  0.48262912485E+02 -0.47494242325E+02  0.33017611585E+02  0.75333753725E+02  0.00000000000E+00 0.  1.
        -11    1    5    5    0    0  0.18799309296E+03 -0.49231852706E+03  0.14719329586E+03  0.54716067241E+03  0.00000000000E+00 0. -1.
          4    1    6    6  503    0 -0.37522453300E+03  0.64169872573E+02  0.22524886620E+03  0.44232146052E+03  0.00000000000E+00 0. -1.
         -4    1    6    6    0  503 -0.46034766266E+02 -0.13127145496E+02  0.65613595125E+02  0.81219859143E+02  0.00000000000E+00 0.  1.
<mgrwt>
<rscale>  0 0.17137684E+04</rscale>
<asrwt>0</asrwt>
<pdfrwt beam="1">  1        2 0.27640646E+00 0.17137684E+04</pdfrwt>
<pdfrwt beam="2">  1       -2 0.62873753E-01 0.17137684E+04</pdfrwt>
<totfact> 0.19311004E+01</totfact>
</mgrwt>
</event>
<event>
12    2  0.3555611E-008  0.1178921E+04  0.7818608E-02  0.9131510E-01
         -1   -1    0    0    0  501 -0.00000000000E+00  0.00000000000E+00  0.35156985015E+03  0.35156985015E+03  0.00000000000E+00 0.  1.
          1   -1    0    0  501    0  0.00000000000E+00 -0.00000000000E+00 -0.98832004366E+03  0.98832004366E+03  0.00000000000E+00 0. -1.
         23    2    1    2    0    0 -0.57641345655E+02  0.14665258361E+03  0.63646881394E+02  0.19564375879E+03  0.96933223574E+02 0.  0.
        254    2    1    2    0    0  0.57641345655E+02 -0.14665258361E+03 -0.70039707490E+03  0.11442461350E+04  0.89101832191E+03 0.  0.
         23    2    4    4    0    0 -0.92207721329E+02  0.13764660080E+03 -0.77831233913E+03  0.80102727890E+03  0.91791904369E+02 0.  0.
         23    2    4    4    0    0  0.14984906698E+03 -0.28429918442E+03  0.77915264228E+02  0.34321885613E+03  0.91910965973E+02 0.  0.
          4    1    3    3  502    0 -0.51806479318E+02  0.10326937076E+03 -0.33846759950E+01  0.11558516457E+03  0.00000000000E+00 0. -1.
         -4    1    3    3    0  502 -0.58348663369E+01  0.43383212852E+02  0.67031557389E+02  0.80058594220E+02  0.00000000000E+00 0.  1.
         11    1    5    5    0    0 -0.53926792711E+02  0.99938800455E+01 -0.27163067670E+03  0.27711225368E+03  0.00000000000E+00 0. -1.
        -11    1    5    5    0    0 -0.38280928618E+02  0.12765272076E+03 -0.50668166243E+03  0.52391502522E+03  0.00000000000E+00 0.  1.
          4    1    6    6  503    0  0.52712138603E+02 -0.18869608085E+03  0.64516976516E+02  0.20626977661E+03  0.00000000000E+00 0.  1.
         -4    1    6    6    0  503  0.97136928381E+02 -0.95603103564E+02  0.13398287712E+02  0.13694907951E+03  0.00000000000E+00 0. -1.
<mgrwt>
<rscale>  0 0.11789207E+04</rscale>
<asrwt>0</asrwt>
<pdfrwt beam="1">  1        1 0.15204924E+00 0.11789207E+04</pdfrwt>
<pdfrwt beam="2">  1       -1 0.54087669E-01 0.11789207E+04</pdfrwt>
<totfact> 0.52856827E+01</totfact>
</mgrwt>
</event>
<event>
12    2  0.3555611E-008  0.2053892E+04  0.7818608E-02  0.8581831E-01
          2   -1    0    0  501    0  0.00000000000E+00  0.00000000000E+00  0.96528799612E+03  0.96528799612E+03  0.00000000000E+00 0. -1.
         -2   -1    0    0    0  501 -0.00000000000E+00 -0.00000000000E+00 -0.10925420537E+04  0.10925420537E+04  0.00000000000E+00 0.  1.
         23    2    1    2    0    0 -0.65733615573E+03  0.15735642083E+02 -0.58052014435E+03  0.88213853107E+03  0.93948485639E+02 0.  0.
        254    2    1    2    0    0  0.65733615573E+03 -0.15735642083E+02  0.45326608680E+03  0.11756915187E+04  0.86282209619E+03 0.  0.
         23    2    4    4    0    0  0.35750984941E+03 -0.17656524560E+03  0.65305138849E+03  0.77052377848E+03  0.90786556351E+02 0.  0.
         23    2    4    4    0    0  0.29982630632E+03  0.16082960352E+03 -0.19978530169E+03  0.40516774023E+03  0.92112733232E+02 0.  0.
          3    1    3    3  502    0 -0.65918119515E+02  0.30427440302E+02 -0.63491461540E+02  0.96447878630E+02  0.00000000000E+00 0. -1.
         -3    1    3    3    0  502 -0.59141803621E+03 -0.14691798219E+02 -0.51702868281E+03  0.78569065244E+03  0.00000000000E+00 0.  1.
         11    1    5    5    0    0  0.25329680141E+03 -0.16470539170E+03  0.51591222063E+03  0.59787336038E+03  0.00000000000E+00 0.  1.
        -11    1    5    5    0    0  0.10421304800E+03 -0.11859853906E+02  0.13713916786E+03  0.17265041810E+03  0.00000000000E+00 0. -1.
          1    1    6    6  503    0  0.21556615923E+02  0.27226707727E+02 -0.53000717539E+02  0.63364480297E+02  0.00000000000E+00 0. -1.
         -1    1    6    6    0  503  0.27826969039E+03  0.13360289579E+03 -0.14678458415E+03  0.34180325993E+03  0.00000000000E+00 0.  1.
<mgrwt>
<rscale>  0 0.20538917E+04</rscale>
<asrwt>0</asrwt>
<pdfrwt beam="1">  1        2 0.14850585E+00 0.20538917E+04</pdfrwt>
<pdfrwt beam="2">  1       -2 0.16808339E+00 0.20538917E+04</pdfrwt>
<totfact> 0.53966227E+00</totfact>
</mgrwt>
</event>
<event>
12    2  0.3555611E-008  0.1545966E+04  0.7818608E-02  0.8854449E-01
          4   -1    0    0  501    0  0.00000000000E+00  0.00000000000E+00  0.86619858407E+03  0.86619858407E+03  0.00000000000E+00 0. -1.
         -4   -1    0    0    0  501 -0.00000000000E+00 -0.00000000000E+00 -0.68979858086E+03  0.68979858086E+03  0.00000000000E+00 0.  1.
         23    2    1    2    0    0 -0.10585035252E+03  0.46110786612E+03 -0.12642492866E+03  0.49813137028E+03  0.91251510364E+02 0.  0.
        254    2    1    2    0    0  0.10585035252E+03 -0.46110786612E+03  0.30282493187E+03  0.10578657947E+04  0.89641080918E+03 0.  0.
         23    2    4    4    0    0  0.36324639663E+03 -0.49991783088E+03  0.42516123046E+03  0.75571045613E+03  0.92034989665E+02 0.  0.
         23    2    4    4    0    0 -0.25739604411E+03  0.38809964764E+02 -0.12233629859E+03  0.30215533852E+03  0.92589101714E+02 0.  0.
          2    1    3    3  502    0 -0.67495969190E+02  0.14882774921E+03 -0.73080933573E+02  0.17901460176E+03  0.00000000000E+00 0. -1.
         -2    1    3    3    0  502 -0.38354383331E+02  0.31228011691E+03 -0.53343995087E+02  0.31911676852E+03  0.00000000000E+00 0.  1.
         11    1    5    5    0    0  0.31503755593E+03 -0.45179107431E+03  0.34247213959E+03  0.64857613498E+03  0.00000000000E+00 0. -1.
        -11    1    5    5    0    0  0.48208840704E+02 -0.48126756570E+02  0.82689090861E+02  0.10713432115E+03  0.00000000000E+00 0.  1.
          2    1    6    6  503    0 -0.24052089697E+03  0.59542704230E+02 -0.12003161312E+03  0.27532385232E+03  0.00000000000E+00 0. -1.
         -2    1    6    6    0  503 -0.16875147140E+02 -0.20732739466E+02 -0.23046854637E+01  0.26831486202E+02  0.00000000000E+00 0.  1.
<mgrwt>
<rscale>  0 0.15459658E+04</rscale>
<asrwt>0</asrwt>
<pdfrwt beam="1">  1        4 0.13326132E+00 0.15459658E+04</pdfrwt>
<pdfrwt beam="2">  1       -4 0.10612286E+00 0.15459658E+04</pdfrwt>
<totfact> 0.55949547E-01</totfact>
</mgrwt>
</event>
<event>
12    2  0.3555611E-008  0.2784606E+04  0.7818608E-02  0.8308064E-01
          2   -1    0    0  501    0  0.00000000000E+00  0.00000000000E+00  0.16733572621E+04  0.16733572621E+04  0.00000000000E+00 0. -1.
         -2   -1    0    0    0  501 -0.00000000000E+00 -0.00000000000E+00 -0.11584538006E+04  0.11584538006E+04  0.00000000000E+00 0.  1.
         23    2    1    2    0    0  0.11042170903E+03  0.11037506499E+04 -0.33066166252E+03  0.11611279085E+04  0.91773818670E+02 0.  0.
        254    2    1    2    0    0 -0.11042170903E+03 -0.11037506499E+04  0.84556512407E+03  0.16706831542E+04  0.91964306759E+03 0.  0.
         23    2    4    4    0    0  0.52634813185E+01 -0.96801586899E+03  0.19737347117E+03  0.99228621823E+03  0.92699648936E+02 0.  0.
         23    2    4    4    0    0 -0.11568519035E+03 -0.13573478094E+03  0.64819165290E+03  0.67839693601E+03  0.90900989424E+02 0.  0.
          1    1    3    3  502    0  0.12112105258E+03  0.95590508557E+03 -0.26742369587E+03  0.99997013711E+03  0.00000000000E+00 0. -1.
         -1    1    3    3    0  502 -0.10699343556E+02  0.14784556436E+03 -0.63237966658E+02  0.16115777139E+03  0.00000000000E+00 0.  1.
         11    1    5    5    0    0  0.16859169469E+01 -0.39492138765E+03  0.12717879882E+03  0.41489780864E+03  0.00000000000E+00 0.  1.
        -11    1    5    5    0    0  0.35775643716E+01 -0.57309448134E+03  0.70194672353E+02  0.57738840960E+03  0.00000000000E+00 0. -1.
          4    1    6    6  503    0 -0.85042220959E+02 -0.33883658903E+02  0.35117756611E+03  0.36291316403E+03  0.00000000000E+00 0.  1.
         -4    1    6    6    0  503 -0.30642969387E+02 -0.10185112203E+03  0.29701408679E+03  0.31548377198E+03  0.00000000000E+00 0. -1.
<mgrwt>
<rscale>  0 0.27846056E+04</rscale>
<asrwt>0</asrwt>
<pdfrwt beam="1">  1        2 0.25743958E+00 0.27846056E+04</pdfrwt>
<pdfrwt beam="2">  1       -2 0.17822366E+00 0.27846056E+04</pdfrwt>
<totfact> 0.16495523E+00</totfact>
</mgrwt>
</event>
<event>
12    2  0.3555611E-008  0.1214921E+04  0.7818608E-02  0.9099896E-01
         -1   -1    0    0    0  501 -0.00000000000E+00  0.00000000000E+00  0.34170450539E+03  0.34170450539E+03  0.00000000000E+00 0. -1.
          1   -1    0    0  501    0  0.00000000000E+00 -0.00000000000E+00 -0.10799042120E+04  0.10799042120E+04  0.00000000000E+00 0.  1.
         23    2    1    2    0    0 -0.20820615076E+03 -0.42488473518E+00 -0.32534295380E+03  0.39991699617E+03  0.10361266572E+03 0.  0.
        254    2    1    2    0    0  0.20820615076E+03  0.42488473518E+00 -0.41285675278E+03  0.10216917212E+04  0.91107260582E+03 0.  0.
         23    2    4    4    0    0 -0.35765855491E+02  0.39566640336E+03 -0.36036795680E+03  0.54539074746E+03  0.98766917378E+02 0.  0.
         23    2    4    4    0    0  0.24397200625E+03 -0.39524151862E+03 -0.52488795984E+02  0.47630097372E+03  0.91484129695E+02 0.  0.
          4    1    3    3  502    0  0.68312398346E+01  0.12239016905E+02 -0.40070203738E+02  0.42450919897E+02  0.00000000000E+00 0. -1.
         -4    1    3    3    0  502 -0.21503739060E+03 -0.12663901640E+02 -0.28527275007E+03  0.35746607628E+03  0.00000000000E+00 0.  1.
         11    1    5    5    0    0  0.22515630402E+01  0.24079784289E+03 -0.27122136899E+03  0.36269781040E+03  0.00000000000E+00 0. -1.
        -11    1    5    5    0    0 -0.38017418531E+02  0.15486856047E+03 -0.89146587808E+02  0.18269293706E+03  0.00000000000E+00 0.  1.
          1    1    6    6  503    0  0.37798073027E+02 -0.14081858948E+03 -0.21199882267E+02  0.14733636508E+03  0.00000000000E+00 0. -1.
         -1    1    6    6    0  503  0.20617393322E+03 -0.25442292914E+03 -0.31288913717E+02  0.32896460864E+03  0.00000000000E+00 0.  1.
<mgrwt>
<rscale>  0 0.12149208E+04</rscale>
<asrwt>0</asrwt>
<pdfrwt beam="1">  1        1 0.16613911E+00 0.12149208E+04</pdfrwt>
<pdfrwt beam="2">  1       -1 0.52569923E-01 0.12149208E+04</pdfrwt>
<totfact> 0.47325570E+01</totfact>
</mgrwt>
</event>
<event>
12    2  0.3555611E-008  0.1508741E+04  0.7818608E-02  0.8878661E-01
         -3   -1    0    0    0  501 -0.00000000000E+00  0.00000000000E+00  0.78609818305E+03  0.78609818305E+03  0.00000000000E+00 0.  1.
          3   -1    0    0  501    0  0.00000000000E+00 -0.00000000000E+00 -0.72392293748E+03  0.72392293748E+03  0.00000000000E+00 0. -1.
         23    2    1    2    0    0  0.46212748634E+03  0.10741498243E+03  0.30930797896E+02  0.48451338693E+03  0.93256183615E+02 0.  0.
        254    2    1    2    0    0 -0.46212748634E+03 -0.10741498243E+03  0.31244447679E+02  0.10255077336E+04  0.90861988977E+03 0.  0.
         23    2    4    4    0    0 -0.31501393749E+03 -0.10047816342E+03  0.45419419016E+03  0.56792097124E+03  0.83139792248E+02 0.  0.
         23    2    4    4    0    0 -0.14711354884E+03 -0.69368190073E+01 -0.42294974249E+03  0.45758676236E+03  0.93854380315E+02 0.  0.
          3    1    3    3  502    0  0.43111426151E+02  0.94303423635E+01 -0.24763717982E+02  0.50604032944E+02  0.00000000000E+00 0. -1.
         -3    1    3    3    0  502  0.41901606018E+03  0.97984640068E+02  0.55694515878E+02  0.43390935399E+03  0.00000000000E+00 0.  1.
         11    1    5    5    0    0 -0.21207001366E+03 -0.47460366046E+02  0.35093663514E+03  0.41277439228E+03  0.00000000000E+00 0. -1.
        -11    1    5    5    0    0 -0.10294392384E+03 -0.53017797379E+02  0.10325755502E+03  0.15514657896E+03  0.00000000000E+00 0.  1.
          3    1    6    6  503    0 -0.12330390266E+03 -0.37981062913E+02 -0.26328493373E+03  0.29319851617E+03  0.00000000000E+00 0. -1.
         -3    1    6    6    0  503 -0.23809646176E+02  0.31044243905E+02 -0.15966480875E+03  0.16438824619E+03  0.00000000000E+00 0.  1.
<mgrwt>
<rscale>  0 0.15087405E+04</rscale>
<asrwt>0</asrwt>
<pdfrwt beam="1">  1        3 0.11137276E+00 0.15087405E+04</pdfrwt>
<pdfrwt beam="2">  1       -3 0.12093818E+00 0.15087405E+04</pdfrwt>
<totfact> 0.95120819E-01</totfact>
</mgrwt>
</event>
<event>
12    2  0.3555611E-008  0.1804063E+04  0.7818608E-02  0.8704142E-01
         -1   -1    0    0    0  501 -0.00000000000E+00  0.00000000000E+00  0.72934828803E+03  0.72934828803E+03  0.00000000000E+00 0.  1.
          1   -1    0    0  501    0  0.00000000000E+00 -0.00000000000E+00 -0.11156000847E+04  0.11156000847E+04  0.00000000000E+00 0. -1.
         23    2    1    2    0    0 -0.34026609737E+03 -0.34788878727E+03 -0.62545164452E+03  0.79644751171E+03  0.79569177174E+02 0.  0.
        254    2    1    2    0    0  0.34026609737E+03  0.34788878727E+03  0.23919984786E+03  0.10485008610E+04  0.89740172886E+03 0.  0.
         23    2    4    4    0    0  0.48266036878E+03 -0.25671302185E+02 -0.11678534322E+03  0.50535450015E+03  0.90134938181E+02 0.  0.
         23    2    4    4    0    0 -0.14239427141E+03  0.37356008945E+03  0.35598519109E+03  0.54314636084E+03  0.91974148883E+02 0.  0.
          2    1    3    3  502    0 -0.12420664009E+03 -0.11307741230E+03 -0.27716596406E+03  0.32409066979E+03  0.00000000000E+00 0.  1.
         -2    1    3    3    0  502 -0.21605945729E+03 -0.23481137496E+03 -0.34828568046E+03  0.47235684192E+03  0.00000000000E+00 0. -1.
         11    1    5    5    0    0  0.19127858102E+02  0.11192650327E+02 -0.21131933068E+02  0.30622034095E+02  0.00000000000E+00 0. -1.
        -11    1    5    5    0    0  0.46353251068E+03 -0.36863952511E+02 -0.95653410155E+02  0.47473246605E+03  0.00000000000E+00 0.  1.
          1    1    6    6  503    0 -0.44765127865E+01  0.13151587690E+03  0.11820838923E+03  0.17688891522E+03  0.00000000000E+00 0. -1.
         -1    1    6    6    0  503 -0.13791775862E+03  0.24204421255E+03  0.23777680186E+03  0.36625744563E+03  0.00000000000E+00 0.  1.
<mgrwt>
<rscale>  0 0.18040632E+04</rscale>
<asrwt>0</asrwt>
<pdfrwt beam="1">  1        1 0.17163078E+00 0.18040632E+04</pdfrwt>
<pdfrwt beam="2">  1       -1 0.11220743E+00 0.18040632E+04</pdfrwt>
<totfact> 0.84756583E+00</totfact>
</mgrwt>
</event>
<event>
12    2  0.3555611E-008  0.1713859E+04  0.7818608E-02  0.8753499E-01
         -2   -1    0    0    0  501 -0.00000000000E+00  0.00000000000E+00  0.53539247254E+03  0.53539247254E+03  0.00000000000E+00 0.  1.
          2   -1    0    0  501    0  0.00000000000E+00 -0.00000000000E+00 -0.13715701984E+04  0.13715701984E+04  0.00000000000E+00 0. -1.
         23    2    1    2    0    0 -0.41603247017E+03  0.15657530169E+03  0.14688045163E+03  0.47694296400E+03  0.91114666803E+02 0.  0.
        254    2    1    2    0    0  0.41603247017E+03 -0.15657530169E+03 -0.98305817750E+03  0.14300197069E+04  0.93859157282E+03 0.  0.
         23    2    4    4    0    0 -0.18163563599E+03 -0.34181653269E+03 -0.29418749472E+03  0.49500144928E+03  0.93005948521E+02 0.  0.
         23    2    4    4    0    0  0.59766810616E+03  0.18524123100E+03 -0.68887068278E+03  0.93501825766E+03  0.90525387529E+02 0.  0.
          4    1    3    3  502    0 -0.10636356261E+02  0.23183946301E+02  0.17685358484E+02  0.31038674993E+02  0.00000000000E+00 0. -1.
         -4    1    3    3    0  502 -0.40539611391E+03  0.13339135538E+03  0.12919509314E+03  0.44590428901E+03  0.00000000000E+00 0.  1.
         11    1    5    5    0    0 -0.97156521476E+01 -0.56419277255E+02 -0.81948493328E+02  0.99965415526E+02  0.00000000000E+00 0. -1.
        -11    1    5    5    0    0 -0.17191998384E+03 -0.28539725543E+03 -0.21223900139E+03  0.39503603376E+03  0.00000000000E+00 0.  1.
          1    1    6    6  503    0  0.14587484087E+03  0.74933598907E+01 -0.14165218367E+03  0.20347226046E+03  0.00000000000E+00 0. -1.
         -1    1    6    6    0  503  0.45179326529E+03  0.17774787111E+03 -0.54721849911E+03  0.73154599720E+03  0.00000000000E+00 0.  1.
<mgrwt>
<rscale>  0 0.17138592E+04</rscale>
<asrwt>0</asrwt>
<pdfrwt beam="1">  1        2 0.21101079E+00 0.17138592E+04</pdfrwt>
<pdfrwt beam="2">  1       -2 0.82368075E-01 0.17138592E+04</pdfrwt>
<totfact> 0.18483881E+01</totfact>
</mgrwt>
</event>
<event>
12    2  0.3555611E-008  0.1594268E+04  0.7818608E-02  0.8824077E-01
         -2   -1    0    0    0  501 -0.00000000000E+00  0.00000000000E+00  0.36006345288E+03  0.36006345288E+03  0.00000000000E+00 0.  1.
          2   -1    0    0  501    0  0.00000000000E+00 -0.00000000000E+00 -0.17647520951E+04  0.17647520951E+04  0.00000000000E+00 0. -1.
         23    2    1    2    0    0  0.37784135027E+03  0.38188637298E+03 -0.56025875911E+03  0.78167372286E+03  0.92318167287E+02 0.  0.
        254    2    1    2    0    0 -0.37784135027E+03 -0.38188637298E+03 -0.84442988314E+03  0.13431418252E+04  0.89574932157E+03 0.  0.
         23    2    4    4    0    0  0.24817074545E+03 -0.22009099473E+03 -0.11217863647E+03  0.36201043857E+03  0.91862649061E+02 0.  0.
         23    2    4    4    0    0 -0.62601209572E+03 -0.16179537825E+03 -0.73225124668E+03  0.98113138659E+03  0.91422213234E+02 0.  0.
          2    1    3    3  502    0  0.89763839366E+02  0.40863900259E+02 -0.10547715143E+03  0.14440510613E+03  0.00000000000E+00 0. -1.
         -2    1    3    3    0  502  0.28807751090E+03  0.34102247272E+03 -0.45478160768E+03  0.63726861673E+03  0.00000000000E+00 0.  1.
         11    1    5    5    0    0  0.17544423882E+03 -0.18744476744E+03 -0.51571710952E+02  0.26186993555E+03  0.00000000000E+00 0.  1.
        -11    1    5    5    0    0  0.72726506639E+02 -0.32646227285E+02 -0.60606925516E+02  0.10014050302E+03  0.00000000000E+00 0. -1.
          3    1    6    6  503    0 -0.12788566625E+03 -0.43545217607E+02 -0.10279955274E+03  0.16976064813E+03  0.00000000000E+00 0. -1.
         -3    1    6    6    0  503 -0.49812642947E+03 -0.11825016064E+03 -0.62945169393E+03  0.81137073846E+03  0.00000000000E+00 0.  1.
<mgrwt>
<rscale>  0 0.15942681E+04</rscale>
<asrwt>0</asrwt>
<pdfrwt beam="1">  1        2 0.27150032E+00 0.15942681E+04</pdfrwt>
<pdfrwt beam="2">  1       -2 0.55394377E-01 0.15942681E+04</pdfrwt>
<totfact> 0.26522825E+01</totfact>
</mgrwt>
</event>
<event>
12    2  0.3555611E-008  0.3220332E+04  0.7818608E-02  0.8183468E-01
          2   -1    0    0  501    0  0.00000000000E+00  0.00000000000E+00  0.23597176082E+04  0.23597176082E+04  0.00000000000E+00 0.  1.
         -2   -1    0    0    0  501 -0.00000000000E+00 -0.00000000000E+00 -0.10987051217E+04  0.10987051217E+04  0.00000000000E+00 0. -1.
         23    2    1    2    0    0 -0.13069584146E+04 -0.53325478486E+03  0.10718332135E+04  0.17746819643E+04  0.90380716437E+02 0.  0.
        254    2    1    2    0    0  0.13069584146E+04  0.53325478486E+03  0.18917927302E+03  0.16837407656E+04  0.89816101302E+03 0.  0.
         23    2    4    4    0    0  0.65786424537E+03  0.72886768713E+03  0.58796280743E+02  0.98717548006E+03  0.83815005323E+02 0.  0.
         23    2    4    4    0    0  0.64909416926E+03 -0.19561290227E+03  0.13038299227E+03  0.69656528555E+03  0.92821464461E+02 0.  0.
          3    1    3    3  502    0 -0.58738272886E+03 -0.27648916521E+03  0.52937290853E+03  0.83767559647E+03  0.00000000000E+00 0. -1.
         -3    1    3    3    0  502 -0.71957568577E+03 -0.25676561965E+03  0.54246030496E+03  0.93700636788E+03  0.00000000000E+00 0.  1.
         11    1    5    5    0    0  0.17353416902E+03  0.16684783764E+03 -0.17367773973E+02  0.24135854722E+03  0.00000000000E+00 0.  1.
        -11    1    5    5    0    0  0.48433007635E+03  0.56201984949E+03  0.76164054715E+02  0.74581693284E+03  0.00000000000E+00 0. -1.
          3    1    6    6  503    0  0.53361326738E+03 -0.17061768510E+03  0.72193582837E+02  0.56485876730E+03  0.00000000000E+00 0. -1.
         -3    1    6    6    0  503  0.11548090188E+03 -0.24995217172E+02  0.58189409437E+02  0.13170651826E+03  0.00000000000E+00 0.  1.
<mgrwt>
<rscale>  0 0.32203315E+04</rscale>
<asrwt>0</asrwt>
<pdfrwt beam="1">  1        2 0.36303348E+00 0.32203315E+04</pdfrwt>
<pdfrwt beam="2">  1       -2 0.16903156E+00 0.32203315E+04</pdfrwt>
<totfact> 0.76309965E-01</totfact>
</mgrwt>
</event>
<event>
12    2  0.3555611E-008  0.1156421E+04  0.7818608E-02  0.9151881E-01
          2   -1    0    0  501    0  0.00000000000E+00  0.00000000000E+00  0.65271852062E+03  0.65271852062E+03  0.00000000000E+00 0. -1.
         -2   -1    0    0    0  501 -0.00000000000E+00 -0.00000000000E+00 -0.51220733003E+03  0.51220733003E+03  0.00000000000E+00 0.  1.
         23    2    1    2    0    0  0.18738976487E+03 -0.90050274142E+02  0.82167108843E+02  0.24138073751E+03  0.91045322858E+02 0.  0.
        254    2    1    2    0    0 -0.18738976487E+03  0.90050274142E+02  0.58344081755E+02  0.92354511314E+03  0.89794630590E+03 0.  0.
         23    2    4    4    0    0  0.11954730385E+03 -0.30092427919E+03 -0.16041741413E+03  0.37268397306E+03  0.91173556238E+02 0.  0.
         23    2    4    4    0    0 -0.30693706871E+03  0.39097455333E+03  0.21876149588E+03  0.55086114009E+03  0.92303510637E+02 0.  0.
          1    1    3    3  502    0  0.12652921662E+03 -0.97418776929E+02  0.83210680380E+02  0.18006687115E+03  0.00000000000E+00 0. -1.
         -1    1    3    3    0  502  0.60860548243E+02  0.73685027870E+01 -0.10435715369E+01  0.61313866354E+02  0.00000000000E+00 0.  1.
         11    1    5    5    0    0  0.23500960707E+02 -0.38269243645E+01 -0.15848512187E+02  0.28602724394E+02  0.00000000000E+00 0.  1.
        -11    1    5    5    0    0  0.96046343140E+02 -0.29709735482E+03 -0.14456890194E+03  0.34408124866E+03  0.00000000000E+00 0. -1.
          4    1    6    6  503    0 -0.17404928687E+03  0.17800078237E+03  0.68141891496E+02  0.25810995750E+03  0.00000000000E+00 0. -1.
         -4    1    6    6    0  503 -0.13288778184E+03  0.21297377096E+03  0.15061960439E+03  0.29275118259E+03  0.00000000000E+00 0.  1.
<mgrwt>
<rscale>  0 0.11564207E+04</rscale>
<asrwt>0</asrwt>
<pdfrwt beam="1">  1        2 0.10041823E+00 0.11564207E+04</pdfrwt>
<pdfrwt beam="2">  1       -2 0.78801127E-01 0.11564207E+04</pdfrwt>
<totfact> 0.63327492E+01</totfact>
</mgrwt>
</event>
<event>
12    2  0.3555611E-008  0.1943043E+04  0.7818608E-02  0.8633723E-01
         -1   -1    0    0    0  501 -0.00000000000E+00  0.00000000000E+00  0.64145205174E+03  0.64145205174E+03  0.00000000000E+00 0.  1.
          1   -1    0    0  501    0  0.00000000000E+00 -0.00000000000E+00 -0.14714339351E+04  0.14714339351E+04  0.00000000000E+00 0. -1.
         23    2    1    2    0    0  0.16071385172E+03 -0.70920629356E+03 -0.56302984770E+03  0.92402620546E+03  0.89550600314E+02 0.  0.
        254    2    1    2    0    0 -0.16071385172E+03  0.70920629356E+03 -0.26695203565E+03  0.11888597814E+04  0.90184349057E+03 0.  0.
         23    2    4    4    0    0 -0.26820154683E+03  0.65445613294E+03  0.16445720087E+03  0.73176099099E+03  0.90460363437E+02 0.  0.
         23    2    4    4    0    0  0.10748769511E+03  0.54750160616E+02 -0.43140923652E+03  0.45709879038E+03  0.90962575429E+02 0.  0.
          4    1    3    3  502    0 -0.10856340752E+02 -0.67236126919E+02 -0.48600290416E+02  0.83669260342E+02  0.00000000000E+00 0. -1.
         -4    1    3    3    0  502  0.17157019247E+03 -0.64197016664E+03 -0.51442955729E+03  0.84035694512E+03  0.00000000000E+00 0.  1.
         11    1    5    5    0    0 -0.14702020845E+02  0.99345460767E+01  0.15003519014E+02  0.23236828645E+02  0.00000000000E+00 0. -1.
        -11    1    5    5    0    0 -0.25349952598E+03  0.64452158686E+03  0.14945368185E+03  0.70852416234E+03  0.00000000000E+00 0.  1.
          3    1    6    6  503    0  0.74446499545E+02  0.72285762478E+02 -0.23110656729E+03  0.25333329469E+03  0.00000000000E+00 0. -1.
         -3    1    6    6    0  503  0.33041195563E+02 -0.17535601861E+02 -0.20030266923E+03  0.20376549570E+03  0.00000000000E+00 0.  1.
<mgrwt>
<rscale>  0 0.19430433E+04</rscale>
<asrwt>0</asrwt>
<pdfrwt beam="1">  1        1 0.22637445E+00 0.19430433E+04</pdfrwt>
<pdfrwt beam="2">  1       -1 0.98684932E-01 0.19430433E+04</pdfrwt>
<totfact> 0.62707246E+00</totfact>
</mgrwt>
</event>
<event>
12    2  0.3555611E-008  0.3546657E+04  0.7818608E-02  0.8102821E-01
          1   -1    0    0  501    0  0.00000000000E+00  0.00000000000E+00  0.19251274367E+04  0.19251274367E+04  0.00000000000E+00 0. -1.
         -1   -1    0    0    0  501 -0.00000000000E+00 -0.00000000000E+00 -0.16334994436E+04  0.16334994436E+04  0.00000000000E+00 0.  1.
         23    2    1    2    0    0 -0.26028142451E+03  0.59732625540E+03  0.16645408784E+04  0.17898545671E+04  0.91312432273E+02 0.  0.
        254    2    1    2    0    0  0.26028142451E+03 -0.59732625540E+03 -0.13729128852E+04  0.17687723132E+04  0.90505283275E+03 0.  0.
         23    2    4    4    0    0 -0.19610967613E+03  0.12517201549E+03 -0.38834786672E+03  0.46189467808E+03  0.91682002168E+02 0.  0.
         23    2    4    4    0    0  0.45639110065E+03 -0.72249827089E+03 -0.98456501852E+03  0.13068776351E+04  0.90908136135E+02 0.  0.
          3    1    3    3  502    0 -0.24096581976E+03  0.46945634678E+03  0.12976076456E+04  0.14007995537E+04  0.00000000000E+00 0. -1.
         -3    1    3    3    0  502 -0.19315604756E+02  0.12786990861E+03  0.36693323283E+03  0.38905501342E+03  0.00000000000E+00 0.  1.
         11    1    5    5    0    0 -0.15889804542E+03  0.75476352043E+02 -0.34140784685E+03  0.38406325839E+03  0.00000000000E+00 0.  1.
        -11    1    5    5    0    0 -0.37211630716E+02  0.49695663450E+02 -0.46940019871E+02  0.77831419695E+02  0.00000000000E+00 0. -1.
          2    1    6    6  503    0  0.93506218726E+02 -0.10901378113E+03 -0.20825398249E+03  0.25297655749E+03  0.00000000000E+00 0. -1.
         -2    1    6    6    0  503  0.36288488192E+03 -0.61348448976E+03 -0.77631103603E+03  0.10539010776E+04  0.00000000000E+00 0.  1.
<mgrwt>
<rscale>  0 0.35466574E+04</rscale>
<asrwt>0</asrwt>
<pdfrwt beam="1">  1        1 0.29617345E+00 0.35466574E+04</pdfrwt>
<pdfrwt beam="2">  1       -1 0.25130761E+00 0.35466574E+04</pdfrwt>
<totfact> 0.18611492E-01</totfact>
</mgrwt>
</event>
<event>
12    2  0.3555611E-008  0.1390103E+04  0.7818608E-02  0.8961014E-01
          2   -1    0    0  501    0  0.00000000000E+00  0.00000000000E+00  0.32725007815E+04  0.32725007815E+04  0.00000000000E+00 0. -1.
         -2   -1    0    0    0  501 -0.00000000000E+00 -0.00000000000E+00 -0.14762297314E+03  0.14762297314E+03  0.00000000000E+00 0.  1.
         23    2    1    2    0    0 -0.36763087857E+02 -0.20719916490E+03  0.97468250933E+02  0.24930529737E+03  0.91487992622E+02 0.  0.
        254    2    1    2    0    0  0.36763087857E+02  0.20719916490E+03  0.30274095574E+04  0.31708184573E+04  0.91902015318E+03 0.  0.
         23    2    4    4    0    0 -0.41311434822E+02  0.53040255883E+03  0.23429484259E+04  0.24042962375E+04  0.90551433153E+02 0.  0.
         23    2    4    4    0    0  0.78074522678E+02 -0.32320339393E+03  0.68446113156E+03  0.76652221982E+03  0.92267046776E+02 0.  0.
          1    1    3    3  502    0  0.17455438077E+02 -0.12342381378E+03  0.28117893517E+02  0.12778398203E+03  0.00000000000E+00 0. -1.
         -1    1    3    3    0  502 -0.54218525934E+02 -0.83775351116E+02  0.69350357416E+02  0.12152131534E+03  0.00000000000E+00 0.  1.
         11    1    5    5    0    0 -0.32776133423E+02  0.47103728136E+03  0.19248362962E+04  0.19819044282E+04  0.00000000000E+00 0.  1.
        -11    1    5    5    0    0 -0.85353013987E+01  0.59365277472E+02  0.41811212971E+03  0.42239180929E+03  0.00000000000E+00 0. -1.
          2    1    6    6  503    0 -0.20860374809E+02 -0.75510035822E+02  0.15705835055E+03  0.17551138488E+03  0.00000000000E+00 0. -1.
         -2    1    6    6    0  503  0.98934897487E+02 -0.24769335811E+03  0.52740278101E+03  0.59101083494E+03  0.00000000000E+00 0.  1.
<mgrwt>
<rscale>  0 0.13901026E+04</rscale>
<asrwt>0</asrwt>
<pdfrwt beam="1">  1        2 0.50346161E+00 0.13901026E+04</pdfrwt>
<pdfrwt beam="2">  1       -2 0.22711229E-01 0.13901026E+04</pdfrwt>
<totfact> 0.19564612E+01</totfact>
</mgrwt>
</event>
<event>
12    2  0.3555611E-008  0.1391724E+04  0.7818608E-02  0.8959831E-01
          1   -1    0    0  501    0  0.00000000000E+00  0.00000000000E+00  0.71263048480E+03  0.71263048480E+03  0.00000000000E+00 0. -1.
         -1   -1    0    0    0  501 -0.00000000000E+00 -0.00000000000E+00 -0.67948761612E+03  0.67948761612E+03  0.00000000000E+00 0.  1.
         23    2    1    2    0    0  0.27709173267E+03  0.12315720386E+03 -0.25352354234E+03  0.40545692862E+03  0.90408015550E+02 0.  0.
        254    2    1    2    0    0 -0.27709173267E+03 -0.12315720386E+03  0.28666641102E+03  0.98666117229E+03  0.89407780005E+03 0.  0.
         23    2    4    4    0    0  0.47061214158E+02 -0.45399894219E+03  0.80909417183E+02  0.47175562892E+03  0.87619873587E+02 0.  0.
         23    2    4    4    0    0 -0.32415294683E+03  0.33084173833E+03  0.20575699383E+03  0.51490554337E+03  0.90886683984E+02 0.  0.
          2    1    3    3  502    0  0.32593915954E+02  0.40348199125E+02 -0.15013237894E+02  0.53997572556E+02  0.00000000000E+00 0. -1.
         -2    1    3    3    0  502  0.24449781671E+03  0.82809004730E+02 -0.23851030444E+03  0.35145935607E+03  0.00000000000E+00 0.  1.
         11    1    5    5    0    0  0.64162456506E+02 -0.37476269939E+03  0.44220042719E+02  0.38277841352E+03  0.00000000000E+00 0. -1.
        -11    1    5    5    0    0 -0.17101242348E+02 -0.79236242798E+02  0.36689374464E+02  0.88977215405E+02  0.00000000000E+00 0.  1.
          3    1    6    6  503    0 -0.56642991086E+01  0.40666728254E+02  0.15048785461E+02  0.43730229992E+02  0.00000000000E+00 0.  1.
         -3    1    6    6    0  503 -0.31848864772E+03  0.29017501008E+03  0.19070820837E+03  0.47117531338E+03  0.00000000000E+00 0. -1.
<mgrwt>
<rscale>  0 0.13917235E+04</rscale>
<asrwt>0</asrwt>
<pdfrwt beam="1">  1        1 0.10963546E+00 0.13917235E+04</pdfrwt>
<pdfrwt beam="2">  1       -1 0.10453656E+00 0.13917235E+04</pdfrwt>
<totfact> 0.22258552E+01</totfact>
</mgrwt>
</event>
<event>
12    2  0.3555611E-008  0.1233538E+04  0.7818608E-02  0.9083997E-01
          2   -1    0    0  501    0  0.00000000000E+00  0.00000000000E+00  0.27210287943E+04  0.27210287943E+04  0.00000000000E+00 0. -1.
         -2   -1    0    0    0  501 -0.00000000000E+00 -0.00000000000E+00 -0.13980162248E+03  0.13980162248E+03  0.00000000000E+00 0.  1.
         23    2    1    2    0    0 -0.15859135263E+03 -0.17423696073E+03  0.26697728563E+03  0.36809312186E+03  0.93305625262E+02 0.  0.
        254    2    1    2    0    0  0.15859135263E+03  0.17423696073E+03  0.23142498862E+04  0.24927372949E+04  0.89581077805E+03 0.  0.
         23    2    4    4    0    0 -0.13268957978E+03 -0.21669227051E+03  0.16036756154E+04  0.16261444190E+04  0.89488141186E+02 0.  0.
         23    2    4    4    0    0  0.29128093241E+03  0.39092923125E+03  0.71057427080E+03  0.86659287589E+03  0.91636088940E+02 0.  0.
          4    1    3    3  502    0 -0.38321333238E+02 -0.24353189244E+02  0.11320540485E+03  0.12197157905E+03  0.00000000000E+00 0.  1.
         -4    1    3    3    0  502 -0.12027001939E+03 -0.14988377149E+03  0.15377188078E+03  0.24612154282E+03  0.00000000000E+00 0. -1.
         11    1    5    5    0    0 -0.19468158354E+02  0.36882538092E+01  0.77751736269E+02  0.80236805137E+02  0.00000000000E+00 0.  1.
        -11    1    5    5    0    0 -0.11322142143E+03 -0.22038052432E+03  0.15259238791E+04  0.15459076139E+04  0.00000000000E+00 0. -1.
          1    1    6    6  503    0  0.18366585246E+03  0.25180533261E+03  0.52766052375E+03  0.61283333723E+03  0.00000000000E+00 0. -1.
         -1    1    6    6    0  503  0.10761507995E+03  0.13912389863E+03  0.18291374705E+03  0.25375953867E+03  0.00000000000E+00 0.  1.
<mgrwt>
<rscale>  0 0.12335384E+04</rscale>
<asrwt>0</asrwt>
<pdfrwt beam="1">  1        2 0.41861978E+00 0.12335384E+04</pdfrwt>
<pdfrwt beam="2">  1       -2 0.21507944E-01 0.12335384E+04</pdfrwt>
<totfact> 0.48166671E+01</totfact>
</mgrwt>
</event>
<event>
12    2  0.3555611E-008  0.1147847E+04  0.7818608E-02  0.9159772E-01
          2   -1    0    0  501    0  0.00000000000E+00  0.00000000000E+00  0.77445383002E+03  0.77445383002E+03  0.00000000000E+00 0. -1.
         -2   -1    0    0    0  501 -0.00000000000E+00 -0.00000000000E+00 -0.42531671812E+03  0.42531671812E+03  0.00000000000E+00 0.  1.
         23    2    1    2    0    0  0.13611299943E+03 -0.19716237169E+02 -0.88253283242E+02  0.18695773698E+03  0.90824417370E+02 0.  0.
        254    2    1    2    0    0 -0.13611299943E+03  0.19716237169E+02  0.43739039514E+03  0.10128128112E+04  0.90308579552E+03 0.  0.
         23    2    4    4    0    0 -0.21399598401E+03 -0.10771622398E+02 -0.23409180519E+03  0.33003354889E+03  0.90624837185E+02 0.  0.
         23    2    4    4    0    0  0.77882984581E+02  0.30487859568E+02  0.67148220033E+03  0.68277926227E+03  0.91125774416E+02 0.  0.
          3    1    3    3  502    0 -0.11001749926E+02 -0.93398473867E+00  0.46203558361E+01  0.11969065000E+02  0.00000000000E+00 0. -1.
         -3    1    3    3    0  502  0.14711474936E+03 -0.18782252431E+02 -0.92873639078E+02  0.17498867198E+03  0.00000000000E+00 0.  1.
         11    1    5    5    0    0 -0.11873793041E+03  0.37279362082E+02 -0.10726924375E+03  0.16430197080E+03  0.00000000000E+00 0. -1.
        -11    1    5    5    0    0 -0.95258053605E+02 -0.48050984480E+02 -0.12682256144E+03  0.16573157809E+03  0.00000000000E+00 0.  1.
          2    1    6    6  503    0  0.65567433246E+02  0.39881122333E+02  0.65734179531E+03  0.66180648839E+03  0.00000000000E+00 0. -1.
         -2    1    6    6    0  503  0.12315551335E+02 -0.93932627655E+01  0.14140405024E+02  0.20972773882E+02  0.00000000000E+00 0.  1.
<mgrwt>
<rscale>  0 0.11478470E+04</rscale>
<asrwt>0</asrwt>
<pdfrwt beam="1">  1        2 0.11914674E+00 0.11478470E+04</pdfrwt>
<pdfrwt beam="2">  1       -2 0.65433341E-01 0.11478470E+04</pdfrwt>
<totfact> 0.76649157E+01</totfact>
</mgrwt>
</event>
<event>
12    2  0.3555611E-008  0.1335928E+04  0.7818608E-02  0.9001549E-01
          1   -1    0    0  501    0  0.00000000000E+00  0.00000000000E+00  0.49407615373E+03  0.49407615373E+03  0.00000000000E+00 0. -1.
         -1   -1    0    0    0  501 -0.00000000000E+00 -0.00000000000E+00 -0.90305059885E+03  0.90305059885E+03  0.00000000000E+00 0.  1.
         23    2    1    2    0    0  0.24933860774E+03  0.16084190868E+03 -0.31840592047E+03  0.44479995292E+03  0.91786747577E+02 0.  0.
        254    2    1    2    0    0 -0.24933860774E+03 -0.16084190868E+03 -0.90568524644E+02  0.95232679966E+03  0.90037981696E+03 0.  0.
         23    2    4    4    0    0 -0.37110605676E+03  0.63848787035E+02  0.29112664399E+03  0.48449332132E+03  0.90458181449E+02 0.  0.
         23    2    4    4    0    0  0.12176744902E+03 -0.22469069571E+03 -0.38169516864E+03  0.46783347834E+03  0.88677738532E+02 0.  0.
          4    1    3    3  502    0  0.58356647222E+02  0.76706092309E+01 -0.28634262216E+02  0.65454239692E+02  0.00000000000E+00 0. -1.
         -4    1    3    3    0  502  0.19098196051E+03  0.15317129945E+03 -0.28977165826E+03  0.37934571323E+03  0.00000000000E+00 0.  1.
         11    1    5    5    0    0 -0.13571209969E+03  0.16120849031E+02  0.16148938314E+03  0.21155726564E+03  0.00000000000E+00 0.  1.
        -11    1    5    5    0    0 -0.23539395707E+03  0.47727938004E+02  0.12963726085E+03  0.27293605568E+03  0.00000000000E+00 0. -1.
          1    1    6    6  503    0  0.10212502345E+03 -0.14155917855E+03 -0.19023327289E+03  0.25818059486E+03  0.00000000000E+00 0. -1.
         -1    1    6    6    0  503  0.19642425572E+02 -0.83131517160E+02 -0.19146189574E+03  0.20965288348E+03  0.00000000000E+00 0.  1.
<mgrwt>
<rscale>  0 0.13359278E+04</rscale>
<asrwt>0</asrwt>
<pdfrwt beam="1">  1        1 0.76011716E-01 0.13359278E+04</pdfrwt>
<pdfrwt beam="2">  1       -1 0.13893086E+00 0.13359278E+04</pdfrwt>
<totfact> 0.18884803E+01</totfact>
</mgrwt>
</event>
<event>
12    2  0.3555611E-008  0.2378823E+04  0.7818608E-02  0.8447475E-01
          2   -1    0    0  501    0  0.00000000000E+00  0.00000000000E+00  0.23341210374E+04  0.23341210374E+04  0.00000000000E+00 0. -1.
         -2   -1    0    0    0  501 -0.00000000000E+00 -0.00000000000E+00 -0.60609528561E+03  0.60609528561E+03  0.00000000000E+00 0.  1.
         23    2    1    2    0    0 -0.58181962894E+03  0.27446729610E+03  0.17079327233E+04  0.18275676182E+04  0.95513530618E+02 0.  0.
        254    2    1    2    0    0  0.58181962894E+03 -0.27446729610E+03  0.20093028507E+02  0.11126487048E+04  0.90759959966E+03 0.  0.
         23    2    4    4    0    0  0.75213005968E+03 -0.42146919484E+03 -0.18043320905E+02  0.86724827309E+03  0.91967912162E+02 0.  0.
         23    2    4    4    0    0 -0.17031043074E+03  0.14700189874E+03  0.38136349412E+02  0.24540043174E+03  0.90287262118E+02 0.  0.
          4    1    3    3  502    0 -0.28191279261E+03  0.13164258407E+03  0.69254607943E+03  0.75922635934E+03  0.00000000000E+00 0. -1.
         -4    1    3    3    0  502 -0.29990683633E+03  0.14282471203E+03  0.10153866438E+04  0.10683412588E+04  0.00000000000E+00 0.  1.
         11    1    5    5    0    0  0.22815296227E+03 -0.17435889234E+03 -0.21014252838E+02  0.28791734292E+03  0.00000000000E+00 0. -1.
        -11    1    5    5    0    0  0.52397709741E+03 -0.24711030250E+03  0.29709319327E+01  0.57933093017E+03  0.00000000000E+00 0.  1.
          3    1    6    6  503    0  0.90334870415E+01  0.15813654020E+02 -0.53493724386E+01  0.18981341551E+02  0.00000000000E+00 0. -1.
         -3    1    6    6    0  503 -0.17934391778E+03  0.13118824472E+03  0.43485721851E+02  0.22641909019E+03  0.00000000000E+00 0.  1.
<mgrwt>
<rscale>  0 0.23788230E+04</rscale>
<asrwt>0</asrwt>
<pdfrwt beam="1">  1        2 0.35909554E+00 0.23788230E+04</pdfrwt>
<pdfrwt beam="2">  1       -2 0.93245430E-01 0.23788230E+04</pdfrwt>
<totfact> 0.38011846E+00</totfact>
</mgrwt>
</event>
<event>
12    2  0.3555611E-008  0.1227762E+04  0.7818608E-02  0.9088898E-01
          2   -1    0    0  501    0  0.00000000000E+00  0.00000000000E+00  0.20730308484E+04  0.20730308484E+04  0.00000000000E+00 0. -1.
         -2   -1    0    0    0  501 -0.00000000000E+00 -0.00000000000E+00 -0.18178690401E+03  0.18178690401E+03  0.00000000000E+00 0.  1.
         23    2    1    2    0    0 -0.12933883958E+03  0.22978367201E+03  0.33807827240E+03  0.43799108380E+03  0.89499719954E+02 0.  0.
        254    2    1    2    0    0  0.12933883958E+03 -0.22978367201E+03  0.15531656720E+04  0.18168266686E+04  0.90498976116E+03 0.  0.
         23    2    4    4    0    0 -0.11849629299E+03 -0.12079919907E+03  0.15172555485E+04  0.15290236116E+04  0.84941081494E+02 0.  0.
         23    2    4    4    0    0  0.24783513257E+03 -0.10898447294E+03  0.35910123488E+02  0.28780305705E+03  0.90781024449E+02 0.  0.
          1    1    3    3  502    0 -0.29194660272E+01 -0.27584048968E+01  0.36557015757E+02  0.36776996622E+02  0.00000000000E+00 0. -1.
         -1    1    3    3    0  502 -0.12641937356E+03  0.23254207690E+03  0.30152125664E+03  0.40121408717E+03  0.00000000000E+00 0.  1.
         11    1    5    5    0    0 -0.83112075849E+02 -0.43606930330E+02  0.10439802139E+04  0.10481907597E+04  0.00000000000E+00 0. -1.
        -11    1    5    5    0    0 -0.35384217136E+02 -0.77192268739E+02  0.47327533456E+03  0.48083285191E+03  0.00000000000E+00 0.  1.
          1    1    6    6  503    0  0.17454796526E+03 -0.44416550015E+02 -0.89240542078E+01  0.18033153035E+03  0.00000000000E+00 0.  1.
         -1    1    6    6    0  503  0.73287167305E+02 -0.64567922923E+02  0.44834177696E+02  0.10747152670E+03  0.00000000000E+00 0. -1.
<mgrwt>
<rscale>  0 0.12277620E+04</rscale>
<asrwt>0</asrwt>
<pdfrwt beam="1">  1        2 0.31892781E+00 0.12277620E+04</pdfrwt>
<pdfrwt beam="2">  1       -2 0.27967217E-01 0.12277620E+04</pdfrwt>
<totfact> 0.70116924E+01</totfact>
</mgrwt>
</event>
<event>
12    2  0.3555611E-008  0.2736833E+04  0.7818608E-02  0.8323152E-01
          2   -1    0    0  501    0  0.00000000000E+00  0.00000000000E+00  0.13889786326E+04  0.13889786326E+04  0.00000000000E+00 0. -1.
         -2   -1    0    0    0  501 -0.00000000000E+00 -0.00000000000E+00 -0.13481585682E+04  0.13481585682E+04  0.00000000000E+00 0.  1.
         23    2    1    2    0    0  0.94962901175E+03 -0.23607453060E+03  0.74384515331E+03  0.12325206452E+04  0.90967493179E+02 0.  0.
        254    2    1    2    0    0 -0.94962901175E+03  0.23607453060E+03 -0.70302508888E+03  0.15046165556E+04  0.90116605568E+03 0.  0.
         23    2    4    4    0    0 -0.59521299381E+03  0.45302765700E+03 -0.91888389448E+02  0.76016839337E+03  0.99498463065E+02 0.  0.
         23    2    4    4    0    0 -0.35441601794E+03 -0.21695312640E+03 -0.61113669943E+03  0.74444816226E+03  0.89641664822E+02 0.  0.
          3    1    3    3  502    0  0.74430840818E+03 -0.15893918300E+03  0.61185772845E+03  0.97653804342E+03  0.00000000000E+00 0. -1.
         -3    1    3    3    0  502  0.20532060357E+03 -0.77135347597E+02  0.13198742486E+03  0.25598260179E+03  0.00000000000E+00 0.  1.
         11    1    5    5    0    0 -0.56409431919E+03  0.45076278102E+03 -0.78896233722E+02  0.72637049871E+03  0.00000000000E+00 0. -1.
        -11    1    5    5    0    0 -0.31118674616E+02  0.22648759842E+01 -0.12992155726E+02  0.33797894660E+02  0.00000000000E+00 0.  1.
          4    1    6    6  503    0 -0.27756815234E+02 -0.38247550183E+02 -0.11337845115E+03  0.12283317578E+03  0.00000000000E+00 0.  1.
         -4    1    6    6    0  503 -0.32665920271E+03 -0.17870557622E+03 -0.49775824828E+03  0.62161498648E+03  0.00000000000E+00 0. -1.
<mgrwt>
<rscale>  0 0.27368328E+04</rscale>
<asrwt>0</asrwt>
<pdfrwt beam="1">  1        2 0.21368902E+00 0.27368328E+04</pdfrwt>
<pdfrwt beam="2">  1       -2 0.20740901E+00 0.27368328E+04</pdfrwt>
<totfact> 0.15283924E+00</totfact>
</mgrwt>
</event>
<event>
12    2  0.3555611E-008  0.1716604E+04  0.7818608E-02  0.8751951E-01
         -2   -1    0    0    0  501 -0.00000000000E+00  0.00000000000E+00  0.59047251216E+03  0.59047251216E+03  0.00000000000E+00 0.  1.
          2   -1    0    0  501    0  0.00000000000E+00 -0.00000000000E+00 -0.12476146559E+04  0.12476146559E+04  0.00000000000E+00 0. -1.
         23    2    1    2    0    0 -0.27126285711E+03  0.16743226933E+03 -0.80655021912E+03  0.87191996275E+03  0.90022569526E+02 0.  0.
        254    2    1    2    0    0  0.27126285711E+03 -0.16743226933E+03  0.14940807542E+03  0.96616720527E+03  0.89974395973E+03 0.  0.
         23    2    4    4    0    0 -0.28696631545E+03  0.83427195540E+02 -0.50009560337E+02  0.31613383644E+03  0.90165865265E+02 0.  0.
         23    2    4    4    0    0  0.55822917256E+03 -0.25085946487E+03  0.19941763576E+03  0.65003336883E+03  0.90695683063E+02 0.  0.
          1    1    3    3  502    0 -0.20597855177E+03  0.16515253071E+03 -0.60641863208E+03  0.66139706647E+03  0.00000000000E+00 0. -1.
         -1    1    3    3    0  502 -0.65284305337E+02  0.22797386177E+01 -0.20013158703E+03  0.21052289628E+03  0.00000000000E+00 0.  1.
         11    1    5    5    0    0 -0.22048417458E+03  0.42141337825E+02 -0.70412091699E+02  0.23525948706E+03  0.00000000000E+00 0. -1.
        -11    1    5    5    0    0 -0.66482140872E+02  0.41285857715E+02  0.20402531362E+02  0.80874349383E+02  0.00000000000E+00 0.  1.
          4    1    6    6  503    0  0.14412699465E+03 -0.32148292498E+02  0.74243259914E+02  0.16528207689E+03  0.00000000000E+00 0. -1.
         -4    1    6    6    0  503  0.41410217791E+03 -0.21871117237E+03  0.12517437584E+03  0.48475129194E+03  0.00000000000E+00 0.  1.
<mgrwt>
<rscale>  0 0.17166038E+04</rscale>
<asrwt>0</asrwt>
<pdfrwt beam="1">  1        2 0.19194071E+00 0.17166038E+04</pdfrwt>
<pdfrwt beam="2">  1       -2 0.90841926E-01 0.17166038E+04</pdfrwt>
<totfact> 0.17444464E+01</totfact>
</mgrwt>
</event>
<event>
12    2  0.3555611E-008  0.2568318E+04  0.7818608E-02  0.8379043E-01
          2   -1    0    0  501    0  0.00000000000E+00  0.00000000000E+00  0.15832844010E+04  0.15832844010E+04  0.00000000000E+00 0. -1.
         -2   -1    0    0    0  501 -0.00000000000E+00 -0.00000000000E+00 -0.10415466119E+04  0.10415466119E+04  0.00000000000E+00 0.  1.
         23    2    1    2    0    0 -0.10307140019E+04 -0.44793804821E+03  0.30377496698E+03  0.11677707992E+04  0.91594541362E+02 0.  0.
        254    2    1    2    0    0  0.10307140019E+04  0.44793804821E+03  0.23796282214E+03  0.14570602138E+04  0.89631373580E+03 0.  0.
         23    2    4    4    0    0  0.95096832960E+03  0.62459521850E+03  0.52086680876E+01  0.11410181405E+04  0.86228277470E+02 0.  0.
         23    2    4    4    0    0  0.79745672347E+02 -0.17665717029E+03  0.23275415406E+03  0.31604207327E+03  0.90227311689E+02 0.  0.
          3    1    3    3  502    0 -0.97550082599E+03 -0.43532016598E+03  0.30568325669E+03  0.11111020483E+04  0.00000000000E+00 0. -1.
         -3    1    3    3    0  502 -0.55213175963E+02 -0.12617882239E+02 -0.19082897190E+01  0.56668750840E+02  0.00000000000E+00 0.  1.
         11    1    5    5    0    0  0.11823733756E+03  0.54742895895E+02 -0.19054130178E+02  0.13168110161E+03  0.00000000000E+00 0. -1.
        -11    1    5    5    0    0  0.83273099204E+03  0.56985232261E+03  0.24262798265E+02  0.10093370389E+04  0.00000000000E+00 0.  1.
          1    1    6    6  503    0  0.24537294388E+02  0.35445653385E+01  0.20326770387E+02  0.32059637454E+02  0.00000000000E+00 0. -1.
         -1    1    6    6    0  503  0.55208377959E+02 -0.18020173563E+03  0.21242738367E+03  0.28398243582E+03  0.00000000000E+00 0.  1.
<mgrwt>
<rscale>  0 0.25683181E+04</rscale>
<asrwt>0</asrwt>
<pdfrwt beam="1">  1        2 0.24358221E+00 0.25683181E+04</pdfrwt>
<pdfrwt beam="2">  1       -2 0.16023794E+00 0.25683181E+04</pdfrwt>
<totfact> 0.25357438E+00</totfact>
</mgrwt>
</event>
<event>
12    2  0.3555611E-008  0.1670555E+04  0.7818608E-02  0.8778338E-01
          2   -1    0    0  501    0  0.00000000000E+00  0.00000000000E+00  0.21772956472E+04  0.21772956472E+04  0.00000000000E+00 0. -1.
         -2   -1    0    0    0  501 -0.00000000000E+00 -0.00000000000E+00 -0.32043819170E+03  0.32043819170E+03  0.00000000000E+00 0.  1.
         23    2    1    2    0    0  0.40034986257E+03 -0.83998545017E+02  0.29511981591E+02  0.42023570608E+03  0.91604167905E+02 0.  0.
        254    2    1    2    0    0 -0.40034986257E+03  0.83998545017E+02  0.18273454739E+04  0.20774981328E+04  0.89970619806E+03 0.  0.
         23    2    4    4    0    0  0.13814086947E+02  0.41918720691E+03  0.10079614546E+04  0.10957423034E+04  0.93574344571E+02 0.  0.
         23    2    4    4    0    0 -0.41416394952E+03 -0.33518866190E+03  0.81938401929E+03  0.98175582945E+03  0.92580351267E+02 0.  0.
          2    1    3    3  502    0  0.13478806069E+03 -0.18371398583E+02  0.52290587594E+02  0.14573824186E+03  0.00000000000E+00 0. -1.
         -2    1    3    3    0  502  0.26556180189E+03 -0.65627146434E+02 -0.22778606003E+02  0.27449746422E+03  0.00000000000E+00 0.  1.
         11    1    5    5    0    0 -0.16400873954E+02  0.23468809201E+02  0.36856747649E+02  0.46671120825E+02  0.00000000000E+00 0.  1.
        -11    1    5    5    0    0  0.30214960902E+02  0.39571839771E+03  0.97110470699E+03  0.10490711826E+04  0.00000000000E+00 0. -1.
          2    1    6    6  503    0 -0.34461879509E+03 -0.22868908130E+03  0.62656223592E+03  0.75076031149E+03  0.00000000000E+00 0. -1.
         -2    1    6    6    0  503 -0.69545154429E+02 -0.10649958060E+03  0.19282178338E+03  0.23099551796E+03  0.00000000000E+00 0.  1.
<mgrwt>
<rscale>  0 0.16705552E+04</rscale>
<asrwt>0</asrwt>
<pdfrwt beam="1">  1        2 0.33496855E+00 0.16705552E+04</pdfrwt>
<pdfrwt beam="2">  1       -2 0.49298185E-01 0.16705552E+04</pdfrwt>
<totfact> 0.19765317E+01</totfact>
</mgrwt>
</event>
<event>
12    2  0.3555611E-008  0.2161882E+04  0.7818608E-02  0.8534463E-01
          2   -1    0    0  501    0  0.00000000000E+00  0.00000000000E+00  0.50239283442E+03  0.50239283442E+03  0.00000000000E+00 0.  1.
         -2   -1    0    0    0  501 -0.00000000000E+00 -0.00000000000E+00 -0.23257373176E+04  0.23257373176E+04  0.00000000000E+00 0. -1.
         23    2    1    2    0    0  0.36989990543E+03 -0.80145068510E+03 -0.90454477053E+03  0.12676822306E+04  0.98325252765E+02 0.  0.
        254    2    1    2    0    0 -0.36989990543E+03  0.80145068510E+03 -0.91879971267E+03  0.15604479214E+04  0.90091934305E+03 0.  0.
         23    2    4    4    0    0  0.17899105678E+03  0.40383956250E+03 -0.49435011243E+02  0.45431589920E+03  0.93994283242E+02 0.  0.
         23    2    4    4    0    0 -0.54889096221E+03  0.39761112260E+03 -0.86936470143E+03  0.11061320222E+04  0.91417576064E+02 0.  0.
          4    1    3    3  502    0 -0.62936374947E+01 -0.96260909162E+01 -0.11150464042E+02  0.16018874729E+02  0.00000000000E+00 0. -1.
         -4    1    3    3    0  502  0.37619354293E+03 -0.79182459418E+03 -0.89339430649E+03  0.12516633559E+04  0.00000000000E+00 0.  1.
         11    1    5    5    0    0  0.15223622976E+03  0.36470999065E+03 -0.14576406429E+02  0.39547657144E+03  0.00000000000E+00 0. -1.
        -11    1    5    5    0    0  0.26754827013E+02  0.39129571850E+02 -0.34858604815E+02  0.58839327760E+02  0.00000000000E+00 0.  1.
          2    1    6    6  503    0 -0.38580353065E+03  0.32717080029E+03 -0.62636302180E+03  0.80511845831E+03  0.00000000000E+00 0. -1.
         -2    1    6    6    0  503 -0.16308743156E+03  0.70440322303E+02 -0.24300167963E+03  0.30101356388E+03  0.00000000000E+00 0.  1.
<mgrwt>
<rscale>  0 0.21618823E+04</rscale>
<asrwt>0</asrwt>
<pdfrwt beam="1">  1        2 0.77291206E-01 0.21618823E+04</pdfrwt>
<pdfrwt beam="2">  1       -2 0.35780574E+00 0.21618823E+04</pdfrwt>
<totfact> 0.78101233E-01</totfact>
</mgrwt>
</event>
<event>
12    2  0.3555611E-008  0.2034811E+04  0.7818608E-02  0.8590516E-01
         -1   -1    0    0    0  501 -0.00000000000E+00  0.00000000000E+00  0.90859262764E+03  0.90859262764E+03  0.00000000000E+00 0.  1.
          1   -1    0    0  501    0  0.00000000000E+00 -0.00000000000E+00 -0.11392502588E+04  0.11392502588E+04  0.00000000000E+00 0. -1.
         23    2    1    2    0    0  0.81607298056E+03  0.74089557760E+02 -0.14418538950E+03  0.83681813081E+03  0.89502990668E+02 0.  0.
        254    2    1    2    0    0 -0.81607298056E+03 -0.74089557760E+02 -0.86472241698E+02  0.12110247557E+04  0.88749035943E+03 0.  0.
         23    2    4    4    0    0 -0.50762750943E+03 -0.44500200871E+03 -0.19443193970E+03  0.70826039442E+03  0.90091792287E+02 0.  0.
         23    2    4    4    0    0 -0.30844547113E+03  0.37091245095E+03  0.10795969800E+03  0.50276436125E+03  0.91662705676E+02 0.  0.
          1    1    3    3  502    0  0.28077500223E+03  0.30876534809E+02 -0.70923893634E+01  0.28255665674E+03  0.00000000000E+00 0. -1.
         -1    1    3    3    0  502  0.53529797833E+03  0.43213022952E+02 -0.13709300013E+03  0.55426147408E+03  0.00000000000E+00 0.  1.
         11    1    5    5    0    0 -0.33909230032E+03 -0.31595765024E+03 -0.17380208876E+03  0.49499494032E+03  0.00000000000E+00 0. -1.
        -11    1    5    5    0    0 -0.16853520911E+03 -0.12904435847E+03 -0.20629850939E+02  0.21326545410E+03  0.00000000000E+00 0.  1.
          4    1    6    6  503    0 -0.30836453375E+03  0.35329255039E+03  0.11648452840E+03  0.48319039435E+03  0.00000000000E+00 0. -1.
         -4    1    6    6    0  503 -0.80937379608E-01  0.17619900559E+02 -0.85248303956E+01  0.19573966891E+02  0.00000000000E+00 0.  1.
<mgrwt>
<rscale>  0 0.20348114E+04</rscale>
<asrwt>0</asrwt>
<pdfrwt beam="1">  1        1 0.17526927E+00 0.20348114E+04</pdfrwt>
<pdfrwt beam="2">  1       -1 0.13978348E+00 0.20348114E+04</pdfrwt>
<totfact> 0.46123784E+00</totfact>
</mgrwt>
</event>
<event>
12    2  0.3555611E-008  0.3188089E+04  0.7818608E-02  0.8191970E-01
         -2   -1    0    0    0  501 -0.00000000000E+00  0.00000000000E+00  0.93903807163E+03  0.93903807163E+03  0.00000000000E+00 0.  1.
          2   -1    0    0  501    0  0.00000000000E+00 -0.00000000000E+00 -0.27059364740E+04  0.27059364740E+04  0.00000000000E+00 0. -1.
         23    2    1    2    0    0 -0.11108223479E+04 -0.84236741013E+03 -0.13269444876E+04  0.19268118406E+04  0.91175949685E+02 0.  0.
        254    2    1    2    0    0  0.11108223479E+04  0.84236741013E+03 -0.43995391472E+03  0.17181627050E+04  0.90278153036E+03 0.  0.
         23    2    4    4    0    0  0.48774714698E+03  0.85168920190E+03 -0.71393645518E+02  0.98821129987E+03  0.90513780975E+02 0.  0.
         23    2    4    4    0    0  0.62307520089E+03 -0.93217917781E+01 -0.36856026920E+03  0.72995140511E+03  0.93181436082E+02 0.  0.
          3    1    3    3  502    0 -0.78265714940E+03 -0.58035077190E+03 -0.98210690433E+03  0.13834352907E+04  0.00000000000E+00 0. -1.
         -3    1    3    3    0  502 -0.32816519847E+03 -0.26201663823E+03 -0.34483758331E+03  0.54337654997E+03  0.00000000000E+00 0.  1.
         11    1    5    5    0    0  0.19011332109E+03  0.38592992323E+03  0.48416713840E+01  0.43024228323E+03  0.00000000000E+00 0. -1.
        -11    1    5    5    0    0  0.29763382589E+03  0.46575927868E+03 -0.76235316902E+02  0.55796901664E+03  0.00000000000E+00 0.  1.
          1    1    6    6  503    0  0.36216937246E+03  0.33050029856E+02 -0.18401606536E+03  0.40757928202E+03  0.00000000000E+00 0. -1.
         -1    1    6    6    0  503  0.26090582843E+03 -0.42371821634E+02 -0.18454420384E+03  0.32237212309E+03  0.00000000000E+00 0.  1.
<mgrwt>
<rscale>  0 0.31880887E+04</rscale>
<asrwt>0</asrwt>
<pdfrwt beam="1">  1        2 0.41629791E+00 0.31880887E+04</pdfrwt>
<pdfrwt beam="2">  1       -2 0.14446740E+00 0.31880887E+04</pdfrwt>
<totfact> 0.73426452E-01</totfact>
</mgrwt>
</event>
<event>
12    2  0.3555611E-008  0.1409322E+04  0.7818608E-02  0.8947098E-01
         -1   -1    0    0    0  501 -0.00000000000E+00  0.00000000000E+00  0.42532019103E+03  0.42532019103E+03  0.00000000000E+00 0.  1.
          1   -1    0    0  501    0  0.00000000000E+00 -0.00000000000E+00 -0.11674667703E+04  0.11674667703E+04  0.00000000000E+00 0. -1.
         23    2    1    2    0    0  0.30960540699E+03 -0.90266954480E+02  0.67001557911E+02  0.34140301492E+03  0.89795204373E+02 0.  0.
        254    2    1    2    0    0 -0.30960540699E+03  0.90266954480E+02 -0.80914813723E+03  0.12513839464E+04  0.89846393491E+03 0.  0.
         23    2    4    4    0    0  0.17365612960E+03  0.34498129883E+03 -0.39066159680E+03  0.55717356274E+03  0.93044870456E+02 0.  0.
         23    2    4    4    0    0 -0.48326153659E+03 -0.25471434435E+03 -0.41848654043E+03  0.69421038371E+03  0.91520283866E+02 0.  0.
          3    1    3    3  502    0  0.21864788156E+02  0.11384651706E+02  0.21795105069E+02  0.32904496054E+02  0.00000000000E+00 0. -1.
         -3    1    3    3    0  502  0.28774061883E+03 -0.10165160619E+03  0.45206452843E+02  0.30849851887E+03  0.00000000000E+00 0.  1.
         11    1    5    5    0    0  0.13434092340E+03  0.17041573876E+03 -0.19126745410E+03  0.28926155416E+03  0.00000000000E+00 0.  1.
        -11    1    5    5    0    0  0.39315206199E+02  0.17456556007E+03 -0.19939414269E+03  0.26791200858E+03  0.00000000000E+00 0. -1.
          4    1    6    6  503    0 -0.10643253586E+03 -0.55022403714E+02 -0.14273501026E+03  0.18635619859E+03  0.00000000000E+00 0.  1.
         -4    1    6    6    0  503 -0.37682900073E+03 -0.19969194063E+03 -0.27575153017E+03  0.50785418511E+03  0.00000000000E+00 0. -1.
<mgrwt>
<rscale>  0 0.14093221E+04</rscale>
<asrwt>0</asrwt>
<pdfrwt beam="1">  1        1 0.17961027E+00 0.14093221E+04</pdfrwt>
<pdfrwt beam="2">  1       -1 0.65433876E-01 0.14093221E+04</pdfrwt>
<totfact> 0.26047879E+01</totfact>
</mgrwt>
</event>
<event>
12    2  0.3555611E-008  0.1870393E+04  0.7818608E-02  0.8669736E-01
          2   -1    0    0  501    0  0.00000000000E+00  0.00000000000E+00  0.37910288294E+03  0.37910288294E+03  0.00000000000E+00 0. -1.
         -2   -1    0    0    0  501 -0.00000000000E+00 -0.00000000000E+00 -0.23070062792E+04  0.23070062792E+04  0.00000000000E+00 0.  1.
         23    2    1    2    0    0  0.21731476680E+03  0.67816861946E+03 -0.60706773021E+03  0.93995932451E+03  0.88622335569E+02 0.  0.
        254    2    1    2    0    0 -0.21731476680E+03 -0.67816861946E+03 -0.13208356660E+04  0.17461498376E+04  0.89291321780E+03 0.  0.
         23    2    4    4    0    0  0.17839701202E+03 -0.32759810021E+03 -0.11010146937E+04  0.11661813918E+04  0.92734425351E+02 0.  0.
         23    2    4    4    0    0 -0.39571177882E+03 -0.35057051925E+03 -0.21982097231E+03  0.57996844583E+03  0.92491282923E+02 0.  0.
          2    1    3    3  502    0  0.90474886763E+02  0.25862076080E+03 -0.29024747014E+03  0.39914157510E+03  0.00000000000E+00 0. -1.
         -2    1    3    3    0  502  0.12683988004E+03  0.41954785866E+03 -0.31682026008E+03  0.54081774940E+03  0.00000000000E+00 0.  1.
         11    1    5    5    0    0  0.11390291790E+02 -0.54901975111E+01 -0.11203472161E+03  0.11274599710E+03  0.00000000000E+00 0. -1.
        -11    1    5    5    0    0  0.16700672023E+03 -0.32210790270E+03 -0.98897997213E+03  0.10534353947E+04  0.00000000000E+00 0.  1.
          4    1    6    6  503    0 -0.13463931162E+03 -0.67304796862E+02 -0.77406865547E+02  0.16926163992E+03  0.00000000000E+00 0. -1.
         -4    1    6    6    0  503 -0.26107246721E+03 -0.28326572239E+03 -0.14241410677E+03  0.41070680591E+03  0.00000000000E+00 0.  1.
<mgrwt>
<rscale>  0 0.18703933E+04</rscale>
<asrwt>0</asrwt>
<pdfrwt beam="1">  1        2 0.58323520E-01 0.18703933E+04</pdfrwt>
<pdfrwt beam="2">  1       -2 0.35492405E+00 0.18703933E+04</pdfrwt>
<totfact> 0.11523855E+00</totfact>
</mgrwt>
</event>
<event>
12    2  0.3877681E-008  0.1511399E+04  0.7818608E-02  0.8876908E-01
          1   -1    0    0  501    0  0.00000000000E+00  0.00000000000E+00  0.88420659155E+03  0.88420659155E+03  0.00000000000E+00 0. -1.
         -1   -1    0    0    0  501 -0.00000000000E+00 -0.00000000000E+00 -0.64586905086E+03  0.64586905086E+03  0.00000000000E+00 0.  1.
         23    2    1    2    0    0  0.28637586046E+03  0.19165991820E+02  0.47193799261E+03  0.55957944990E+03  0.89583610037E+02 0.  0.
        254    2    1    2    0    0 -0.28637586046E+03 -0.19165991820E+02 -0.23360045191E+03  0.97049619251E+03  0.89717067487E+03 0.  0.
         23    2    4    4    0    0  0.10381530512E+03  0.36183724050E+03 -0.67705698479E+02  0.39317673411E+03  0.91104755340E+02 0.  0.
         23    2    4    4    0    0 -0.39019116558E+03 -0.38100323232E+03 -0.16589475343E+03  0.57731945840E+03  0.91455339326E+02 0.  0.
          3    1    3    3  502    0  0.28020134794E+03  0.66677207180E+00  0.42873581741E+03  0.51217930562E+03  0.00000000000E+00 0. -1.
         -3    1    3    3    0  502  0.61745125189E+01  0.18499219748E+02  0.43202175199E+02  0.47400144283E+02  0.00000000000E+00 0.  1.
         11    1    5    5    0    0  0.31229020129E+01  0.69116123666E+01  0.13433972769E+02  0.15427071234E+02  0.00000000000E+00 0. -1.
        -11    1    5    5    0    0  0.10069240311E+03  0.35492562813E+03 -0.81139671249E+02  0.37774966287E+03  0.00000000000E+00 0.  1.
          4    1    6    6  503    0 -0.12947200323E+03 -0.82827879733E+02 -0.74613313892E+02  0.17085257941E+03  0.00000000000E+00 0. -1.
         -4    1    6    6    0  503 -0.26071916235E+03 -0.29817535259E+03 -0.91281439542E+02  0.40646687899E+03  0.00000000000E+00 0.  1.
<mgrwt>
<rscale>  0 0.15113989E+04</rscale>
<asrwt>0</asrwt>
<pdfrwt beam="1">  1        1 0.13603178E+00 0.15113989E+04</pdfrwt>
<pdfrwt beam="2">  1       -1 0.99364469E-01 0.15113989E+04</pdfrwt>
<totfact> 0.17531746E+01</totfact>
</mgrwt>
</event>
<event>
12    2  0.3555611E-008  0.1694806E+04  0.7818608E-02  0.8764332E-01
         -1   -1    0    0    0  501 -0.00000000000E+00  0.00000000000E+00  0.85937849056E+03  0.85937849056E+03  0.00000000000E+00 0.  1.
          1   -1    0    0  501    0  0.00000000000E+00 -0.00000000000E+00 -0.83559436377E+03  0.83559436377E+03  0.00000000000E+00 0. -1.
         23    2    1    2    0    0 -0.39746545629E+03 -0.39972740033E+01  0.44059940207E+03  0.60058887891E+03  0.92652043778E+02 0.  0.
        254    2    1    2    0    0  0.39746545629E+03  0.39972740033E+01 -0.41681527528E+03  0.10943839754E+04  0.93056248840E+03 0.  0.
         23    2    4    4    0    0  0.24379204618E+03 -0.44960411490E+03 -0.26935027579E+03  0.58522858217E+03  0.91457642704E+02 0.  0.
         23    2    4    4    0    0  0.15367341011E+03  0.45360138890E+03 -0.14746499950E+03  0.50915539325E+03  0.90130746229E+02 0.  0.
          3    1    3    3  502    0 -0.40706530920E+02 -0.27195592779E+02  0.36653175364E+02  0.61156170501E+02  0.00000000000E+00 0. -1.
         -3    1    3    3    0  502 -0.35675892537E+03  0.23198318776E+02  0.40394622671E+03  0.53943270840E+03  0.00000000000E+00 0.  1.
         11    1    5    5    0    0  0.14029974176E+02 -0.22321401191E+02 -0.41690676015E+02  0.49327452733E+02  0.00000000000E+00 0.  1.
        -11    1    5    5    0    0  0.22976207200E+03 -0.42728271371E+03 -0.22765959977E+03  0.53590112944E+03  0.00000000000E+00 0. -1.
          1    1    6    6  503    0  0.14928793903E+03  0.41925560549E+03 -0.11059799577E+03  0.45857831190E+03  0.00000000000E+00 0. -1.
         -1    1    6    6    0  503  0.43854710837E+01  0.34345783411E+02 -0.36867003730E+02  0.50577081359E+02  0.00000000000E+00 0.  1.
<mgrwt>
<rscale>  0 0.16948060E+04</rscale>
<asrwt>0</asrwt>
<pdfrwt beam="1">  1        1 0.12855298E+00 0.16948060E+04</pdfrwt>
<pdfrwt beam="2">  1       -1 0.13221207E+00 0.16948060E+04</pdfrwt>
<totfact> 0.95306983E+00</totfact>
</mgrwt>
</event>
<event>
12    2  0.3555611E-008  0.1894970E+04  0.7818608E-02  0.8657364E-01
          1   -1    0    0  501    0  0.00000000000E+00  0.00000000000E+00  0.58213626100E+03  0.58213626100E+03  0.00000000000E+00 0. -1.
         -1   -1    0    0    0  501 -0.00000000000E+00 -0.00000000000E+00 -0.15421268532E+04  0.15421268532E+04  0.00000000000E+00 0.  1.
         23    2    1    2    0    0 -0.19595799038E+03 -0.34075089699E+03  0.30906943138E+03  0.50842781770E+03  0.92001220672E+02 0.  0.
        254    2    1    2    0    0  0.19595799038E+03  0.34075089699E+03 -0.12690600235E+04  0.16158352965E+04  0.91972803272E+03 0.  0.
         23    2    4    4    0    0 -0.19007057006E+03  0.64032994362E+02  0.36692043837E+02  0.22358780832E+03  0.91750509430E+02 0.  0.
         23    2    4    4    0    0  0.38602856043E+03  0.27671790263E+03 -0.13057520674E+04  0.13922474881E+04  0.88168926936E+02 0.  0.
          2    1    3    3  502    0 -0.23925475651E+02 -0.58816805606E+02  0.96980304044E+02  0.11591817968E+03  0.00000000000E+00 0.  1.
         -2    1    3    3    0  502 -0.17203251473E+03 -0.28193409139E+03  0.21208912734E+03  0.39250963803E+03  0.00000000000E+00 0. -1.
         11    1    5    5    0    0  0.83722435757E+01 -0.57031951280E+01  0.38248944158E+00  0.10137415614E+02  0.00000000000E+00 0.  1.
        -11    1    5    5    0    0 -0.19844281363E+03  0.69736189490E+02  0.36309554396E+02  0.21345039271E+03  0.00000000000E+00 0. -1.
          4    1    6    6  503    0  0.29383134590E+03  0.23874259979E+03 -0.94637963146E+03  0.10192984331E+04  0.00000000000E+00 0. -1.
         -4    1    6    6    0  503  0.92197214533E+02  0.37975302837E+02 -0.35937243592E+03  0.37294905509E+03  0.00000000000E+00 0.  1.
<mgrwt>
<rscale>  0 0.18949701E+04</rscale>
<asrwt>0</asrwt>
<pdfrwt beam="1">  1        1 0.89559425E-01 0.18949701E+04</pdfrwt>
<pdfrwt beam="2">  1       -1 0.23725028E+00 0.18949701E+04</pdfrwt>
<totfact> 0.28301487E+00</totfact>
</mgrwt>
</event>
<event>
12    2  0.3555611E-008  0.3791871E+04  0.7818608E-02  0.8047902E-01
         -2   -1    0    0    0  501 -0.00000000000E+00  0.00000000000E+00  0.15331809633E+04  0.15331809633E+04  0.00000000000E+00 0. -1.
          2   -1    0    0  501    0  0.00000000000E+00 -0.00000000000E+00 -0.23445183913E+04  0.23445183913E+04  0.00000000000E+00 0.  1.
         23    2    1    2    0    0  0.12804628937E+04 -0.10821179058E+04 -0.10161093987E+04  0.19624930225E+04  0.91302623753E+02 0.  0.
        254    2    1    2    0    0 -0.12804628937E+04  0.10821179058E+04  0.20477197069E+03  0.19152063321E+04  0.90306109984E+03 0.  0.
         23    2    4    4    0    0 -0.32557349167E+03  0.35010082946E+03 -0.33657250809E+03  0.59227052786E+03  0.94523201927E+02 0.  0.
         23    2    4    4    0    0 -0.95488940205E+03  0.73201707638E+03  0.54134447878E+03  0.13229358042E+04  0.97172666281E+02 0.  0.
          4    1    3    3  502    0  0.11616132267E+04 -0.95451330451E+03 -0.93170082516E+03  0.17687587073E+04  0.00000000000E+00 0. -1.
         -4    1    3    3    0  502  0.11884966704E+03 -0.12760460133E+03 -0.84408573518E+02  0.19373431528E+03  0.00000000000E+00 0.  1.
         11    1    5    5    0    0 -0.13372647803E+02  0.23298806535E+01 -0.31131637596E+02  0.33962257177E+02  0.00000000000E+00 0.  1.
        -11    1    5    5    0    0 -0.31220084387E+03  0.34777094880E+03 -0.30544087049E+03  0.55830827068E+03  0.00000000000E+00 0. -1.
          1    1    6    6  503    0 -0.92367541657E+03  0.69929821611E+03  0.53866615954E+03  0.12776366861E+04  0.00000000000E+00 0. -1.
         -1    1    6    6    0  503 -0.31213985480E+02  0.32718860263E+02  0.26783192357E+01  0.45299118097E+02  0.00000000000E+00 0.  1.
<mgrwt>
<rscale>  0 0.37918708E+04</rscale>
<asrwt>0</asrwt>
<pdfrwt beam="1">  1        2 0.36069514E+00 0.37918708E+04</pdfrwt>
<pdfrwt beam="2">  1       -2 0.23587399E+00 0.37918708E+04</pdfrwt>
<totfact> 0.26964053E-01</totfact>
</mgrwt>
</event>
<event>
12    2  0.3555611E-008  0.1235397E+04  0.7818608E-02  0.9082426E-01
         -1   -1    0    0    0  501 -0.00000000000E+00  0.00000000000E+00  0.18394841632E+04  0.18394841632E+04  0.00000000000E+00 0. -1.
          1   -1    0    0  501    0  0.00000000000E+00 -0.00000000000E+00 -0.20742302705E+03  0.20742302705E+03  0.00000000000E+00 0.  1.
         23    2    1    2    0    0  0.11537931877E+03 -0.65326935116E+02  0.76142801602E+03  0.77838187443E+03  0.92334842858E+02 0.  0.
        254    2    1    2    0    0 -0.11537931877E+03  0.65326935116E+02  0.87063312017E+03  0.12685253159E+04  0.91300298543E+03 0.  0.
         23    2    4    4    0    0  0.31528422086E+03  0.24299535140E+03  0.21815709231E+03  0.46195894930E+03  0.85806020694E+02 0.  0.
         23    2    4    4    0    0 -0.43066353962E+03 -0.17766841629E+03  0.65247602786E+03  0.80656636657E+03  0.88245035185E+02 0.  0.
          1    1    3    3  502    0  0.62351279517E+02 -0.17990261449E+02  0.15838687173E+03  0.17116580471E+03  0.00000000000E+00 0. -1.
         -1    1    3    3    0  502  0.53028039249E+02 -0.47336673666E+02  0.60304114429E+03  0.60721606972E+03  0.00000000000E+00 0.  1.
         11    1    5    5    0    0  0.25741747907E+02  0.10090484761E+02  0.43080634685E+02  0.51189809073E+02  0.00000000000E+00 0. -1.
        -11    1    5    5    0    0  0.28954247295E+03  0.23290486664E+03  0.17507645763E+03  0.41076914023E+03  0.00000000000E+00 0.  1.
          1    1    6    6  503    0 -0.29388664738E+03 -0.77991218964E+02  0.39564166005E+03  0.49898328120E+03  0.00000000000E+00 0. -1.
         -1    1    6    6    0  503 -0.13677689224E+03 -0.99677197325E+02  0.25683436781E+03  0.30758308537E+03  0.00000000000E+00 0.  1.
<mgrwt>
<rscale>  0 0.12353969E+04</rscale>
<asrwt>0</asrwt>
<pdfrwt beam="1">  1        1 0.31911236E-01 0.12353969E+04</pdfrwt>
<pdfrwt beam="2">  1       -1 0.28299755E+00 0.12353969E+04</pdfrwt>
<totfact> 0.59870050E+00</totfact>
</mgrwt>
</event>
<event>
12    2  0.3555611E-008  0.1809631E+04  0.7818608E-02  0.8701194E-01
         -1   -1    0    0    0  501 -0.00000000000E+00  0.00000000000E+00  0.26221615115E+03  0.26221615115E+03  0.00000000000E+00 0.  1.
          1   -1    0    0  501    0  0.00000000000E+00 -0.00000000000E+00 -0.31222007820E+04  0.31222007820E+04  0.00000000000E+00 0. -1.
         23    2    1    2    0    0 -0.51702150120E+03  0.42807120722E+03 -0.96770175447E+03  0.11811419691E+04  0.89963739187E+02 0.  0.
        254    2    1    2    0    0  0.51702150120E+03 -0.42807120722E+03 -0.18922828763E+04  0.22032749640E+04  0.90726506154E+03 0.  0.
         23    2    4    4    0    0  0.12527425869E+03 -0.62286691530E+03 -0.13889940952E+04  0.15301290658E+04  0.91288155268E+02 0.  0.
         23    2    4    4    0    0  0.39174724251E+03  0.19479570808E+03 -0.50328878112E+03  0.67314589826E+03  0.91730765006E+02 0.  0.
          1    1    3    3  502    0 -0.25380615921E+03  0.21287924896E+03 -0.55603269054E+03  0.64723063435E+03  0.00000000000E+00 0. -1.
         -1    1    3    3    0  502 -0.26321534200E+03  0.21519195826E+03 -0.41166906393E+03  0.53391133474E+03  0.00000000000E+00 0.  1.
         11    1    5    5    0    0  0.11076622819E+03 -0.59837821761E+03 -0.13576083426E+04  0.14877587374E+04  0.00000000000E+00 0. -1.
        -11    1    5    5    0    0  0.14508030507E+02 -0.24488697694E+02 -0.31385752589E+02  0.42370328409E+02  0.00000000000E+00 0.  1.
          3    1    6    6  503    0  0.22752306397E+03  0.62000332541E+02 -0.26441416761E+03  0.35429597501E+03  0.00000000000E+00 0. -1.
         -3    1    6    6    0  503  0.16422417854E+03  0.13279537554E+03 -0.23887461351E+03  0.31884992326E+03  0.00000000000E+00 0.  1.
<mgrwt>
<rscale>  0 0.18096314E+04</rscale>
<asrwt>0</asrwt>
<pdfrwt beam="1">  1        1 0.48033859E+00 0.18096314E+04</pdfrwt>
<pdfrwt beam="2">  1       -1 0.40340945E-01 0.18096314E+04</pdfrwt>
<totfact> 0.27576116E+00</totfact>
</mgrwt>
</event>
<event>
12    2  0.3555611E-008  0.2146304E+04  0.7818608E-02  0.8541116E-01
          1   -1    0    0  501    0  0.00000000000E+00  0.00000000000E+00  0.72091277154E+03  0.72091277154E+03  0.00000000000E+00 0. -1.
         -1   -1    0    0    0  501 -0.00000000000E+00 -0.00000000000E+00 -0.15974952515E+04  0.15974952515E+04  0.00000000000E+00 0.  1.
         23    2    1    2    0    0 -0.87452046488E+03  0.49243680723E+02 -0.47587913988E+03  0.10010776245E+04  0.92111188022E+02 0.  0.
        254    2    1    2    0    0  0.87452046488E+03 -0.49243680723E+02 -0.40070334006E+03  0.13173303985E+04  0.89865745894E+03 0.  0.
         23    2    4    4    0    0  0.17367988648E+03  0.67258297108E+02  0.26689138955E+03  0.33828769391E+03  0.92299342028E+02 0.  0.
         23    2    4    4    0    0  0.70084057839E+03 -0.11650197783E+03 -0.66759472961E+03  0.97904270459E+03  0.89953695093E+02 0.  0.
          2    1    3    3  502    0 -0.47734365218E+02  0.67108399640E+01 -0.45175364509E+01  0.48415009360E+02  0.00000000000E+00 0. -1.
         -2    1    3    3    0  502 -0.82678609966E+03  0.42532840759E+02 -0.47136160343E+03  0.95266261516E+03  0.00000000000E+00 0.  1.
         11    1    5    5    0    0  0.29154797306E+02  0.29145414314E+02  0.12223855661E+02  0.42998604962E+02  0.00000000000E+00 0. -1.
        -11    1    5    5    0    0  0.14452508918E+03  0.38112882794E+02  0.25466753389E+03  0.29528908895E+03  0.00000000000E+00 0.  1.
          2    1    6    6  503    0  0.23419564178E+03 -0.53773145409E+01 -0.18390042698E+03  0.29781853734E+03  0.00000000000E+00 0. -1.
         -2    1    6    6    0  503  0.46664493661E+03 -0.11112466329E+03 -0.48369430262E+03  0.68122416725E+03  0.00000000000E+00 0.  1.
<mgrwt>
<rscale>  0 0.21463035E+04</rscale>
<asrwt>0</asrwt>
<pdfrwt beam="1">  1        1 0.11090966E+00 0.21463035E+04</pdfrwt>
<pdfrwt beam="2">  1       -1 0.24576850E+00 0.21463035E+04</pdfrwt>
<totfact> 0.17725414E+00</totfact>
</mgrwt>
</event>
<event>
12    2  0.3555611E-008  0.1759049E+04  0.7818608E-02  0.8728385E-01
          1   -1    0    0  501    0  0.00000000000E+00  0.00000000000E+00  0.13906408184E+04  0.13906408184E+04  0.00000000000E+00 0. -1.
         -1   -1    0    0    0  501 -0.00000000000E+00 -0.00000000000E+00 -0.55626388472E+03  0.55626388472E+03  0.00000000000E+00 0.  1.
         23    2    1    2    0    0 -0.60204687461E+03  0.16539163224E+02  0.35129649495E+02  0.61039594443E+03  0.92817743776E+02 0.  0.
        254    2    1    2    0    0  0.60204687461E+03 -0.16539163224E+02  0.79924728420E+03  0.13365087587E+04  0.88584731058E+03 0.  0.
         23    2    4    4    0    0  0.39524441171E+03 -0.19858181486E+03 -0.34543296990E+02  0.45389420475E+03  0.95780100005E+02 0.  0.
         23    2    4    4    0    0  0.20680246289E+03  0.18204265163E+03  0.83379058119E+03  0.88261455396E+03  0.88853429352E+02 0.  0.
          3    1    3    3  502    0 -0.14307788370E+03 -0.35664516794E+02  0.84345629928E+01  0.14769692080E+03  0.00000000000E+00 0. -1.
         -3    1    3    3    0  502 -0.45896899091E+03  0.52203680018E+02  0.26695086502E+02  0.46269902363E+03  0.00000000000E+00 0.  1.
         11    1    5    5    0    0  0.14624697817E+03 -0.48204305444E+02  0.27616873703E+02  0.15644336164E+03  0.00000000000E+00 0.  1.
        -11    1    5    5    0    0  0.24899743354E+03 -0.15037750941E+03 -0.62160170693E+02  0.29745084311E+03  0.00000000000E+00 0. -1.
          1    1    6    6  503    0  0.19157369760E+03  0.19022833719E+03  0.80461925328E+03  0.84870456852E+03  0.00000000000E+00 0. -1.
         -1    1    6    6    0  503  0.15228765289E+02 -0.81856855554E+01  0.29171327906E+02  0.33909985432E+02  0.00000000000E+00 0.  1.
<mgrwt>
<rscale>  0 0.17590489E+04</rscale>
<asrwt>0</asrwt>
<pdfrwt beam="1">  1        1 0.21394474E+00 0.17590489E+04</pdfrwt>
<pdfrwt beam="2">  1       -1 0.85579059E-01 0.17590489E+04</pdfrwt>
<totfact> 0.99639836E+00</totfact>
</mgrwt>
</event>
<event>
12    2  0.3555611E-008  0.1125133E+04  0.7818608E-02  0.9181036E-01
         -2   -1    0    0    0  501 -0.00000000000E+00  0.00000000000E+00  0.18878311131E+04  0.18878311131E+04  0.00000000000E+00 0.  1.
          2   -1    0    0  501    0  0.00000000000E+00 -0.00000000000E+00 -0.16764276543E+03  0.16764276543E+03  0.00000000000E+00 0. -1.
         23    2    1    2    0    0 -0.71797799362E+02 -0.17194175166E+03  0.37544862558E+03  0.42854390817E+03  0.89271052530E+02 0.  0.
        254    2    1    2    0    0  0.71797799362E+02  0.17194175166E+03  0.13447397221E+04  0.16269299704E+04  0.89658090452E+03 0.  0.
         23    2    4    4    0    0  0.44920686966E+03  0.22824473419E+03  0.88692961163E+03  0.10239105150E+04  0.88691240916E+02 0.  0.
         23    2    4    4    0    0 -0.37740907030E+03 -0.56302982532E+02  0.45781011050E+03  0.60301945544E+03  0.91840808884E+02 0.  0.
          1    1    3    3  502    0 -0.96536132749E+00 -0.23403320857E+02  0.61167261020E+01  0.24208710990E+02  0.00000000000E+00 0. -1.
         -1    1    3    3    0  502 -0.70832438035E+02 -0.14853843080E+03  0.36933189948E+03  0.40433519718E+03  0.00000000000E+00 0.  1.
         11    1    5    5    0    0  0.35982238549E+03  0.18103361596E+03  0.77263729442E+03  0.87132870258E+03  0.00000000000E+00 0. -1.
        -11    1    5    5    0    0  0.89384484176E+02  0.47211118226E+02  0.11429231720E+03  0.15258181237E+03  0.00000000000E+00 0.  1.
          1    1    6    6  503    0 -0.17755405396E+03 -0.25679312707E+02  0.28640794986E+03  0.33795618491E+03  0.00000000000E+00 0. -1.
         -1    1    6    6    0  503 -0.19985501634E+03 -0.30623669824E+02  0.17140216064E+03  0.26506327053E+03  0.00000000000E+00 0.  1.
<mgrwt>
<rscale>  0 0.11251333E+04</rscale>
<asrwt>0</asrwt>
<pdfrwt beam="1">  1        2 0.25791196E-01 0.11251333E+04</pdfrwt>
<pdfrwt beam="2">  1       -2 0.29043554E+00 0.11251333E+04</pdfrwt>
<totfact> 0.77001809E+00</totfact>
</mgrwt>
</event>
<event>
12    2  0.3555611E-008  0.1650992E+04  0.7818608E-02  0.8789820E-01
          1   -1    0    0  501    0  0.00000000000E+00  0.00000000000E+00  0.12331574603E+04  0.12331574603E+04  0.00000000000E+00 0. -1.
         -1   -1    0    0    0  501 -0.00000000000E+00 -0.00000000000E+00 -0.55260082693E+03  0.55260082693E+03  0.00000000000E+00 0.  1.
         23    2    1    2    0    0  0.43878328212E+02 -0.32044722464E+03  0.73983913253E+03  0.81237745879E+03  0.89350221411E+02 0.  0.
        254    2    1    2    0    0 -0.43878328212E+02  0.32044722464E+03 -0.59282499179E+02  0.97338082841E+03  0.91615724139E+03 0.  0.
         23    2    4    4    0    0 -0.41963160495E+03  0.13182164242E+03 -0.23678229000E+03  0.50815367978E+03  0.93202361236E+02 0.  0.
         23    2    4    4    0    0  0.37575327674E+03  0.18862558223E+03  0.17749979082E+03  0.46522714863E+03  0.90332656502E+02 0.  0.
          1    1    3    3  502    0 -0.74621430775E+00 -0.14994406168E+03  0.24675832618E+03  0.28874461035E+03  0.00000000000E+00 0. -1.
         -1    1    3    3    0  502  0.44624542520E+02 -0.17050316296E+03  0.49308080635E+03  0.52363284844E+03  0.00000000000E+00 0.  1.
         11    1    5    5    0    0 -0.33774436199E+03  0.10007552365E+03 -0.22863105988E+03  0.41995062332E+03  0.00000000000E+00 0. -1.
        -11    1    5    5    0    0 -0.81887242962E+02  0.31746118765E+02 -0.81512301192E+01  0.88203056460E+02  0.00000000000E+00 0.  1.
          1    1    6    6  503    0  0.23329674239E+03  0.76199458556E+02  0.12956988128E+03  0.27752852399E+03  0.00000000000E+00 0. -1.
         -1    1    6    6    0  503  0.14245653434E+03  0.11242612367E+03  0.47929909539E+02  0.18769862463E+03  0.00000000000E+00 0.  1.
<mgrwt>
<rscale>  0 0.16509922E+04</rscale>
<asrwt>0</asrwt>
<pdfrwt beam="1">  1        1 0.18971653E+00 0.16509922E+04</pdfrwt>
<pdfrwt beam="2">  1       -1 0.85015512E-01 0.16509922E+04</pdfrwt>
<totfact> 0.13217536E+01</totfact>
</mgrwt>
</event>
<event>
12    2  0.3555611E-008  0.1481881E+04  0.7818608E-02  0.8896592E-01
         -2   -1    0    0    0  501 -0.00000000000E+00  0.00000000000E+00  0.23733689307E+03  0.23733689307E+03  0.00000000000E+00 0.  1.
          2   -1    0    0  501    0  0.00000000000E+00 -0.00000000000E+00 -0.23131380200E+04  0.23131380200E+04  0.00000000000E+00 0. -1.
         23    2    1    2    0    0  0.25335031075E+03 -0.10700542349E+03 -0.12981686525E+04  0.13302116315E+04  0.92653081890E+02 0.  0.
        254    2    1    2    0    0 -0.25335031075E+03  0.10700542349E+03 -0.77763247442E+03  0.12202632816E+04  0.89927396852E+03 0.  0.
         23    2    4    4    0    0  0.31554633390E+03  0.14149024678E+03 -0.36224352559E+03  0.50949661838E+03  0.93688065041E+02 0.  0.
         23    2    4    4    0    0 -0.56889664466E+03 -0.34484823292E+02 -0.41538894882E+03  0.71076666319E+03  0.88366709579E+02 0.  0.
          1    1    3    3  502    0  0.22981037816E+03 -0.75413643214E+02 -0.12053568318E+04  0.12293840406E+04  0.00000000000E+00 0. -1.
         -1    1    3    3    0  502  0.23539932592E+02 -0.31591780275E+02 -0.92811820733E+02  0.10082759084E+03  0.00000000000E+00 0.  1.
         11    1    5    5    0    0  0.24468549492E+03  0.13630873594E+03 -0.24358925130E+03  0.37119642545E+03  0.00000000000E+00 0.  1.
        -11    1    5    5    0    0  0.70860838984E+02  0.51815108414E+01 -0.11865427430E+03  0.13830019293E+03  0.00000000000E+00 0. -1.
          3    1    6    6  503    0 -0.21155720733E+03  0.26838344703E+02 -0.17354860502E+03  0.27494702585E+03  0.00000000000E+00 0. -1.
         -3    1    6    6    0  503 -0.35733943733E+03 -0.61323167995E+02 -0.24184034381E+03  0.43581963735E+03  0.00000000000E+00 0.  1.
<mgrwt>
<rscale>  0 0.14818812E+04</rscale>
<asrwt>0</asrwt>
<pdfrwt beam="1">  1        2 0.35586739E+00 0.14818812E+04</pdfrwt>
<pdfrwt beam="2">  1       -2 0.36513368E-01 0.14818812E+04</pdfrwt>
<totfact> 0.30501196E+01</totfact>
</mgrwt>
</event>
<event>
12    2  0.3555611E-008  0.1608795E+04  0.7818608E-02  0.8815163E-01
          2   -1    0    0  501    0  0.00000000000E+00  0.00000000000E+00  0.20147610405E+04  0.20147610405E+04  0.00000000000E+00 0. -1.
         -2   -1    0    0    0  501 -0.00000000000E+00 -0.00000000000E+00 -0.32115734996E+03  0.32115734996E+03  0.00000000000E+00 0.  1.
         23    2    1    2    0    0 -0.56017567015E+02  0.34703249527E+03  0.11744716133E+04  0.12293697755E+04  0.91634893996E+02 0.  0.
        254    2    1    2    0    0  0.56017567015E+02 -0.34703249527E+03  0.51913207724E+03  0.11065486150E+04  0.91180162488E+03 0.  0.
         23    2    4    4    0    0 -0.27797895543E+03  0.63702619556E+02 -0.72113440675E+02  0.30791269038E+03  0.90992050034E+02 0.  0.
         23    2    4    4    0    0  0.33399652245E+03 -0.41073511483E+03  0.59124551791E+03  0.79863592461E+03  0.89392762983E+02 0.  0.
          4    1    3    3  502    0 -0.52117560187E+02  0.34348395132E+03  0.11737034165E+04  0.12240413288E+04  0.00000000000E+00 0. -1.
         -4    1    3    3    0  502 -0.39000068279E+01  0.35485439507E+01  0.76819687831E+00  0.53284466659E+01  0.00000000000E+00 0.  1.
         11    1    5    5    0    0 -0.16404206511E+03  0.73256778658E+02 -0.72078292049E+02  0.19357591516E+03  0.00000000000E+00 0. -1.
        -11    1    5    5    0    0 -0.11393689032E+03 -0.95541591015E+01 -0.35148625404E-01  0.11433677522E+03  0.00000000000E+00 0.  1.
          4    1    6    6  503    0  0.28052717479E+03 -0.37521403453E+03  0.48366732668E+03  0.67336108471E+03  0.00000000000E+00 0. -1.
         -4    1    6    6    0  503  0.53469347654E+02 -0.35521080298E+02  0.10757819123E+03  0.12527483990E+03  0.00000000000E+00 0.  1.
<mgrwt>
<rscale>  0 0.16087950E+04</rscale>
<asrwt>0</asrwt>
<pdfrwt beam="1">  1        2 0.30996323E+00 0.16087950E+04</pdfrwt>
<pdfrwt beam="2">  1       -2 0.49408824E-01 0.16087950E+04</pdfrwt>
<totfact> 0.24364715E+01</totfact>
</mgrwt>
</event>
<event>
12    2  0.3555611E-008  0.1337033E+04  0.7818608E-02  0.9000702E-01
          2   -1    0    0  501    0  0.00000000000E+00  0.00000000000E+00  0.10436599463E+04  0.10436599463E+04  0.00000000000E+00 0. -1.
         -2   -1    0    0    0  501 -0.00000000000E+00 -0.00000000000E+00 -0.42821840912E+03  0.42821840912E+03  0.00000000000E+00 0.  1.
         23    2    1    2    0    0  0.84581590295E+02 -0.94086561711E+02  0.57847257957E+03  0.60427977086E+03  0.12048730078E+03 0.  0.
        254    2    1    2    0    0 -0.84581590295E+02  0.94086561711E+02  0.36968957609E+02  0.86759858456E+03  0.85752800164E+03 0.  0.
         23    2    4    4    0    0  0.36813847647E+03  0.10081181111E+03 -0.60904453397E+02  0.39715744791E+03  0.91300201936E+02 0.  0.
         23    2    4    4    0    0 -0.45272006676E+03 -0.67252493954E+01  0.97873411006E+02  0.47044113665E+03  0.82066866903E+02 0.  0.
          3    1    3    3  502    0  0.97638463383E+02 -0.46244094746E+02  0.49932505738E+03  0.51087894726E+03  0.00000000000E+00 0. -1.
         -3    1    3    3    0  502 -0.13056873087E+02 -0.47842466966E+02  0.79147522187E+02  0.93400823596E+02  0.00000000000E+00 0.  1.
         11    1    5    5    0    0  0.30365675040E+03  0.93027324657E+02 -0.15603850402E+02  0.31797010134E+03  0.00000000000E+00 0. -1.
        -11    1    5    5    0    0  0.64481726066E+02  0.77844864501E+01 -0.45300602995E+02  0.79187346574E+02  0.00000000000E+00 0.  1.
          3    1    6    6  503    0 -0.26514515675E+03 -0.15229616332E+02  0.96791904972E+02  0.28267042333E+03  0.00000000000E+00 0. -1.
         -3    1    6    6    0  503 -0.18757491001E+03  0.85043669362E+01  0.10815060339E+01  0.18777071332E+03  0.00000000000E+00 0.  1.
<mgrwt>
<rscale>  0 0.13370331E+04</rscale>
<asrwt>0</asrwt>
<pdfrwt beam="1">  1        2 0.16056307E+00 0.13370331E+04</pdfrwt>
<pdfrwt beam="2">  1       -2 0.65879756E-01 0.13370331E+04</pdfrwt>
<totfact> 0.48992712E+01</totfact>
</mgrwt>
</event>
<event>
12    2  0.3555611E-008  0.1643242E+04  0.7818608E-02  0.8794414E-01
         -2   -1    0    0    0  501 -0.00000000000E+00  0.00000000000E+00  0.29588912437E+03  0.29588912437E+03  0.00000000000E+00 0. -1.
          2   -1    0    0  501    0  0.00000000000E+00 -0.00000000000E+00 -0.22814670590E+04  0.22814670590E+04  0.00000000000E+00 0.  1.
         23    2    1    2    0    0  0.10620595381E+03  0.32638792180E+03 -0.14100175023E+04  0.14540699450E+04  0.91439969183E+02 0.  0.
        254    2    1    2    0    0 -0.10620595381E+03 -0.32638792180E+03 -0.57556043239E+03  0.11232862384E+04  0.90149508154E+03 0.  0.
         23    2    4    4    0    0  0.54160706739E+02 -0.19434356145E+03  0.21038695292E+03  0.30532963050E+03  0.90888455091E+02 0.  0.
         23    2    4    4    0    0 -0.16036666055E+03 -0.13204436034E+03 -0.78594738531E+03  0.81795660795E+03  0.90479506546E+02 0.  0.
          3    1    3    3  502    0  0.45626641669E+02  0.97025335418E+02 -0.62003737739E+03  0.62923926729E+03  0.00000000000E+00 0. -1.
         -3    1    3    3    0  502  0.60579312144E+02  0.22936258638E+03 -0.78998012489E+03  0.82483067766E+03  0.00000000000E+00 0.  1.
         11    1    5    5    0    0  0.25032175820E+02 -0.10996393283E+03  0.17730132182E+03  0.21012956734E+03  0.00000000000E+00 0. -1.
        -11    1    5    5    0    0  0.29128530919E+02 -0.84379628628E+02  0.33085631095E+02  0.95200063161E+02  0.00000000000E+00 0.  1.
          4    1    6    6  503    0  0.27288362384E+01 -0.37434294414E+02 -0.15185447323E+03  0.15642427556E+03  0.00000000000E+00 0. -1.
         -4    1    6    6    0  503 -0.16309549679E+03 -0.94610065930E+02 -0.63409291208E+03  0.66153233239E+03  0.00000000000E+00 0.  1.
<mgrwt>
<rscale>  0 0.16432423E+04</rscale>
<asrwt>0</asrwt>
<pdfrwt beam="1">  1        2 0.35099493E+00 0.16432423E+04</pdfrwt>
<pdfrwt beam="2">  1       -2 0.45521404E-01 0.16432423E+04</pdfrwt>
<totfact> 0.20333804E+01</totfact>
</mgrwt>
</event>
<event>
12    2  0.3555611E-008  0.1966764E+04  0.7818608E-02  0.8622319E-01
         -2   -1    0    0    0  501 -0.00000000000E+00  0.00000000000E+00  0.83268337253E+03  0.83268337253E+03  0.00000000000E+00 0.  1.
          2   -1    0    0  501    0  0.00000000000E+00 -0.00000000000E+00 -0.11613535009E+04  0.11613535009E+04  0.00000000000E+00 0. -1.
         23    2    1    2    0    0 -0.76380487520E+02 -0.54637441941E+03  0.41304838154E+03  0.69514004779E+03  0.90839063691E+02 0.  0.
        254    2    1    2    0    0  0.76380487520E+02  0.54637441941E+03 -0.74171850991E+03  0.12988968256E+04  0.91248431804E+03 0.  0.
         23    2    4    4    0    0 -0.19792521940E+03  0.69050132559E+02 -0.70264845880E+03  0.73880036008E+03  0.90381425757E+02 0.  0.
         23    2    4    4    0    0  0.27430570692E+03  0.47732428685E+03 -0.39070051105E+02  0.56009646556E+03  0.95391226908E+02 0.  0.
          3    1    3    3  502    0  0.12217460298E+02 -0.11397442702E+02  0.15137732954E+02  0.22545930792E+02  0.00000000000E+00 0. -1.
         -3    1    3    3    0  502 -0.88597947818E+02 -0.53497697671E+03  0.39791064858E+03  0.67259411700E+03  0.00000000000E+00 0.  1.
         11    1    5    5    0    0 -0.16610172809E+02 -0.88580413429E+01 -0.16514276555E+03  0.16621220097E+03  0.00000000000E+00 0. -1.
        -11    1    5    5    0    0 -0.18131504659E+03  0.77908173901E+02 -0.53750569325E+03  0.57258815911E+03  0.00000000000E+00 0.  1.
          1    1    6    6  503    0  0.17585816828E+03  0.34871932446E+03 -0.65459558677E+02  0.39600027327E+03  0.00000000000E+00 0. -1.
         -1    1    6    6    0  503  0.98447538638E+02  0.12860496239E+03  0.26389507571E+02  0.16409619229E+03  0.00000000000E+00 0.  1.
<mgrwt>
<rscale>  0 0.19667636E+04</rscale>
<asrwt>0</asrwt>
<pdfrwt beam="1">  1        2 0.17866977E+00 0.19667636E+04</pdfrwt>
<pdfrwt beam="2">  1       -2 0.12810513E+00 0.19667636E+04</pdfrwt>
<totfact> 0.83917413E+00</totfact>
</mgrwt>
</event>
<event>
12    2  0.3555611E-008  0.1524609E+04  0.7818608E-02  0.8868251E-01
          2   -1    0    0  501    0  0.00000000000E+00  0.00000000000E+00  0.13062062077E+04  0.13062062077E+04  0.00000000000E+00 0. -1.
         -2   -1    0    0    0  501 -0.00000000000E+00 -0.00000000000E+00 -0.44488219244E+03  0.44488219244E+03  0.00000000000E+00 0.  1.
         23    2    1    2    0    0  0.94228530899E+02 -0.42960800721E+03  0.53308506161E+03  0.69712822467E+03  0.91465965341E+02 0.  0.
        254    2    1    2    0    0 -0.94228530899E+02  0.42960800721E+03  0.32823895369E+03  0.10539601755E+04  0.89980508166E+03 0.  0.
         23    2    4    4    0    0  0.12327637687E+03 -0.24411131741E+03  0.90515747318E+02  0.30167542529E+03  0.89596659164E+02 0.  0.
         23    2    4    4    0    0 -0.21750490777E+03  0.67371932462E+03  0.23772320637E+03  0.75228475023E+03  0.90630620190E+02 0.  0.
          2    1    3    3  502    0  0.75692493700E+02 -0.39200527654E+03  0.43490804146E+03  0.59037487664E+03  0.00000000000E+00 0. -1.
         -2    1    3    3    0  502  0.18536037199E+02 -0.37602730669E+02  0.98177020156E+02  0.10675334803E+03  0.00000000000E+00 0.  1.
         11    1    5    5    0    0  0.27955140495E+00 -0.39126283216E+02 -0.12916455808E+02  0.41204114090E+02  0.00000000000E+00 0. -1.
        -11    1    5    5    0    0  0.12299682547E+03 -0.20498503419E+03  0.10343220313E+03  0.26047131120E+03  0.00000000000E+00 0.  1.
          1    1    6    6  503    0 -0.23480418069E+02  0.10503947282E+03  0.70197457164E+02  0.12850020963E+03  0.00000000000E+00 0. -1.
         -1    1    6    6    0  503 -0.19402448970E+03  0.56867985180E+03  0.16752574921E+03  0.62378454060E+03  0.00000000000E+00 0.  1.
<mgrwt>
<rscale>  0 0.15246086E+04</rscale>
<asrwt>0</asrwt>
<pdfrwt beam="1">  1        2 0.20095480E+00 0.15246086E+04</pdfrwt>
<pdfrwt beam="2">  1       -2 0.68443415E-01 0.15246086E+04</pdfrwt>
<totfact> 0.30868712E+01</totfact>
</mgrwt>
</event>
<event>
12    2  0.3555611E-008  0.1541735E+04  0.7818608E-02  0.8857164E-01
         -2   -1    0    0    0  501 -0.00000000000E+00  0.00000000000E+00  0.60899030315E+03  0.60899030315E+03  0.00000000000E+00 0.  1.
          2   -1    0    0  501    0  0.00000000000E+00 -0.00000000000E+00 -0.97577414235E+03  0.97577414235E+03  0.00000000000E+00 0. -1.
         23    2    1    2    0    0 -0.10462098085E+03 -0.36923692922E+03 -0.45759415815E+03  0.60311409814E+03  0.84099597320E+02 0.  0.
        254    2    1    2    0    0  0.10462098085E+03  0.36923692922E+03  0.90810318957E+02  0.98165034736E+03  0.89894907025E+03 0.  0.
         23    2    4    4    0    0 -0.38603737971E+03  0.19670106006E+03 -0.21331136283E+02  0.44198752196E+03  0.84745422445E+02 0.  0.
         23    2    4    4    0    0  0.49065836056E+03  0.17253586916E+03  0.11214145524E+03  0.53966282540E+03  0.90255228098E+02 0.  0.
          1    1    3    3  502    0 -0.97685976940E+01 -0.18396794744E+03 -0.23028079353E+03  0.29490485763E+03  0.00000000000E+00 0. -1.
         -1    1    3    3    0  502 -0.94852383156E+02 -0.18526898178E+03 -0.22731336462E+03  0.30820924051E+03  0.00000000000E+00 0.  1.
         11    1    5    5    0    0 -0.33219696160E+02  0.21036316898E+02 -0.27204511479E+02  0.47813808533E+02  0.00000000000E+00 0. -1.
        -11    1    5    5    0    0 -0.35281768355E+03  0.17566474316E+03  0.58733751955E+01  0.39417371342E+03  0.00000000000E+00 0.  1.
          3    1    6    6  503    0  0.12540878411E+03  0.37265006197E+02  0.68656743330E+02  0.14774908535E+03  0.00000000000E+00 0. -1.
         -3    1    6    6    0  503  0.36524957646E+03  0.13527086296E+03  0.43484711910E+02  0.39191374005E+03  0.00000000000E+00 0.  1.
<mgrwt>
<rscale>  0 0.15417354E+04</rscale>
<asrwt>0</asrwt>
<pdfrwt beam="1">  1        2 0.15011910E+00 0.15417354E+04</pdfrwt>
<pdfrwt beam="2">  1       -2 0.93690817E-01 0.15417354E+04</pdfrwt>
<totfact> 0.24220348E+01</totfact>
</mgrwt>
</event>
<event>
12    2  0.3555611E-008  0.2099408E+04  0.7818608E-02  0.8561504E-01
         -1   -1    0    0    0  501 -0.00000000000E+00  0.00000000000E+00  0.14246281013E+04  0.14246281013E+04  0.00000000000E+00 0.  1.
          1   -1    0    0  501    0  0.00000000000E+00 -0.00000000000E+00 -0.77345024493E+03  0.77345024493E+03  0.00000000000E+00 0. -1.
         23    2    1    2    0    0  0.53283346950E+03 -0.55297795213E+03 -0.58709718143E+02  0.77579460364E+03  0.93350491593E+02 0.  0.
        254    2    1    2    0    0 -0.53283346950E+03  0.55297795213E+03  0.70988757452E+03  0.14222837426E+04  0.96397850299E+03 0.  0.
         23    2    4    4    0    0  0.24067291771E+02 -0.24187648935E+02 -0.19013189303E+03  0.21334465579E+03  0.90562290801E+02 0.  0.
         23    2    4    4    0    0 -0.55690076127E+03  0.57716560106E+03  0.90001946755E+03  0.12089390868E+04  0.90774912192E+02 0.  0.
          1    1    3    3  502    0  0.46065417253E+03 -0.44025739610E+03 -0.72131306158E+02  0.64127355070E+03  0.00000000000E+00 0. -1.
         -1    1    3    3    0  502  0.72179296963E+02 -0.11272055602E+03  0.13421588015E+02  0.13452105294E+03  0.00000000000E+00 0.  1.
         11    1    5    5    0    0  0.51442346285E+02 -0.29516943271E+02 -0.79109906111E+02  0.98873364342E+02  0.00000000000E+00 0. -1.
        -11    1    5    5    0    0 -0.27375054514E+02  0.53292943361E+01 -0.11102198691E+03  0.11447129145E+03  0.00000000000E+00 0.  1.
          3    1    6    6  503    0 -0.41278651681E+03  0.43331959083E+03  0.72777489949E+03  0.94223929051E+03  0.00000000000E+00 0. -1.
         -3    1    6    6    0  503 -0.14411424446E+03  0.14384601023E+03  0.17224456805E+03  0.26669979629E+03  0.00000000000E+00 0.  1.
<mgrwt>
<rscale>  0 0.20994084E+04</rscale>
<asrwt>0</asrwt>
<pdfrwt beam="1">  1        1 0.11899235E+00 0.20994084E+04</pdfrwt>
<pdfrwt beam="2">  1       -1 0.21917355E+00 0.20994084E+04</pdfrwt>
<totfact> 0.23918463E+00</totfact>
</mgrwt>
</event>
<event>
12    2  0.3555611E-008  0.1560169E+04  0.7818608E-02  0.8845398E-01
         -2   -1    0    0    0  501 -0.00000000000E+00  0.00000000000E+00  0.24280003014E+03  0.24280003014E+03  0.00000000000E+00 0.  1.
          2   -1    0    0  501    0  0.00000000000E+00 -0.00000000000E+00 -0.25063082669E+04  0.25063082669E+04  0.00000000000E+00 0. -1.
         23    2    1    2    0    0  0.31765587992E+03  0.36787956267E+03 -0.46288407746E+03  0.67746806003E+03  0.91981914106E+02 0.  0.
        254    2    1    2    0    0 -0.31765587992E+03 -0.36787956267E+03 -0.18006241593E+04  0.20716402370E+04  0.90177895176E+03 0.  0.
         23    2    4    4    0    0  0.20070080722E+03 -0.43018184312E+03 -0.70720168174E+03  0.85664869862E+03  0.91517987513E+02 0.  0.
         23    2    4    4    0    0 -0.51835668714E+03  0.62302280447E+02 -0.10934224776E+04  0.12149915384E+04  0.89757978150E+02 0.  0.
          4    1    3    3  502    0  0.21228274088E+03  0.23477014256E+03 -0.35825995868E+03  0.47804934882E+03  0.00000000000E+00 0.  1.
         -4    1    3    3    0  502  0.10537313903E+03  0.13310942010E+03 -0.10462411878E+03  0.19941871121E+03  0.00000000000E+00 0. -1.
         11    1    5    5    0    0  0.15734489172E+03 -0.33763709193E+03 -0.61495839457E+03  0.71897847523E+03  0.00000000000E+00 0. -1.
        -11    1    5    5    0    0  0.43355915498E+02 -0.92544751189E+02 -0.92243287165E+02  0.13767022339E+03  0.00000000000E+00 0.  1.
          3    1    6    6  503    0 -0.19768067700E+03  0.16720411800E+02 -0.32029806614E+03  0.37675996789E+03  0.00000000000E+00 0. -1.
         -3    1    6    6    0  503 -0.32067601013E+03  0.45581868646E+02 -0.77312441143E+03  0.83823157049E+03  0.00000000000E+00 0.  1.
<mgrwt>
<rscale>  0 0.15601689E+04</rscale>
<asrwt>0</asrwt>
<pdfrwt beam="1">  1        2 0.38558586E+00 0.15601689E+04</pdfrwt>
<pdfrwt beam="2">  1       -2 0.37353853E-01 0.15601689E+04</pdfrwt>
<totfact> 0.22492318E+01</totfact>
</mgrwt>
</event>
<event>
12    2  0.3555611E-008  0.1564616E+04  0.7818608E-02  0.8842586E-01
          2   -1    0    0  501    0  0.00000000000E+00  0.00000000000E+00  0.33580664882E+04  0.33580664882E+04  0.00000000000E+00 0. -1.
         -2   -1    0    0    0  501 -0.00000000000E+00 -0.00000000000E+00 -0.18224945031E+03  0.18224945031E+03  0.00000000000E+00 0.  1.
         23    2    1    2    0    0 -0.15465581320E+03 -0.41836160238E+03  0.16447717451E+04  0.17066720840E+04  0.92253226415E+02 0.  0.
        254    2    1    2    0    0  0.15465581320E+03  0.41836160238E+03  0.15310452927E+04  0.18336438545E+04  0.90509957786E+03 0.  0.
         23    2    4    4    0    0 -0.30395093791E+03  0.17193253995E+03  0.22867420629E+03  0.42813765548E+03  0.95199729372E+02 0.  0.
         23    2    4    4    0    0  0.45860675111E+03  0.24642906243E+03  0.13023710865E+04  0.14055061990E+04  0.90718210373E+02 0.  0.
          1    1    3    3  502    0 -0.27812855596E+02 -0.67413369492E+02  0.16188514134E+03  0.17755257336E+03  0.00000000000E+00 0. -1.
         -1    1    3    3    0  502 -0.12684295760E+03 -0.35094823289E+03  0.14828866038E+04  0.15291195106E+04  0.00000000000E+00 0.  1.
         11    1    5    5    0    0 -0.28280984852E+03  0.14728220724E+03  0.17067907789E+03  0.36166947151E+03  0.00000000000E+00 0.  1.
        -11    1    5    5    0    0 -0.21141089386E+02  0.24650332708E+02  0.57995128399E+02  0.66468183976E+02  0.00000000000E+00 0. -1.
          3    1    6    6  503    0  0.85691829915E+02  0.84586621039E+02  0.34472355461E+03  0.36514697763E+03  0.00000000000E+00 0. -1.
         -3    1    6    6    0  503  0.37291492119E+03  0.16184244139E+03  0.95764753185E+03  0.10403592214E+04  0.00000000000E+00 0.  1.
<mgrwt>
<rscale>  0 0.15646160E+04</rscale>
<asrwt>0</asrwt>
<pdfrwt beam="1">  1        2 0.51662557E+00 0.15646160E+04</pdfrwt>
<pdfrwt beam="2">  1       -2 0.28038379E-01 0.15646160E+04</pdfrwt>
<totfact> 0.11504289E+01</totfact>
</mgrwt>
</event>
<event>
12    2  0.3555611E-008  0.1365602E+04  0.7818608E-02  0.8979101E-01
         -2   -1    0    0    0  501 -0.00000000000E+00  0.00000000000E+00  0.36382414959E+03  0.36382414959E+03  0.00000000000E+00 0.  1.
          2   -1    0    0  501    0  0.00000000000E+00 -0.00000000000E+00 -0.12814351570E+04  0.12814351570E+04  0.00000000000E+00 0. -1.
         23    2    1    2    0    0 -0.15098728291E+03 -0.21820821360E+03  0.61439307593E+02  0.28972802873E+03  0.98770228443E+02 0.  0.
        254    2    1    2    0    0  0.15098728291E+03  0.21820821360E+03 -0.97905031500E+03  0.13555312779E+04  0.89917381072E+03 0.  0.
         23    2    4    4    0    0 -0.11031946147E+03  0.48314498820E+03 -0.76756098735E+03  0.91822217029E+03  0.91556657350E+02 0.  0.
         23    2    4    4    0    0  0.26130674439E+03 -0.26493677460E+03 -0.21148932765E+03  0.43730910758E+03  0.89659414815E+02 0.  0.
          2    1    3    3  502    0 -0.11082266484E+03 -0.16776444691E+03  0.88651974886E+02  0.21974017689E+03  0.00000000000E+00 0.  1.
         -2    1    3    3    0  502 -0.40164618079E+02 -0.50443766693E+02 -0.27212667293E+02  0.69987851837E+02  0.00000000000E+00 0. -1.
         11    1    5    5    0    0 -0.38656409854E+02  0.26678767437E+03 -0.34198300177E+03  0.43545649004E+03  0.00000000000E+00 0.  1.
        -11    1    5    5    0    0 -0.71663051620E+02  0.21635731383E+03 -0.42557798558E+03  0.48276568024E+03  0.00000000000E+00 0. -1.
          3    1    6    6  503    0  0.24871637258E+03 -0.27000705345E+03 -0.21163186726E+03  0.42373540110E+03  0.00000000000E+00 0. -1.
         -3    1    6    6    0  503  0.12590371807E+02  0.50702788588E+01  0.14253961575E+00  0.13573706475E+02  0.00000000000E+00 0.  1.
<mgrwt>
<rscale>  0 0.13656018E+04</rscale>
<asrwt>0</asrwt>
<pdfrwt beam="1">  1        2 0.19714387E+00 0.13656018E+04</pdfrwt>
<pdfrwt beam="2">  1       -2 0.55972946E-01 0.13656018E+04</pdfrwt>
<totfact> 0.49564856E+01</totfact>
</mgrwt>
</event>
<event>
12    2  0.3555611E-008  0.1526839E+04  0.7818608E-02  0.8866799E-01
         -2   -1    0    0    0  501 -0.00000000000E+00  0.00000000000E+00  0.42292306503E+03  0.42292306503E+03  0.00000000000E+00 0.  1.
          2   -1    0    0  501    0  0.00000000000E+00 -0.00000000000E+00 -0.13780508057E+04  0.13780508057E+04  0.00000000000E+00 0. -1.
         23    2    1    2    0    0  0.13484976425E+03  0.44279725626E+03 -0.62642862046E+03  0.78426983928E+03  0.91719655501E+02 0.  0.
        254    2    1    2    0    0 -0.13484976425E+03 -0.44279725626E+03 -0.32869912025E+03  0.10167040315E+04  0.84343945065E+03 0.  0.
         23    2    4    4    0    0 -0.33158682898E+03 -0.47492222438E+03 -0.47343702949E+03  0.75369234643E+03  0.91698352326E+02 0.  0.
         23    2    4    4    0    0  0.19673706472E+03  0.32124968115E+02  0.14473790925E+03  0.26301168505E+03  0.92133587183E+02 0.  0.
          4    1    3    3  502    0  0.14328687080E+03  0.38772381711E+03 -0.52133241792E+03  0.66531825142E+03  0.00000000000E+00 0. -1.
         -4    1    3    3    0  502 -0.84371065425E+01  0.55073439149E+02 -0.10509620255E+03  0.11895158787E+03  0.00000000000E+00 0.  1.
         11    1    5    5    0    0 -0.28114105918E+03 -0.42260197897E+03 -0.37379844784E+03  0.63036339312E+03  0.00000000000E+00 0.  1.
        -11    1    5    5    0    0 -0.50445769792E+02 -0.52320245409E+02 -0.99638581658E+02  0.12332895331E+03  0.00000000000E+00 0. -1.
          2    1    6    6  503    0  0.10979515319E+03 -0.21119432040E+02  0.10564218644E+03  0.15382222736E+03  0.00000000000E+00 0. -1.
         -2    1    6    6    0  503  0.86941911534E+02  0.53244400155E+02  0.39095722806E+02  0.10918945769E+03  0.00000000000E+00 0.  1.
<mgrwt>
<rscale>  0 0.15268392E+04</rscale>
<asrwt>0</asrwt>
<pdfrwt beam="1">  1        2 0.21200782E+00 0.15268392E+04</pdfrwt>
<pdfrwt beam="2">  1       -2 0.65065087E-01 0.15268392E+04</pdfrwt>
<totfact> 0.31289691E+01</totfact>
</mgrwt>
</event>
<event>
12    2  0.3555611E-008  0.1550659E+04  0.7818608E-02  0.8851447E-01
         -2   -1    0    0    0  501 -0.00000000000E+00  0.00000000000E+00  0.53145449192E+03  0.53145449192E+03  0.00000000000E+00 0.  1.
          2   -1    0    0  501    0  0.00000000000E+00 -0.00000000000E+00 -0.11311144345E+04  0.11311144345E+04  0.00000000000E+00 0. -1.
         23    2    1    2    0    0 -0.49096075850E+03  0.10007664679E+03 -0.28010456378E+02  0.50995870197E+03  0.90639342596E+02 0.  0.
        254    2    1    2    0    0  0.49096075850E+03 -0.10007664679E+03 -0.57164948622E+03  0.11526102245E+04  0.86641179173E+03 0.  0.
         23    2    4    4    0    0  0.34556368639E+03  0.24542417777E+03  0.33432237694E+02  0.43506054958E+03  0.92264179931E+02 0.  0.
         23    2    4    4    0    0  0.14539707211E+03 -0.34550082456E+03 -0.60508172392E+03  0.71754967490E+03  0.90788297584E+02 0.  0.
          1    1    3    3  502    0 -0.24530420911E+03  0.57117211725E+02  0.30774997826E+02  0.25373929805E+03  0.00000000000E+00 0. -1.
         -1    1    3    3    0  502 -0.24565654939E+03  0.42959435067E+02 -0.58785454204E+02  0.25621940392E+03  0.00000000000E+00 0.  1.
         11    1    5    5    0    0  0.30710732317E+03  0.23883706739E+03  0.50805490100E+02  0.39235092778E+03  0.00000000000E+00 0. -1.
        -11    1    5    5    0    0  0.38456363220E+02  0.65871103790E+01 -0.17373252406E+02  0.42709621802E+02  0.00000000000E+00 0.  1.
          1    1    6    6  503    0  0.10002597128E+03 -0.18957163774E+03 -0.41847544962E+03  0.47017475762E+03  0.00000000000E+00 0. -1.
         -1    1    6    6    0  503  0.45371100831E+02 -0.15592918682E+03 -0.18660627430E+03  0.24737491728E+03  0.00000000000E+00 0.  1.
<mgrwt>
<rscale>  0 0.15506590E+04</rscale>
<asrwt>0</asrwt>
<pdfrwt beam="1">  1        2 0.17401760E+00 0.15506590E+04</pdfrwt>
<pdfrwt beam="2">  1       -2 0.81762230E-01 0.15506590E+04</pdfrwt>
<totfact> 0.26411568E+01</totfact>
</mgrwt>
</event>
<event>
12    2  0.3555611E-008  0.1892593E+04  0.7818608E-02  0.8658552E-01
          1   -1    0    0  501    0  0.00000000000E+00  0.00000000000E+00  0.17733771997E+04  0.17733771997E+04  0.00000000000E+00 0. -1.
         -1   -1    0    0    0  501 -0.00000000000E+00 -0.00000000000E+00 -0.50495592984E+03  0.50495592984E+03  0.00000000000E+00 0.  1.
         23    2    1    2    0    0  0.43686698923E+03 -0.51196600204E+03  0.81331518021E+03  0.10616365099E+04  0.11237679180E+03 0.  0.
        254    2    1    2    0    0 -0.43686698923E+03  0.51196600204E+03  0.45510608967E+03  0.12166966196E+04  0.90568601503E+03 0.  0.
         23    2    4    4    0    0 -0.16364574372E+03 -0.12053514990E+03  0.47153473768E+03  0.52162619436E+03  0.91870702658E+02 0.  0.
         23    2    4    4    0    0 -0.27322124550E+03  0.63250115195E+03 -0.16428648008E+02  0.69507042526E+03  0.90252087994E+02 0.  0.
          3    1    3    3  502    0  0.14686334926E+03 -0.23543268732E+03  0.27621854920E+03  0.39152787965E+03  0.00000000000E+00 0. -1.
         -3    1    3    3    0  502  0.29000363997E+03 -0.27653331472E+03  0.53709663101E+03  0.67010863029E+03  0.00000000000E+00 0.  1.
         11    1    5    5    0    0 -0.17429256269E+03 -0.11605003826E+03  0.42644372744E+03  0.47507868976E+03  0.00000000000E+00 0. -1.
        -11    1    5    5    0    0  0.10646818968E+02 -0.44851116460E+01  0.45091010237E+02  0.46547504603E+02  0.00000000000E+00 0.  1.
          4    1    6    6  503    0 -0.13268367447E+02  0.51620554335E+02 -0.24418588054E+02  0.58625921290E+02  0.00000000000E+00 0.  1.
         -4    1    6    6    0  503 -0.25995287806E+03  0.58088059761E+03  0.79899400460E+01  0.63644450397E+03  0.00000000000E+00 0. -1.
<mgrwt>
<rscale>  0 0.18925933E+04</rscale>
<asrwt>0</asrwt>
<pdfrwt beam="1">  1        1 0.27282726E+00 0.18925933E+04</pdfrwt>
<pdfrwt beam="2">  1       -1 0.77685528E-01 0.18925933E+04</pdfrwt>
<totfact> 0.66016001E+00</totfact>
</mgrwt>
</event>
<event>
12    2  0.3555611E-008  0.1459459E+04  0.7818608E-02  0.8911869E-01
          1   -1    0    0  501    0  0.00000000000E+00  0.00000000000E+00  0.25357037410E+04  0.25357037410E+04  0.00000000000E+00 0. -1.
         -1   -1    0    0    0  501 -0.00000000000E+00 -0.00000000000E+00 -0.21000275836E+03  0.21000275836E+03  0.00000000000E+00 0.  1.
         23    2    1    2    0    0 -0.78008610416E+02 -0.15633624810E+03  0.14936017672E+04  0.15063923735E+04  0.88574139201E+02 0.  0.
        254    2    1    2    0    0  0.78008610416E+02  0.15633624810E+03  0.83209921541E+03  0.12393141258E+04  0.90165627180E+03 0.  0.
         23    2    4    4    0    0 -0.21251544684E+03 -0.16245106430E+03 -0.16179116571E+02  0.28320359949E+03  0.91593403231E+02 0.  0.
         23    2    4    4    0    0  0.29052405726E+03  0.31878731239E+03  0.84827833198E+03  0.95611052636E+03  0.92420948444E+02 0.  0.
          3    1    3    3  502    0 -0.97474949503E+02 -0.13874918778E+03  0.13082507960E+04  0.13191940145E+04  0.00000000000E+00 0. -1.
         -3    1    3    3    0  502  0.19466339087E+02 -0.17587060320E+02  0.18535097127E+03  0.18719835896E+03  0.00000000000E+00 0.  1.
         11    1    5    5    0    0 -0.29581190758E+02 -0.43888681447E+02  0.29327352465E+02  0.60509146486E+02  0.00000000000E+00 0. -1.
        -11    1    5    5    0    0 -0.18293425608E+03 -0.11856238285E+03 -0.45506469037E+02  0.22269445301E+03  0.00000000000E+00 0.  1.
          3    1    6    6  503    0  0.52588995747E+02  0.11863365827E+03  0.23132914678E+03  0.26524087448E+03  0.00000000000E+00 0. -1.
         -3    1    6    6    0  503  0.23793506151E+03  0.20015365413E+03  0.61694918520E+03  0.69086965187E+03  0.00000000000E+00 0.  1.
<mgrwt>
<rscale>  0 0.14594585E+04</rscale>
<asrwt>0</asrwt>
<pdfrwt beam="1">  1        1 0.39010825E+00 0.14594585E+04</pdfrwt>
<pdfrwt beam="2">  1       -1 0.32308118E-01 0.14594585E+04</pdfrwt>
<totfact> 0.11151012E+01</totfact>
</mgrwt>
</event>
<event>
12    2  0.3555611E-008  0.2612795E+04  0.7818608E-02  0.8363868E-01
          2   -1    0    0  501    0  0.00000000000E+00  0.00000000000E+00  0.99839658284E+03  0.99839658284E+03  0.00000000000E+00 0. -1.
         -2   -1    0    0    0  501 -0.00000000000E+00 -0.00000000000E+00 -0.17094150094E+04  0.17094150094E+04  0.00000000000E+00 0.  1.
         23    2    1    2    0    0 -0.40859849097E+03 -0.75432437176E+03  0.48242049009E+03  0.98841476531E+03  0.90973811377E+02 0.  0.
        254    2    1    2    0    0  0.40859849097E+03  0.75432437176E+03 -0.11934389167E+04  0.17193968269E+04  0.89222811884E+03 0.  0.
         23    2    4    4    0    0  0.20620459183E+03  0.32286770076E+03 -0.11690869705E+04  0.12335294019E+04  0.89814001538E+02 0.  0.
         23    2    4    4    0    0  0.20239389914E+03  0.43145667100E+03 -0.24351946153E+02  0.48586742504E+03  0.91411093793E+02 0.  0.
          2    1    3    3  502    0 -0.34197769050E+03 -0.62759917393E+03  0.36114615651E+03  0.80078462165E+03  0.00000000000E+00 0. -1.
         -2    1    3    3    0  502 -0.66620800475E+02 -0.12672519783E+03  0.12127433358E+03  0.18763014365E+03  0.00000000000E+00 0.  1.
         11    1    5    5    0    0  0.19956627558E+02  0.10177295448E+03 -0.27750401234E+03  0.29625070145E+03  0.00000000000E+00 0. -1.
        -11    1    5    5    0    0  0.18624796427E+03  0.22109474628E+03 -0.89158295817E+03  0.93727870046E+03  0.00000000000E+00 0.  1.
          3    1    6    6  503    0  0.94068243270E+02  0.12180662105E+03  0.18579386538E+02  0.15501896957E+03  0.00000000000E+00 0. -1.
         -3    1    6    6    0  503  0.10832565587E+03  0.30965004996E+03 -0.42931332692E+02  0.33084845547E+03  0.00000000000E+00 0.  1.
<mgrwt>
<rscale>  0 0.26127948E+04</rscale>
<asrwt>0</asrwt>
<pdfrwt beam="1">  1        2 0.15359948E+00 0.26127948E+04</pdfrwt>
<pdfrwt beam="2">  1       -2 0.26298692E+00 0.26127948E+04</pdfrwt>
<totfact> 0.11933921E+00</totfact>
</mgrwt>
</event>
<event>
12    2  0.3555611E-008  0.1929373E+04  0.7818608E-02  0.8640372E-01
         -2   -1    0    0    0  501 -0.00000000000E+00  0.00000000000E+00  0.11116802416E+04  0.11116802416E+04  0.00000000000E+00 0.  1.
          2   -1    0    0  501    0  0.00000000000E+00 -0.00000000000E+00 -0.83712911661E+03  0.83712911661E+03  0.00000000000E+00 0. -1.
         23    2    1    2    0    0 -0.14579285863E+03  0.53082261425E+03  0.61433877415E+03  0.83000654417E+03  0.92035474268E+02 0.  0.
        254    2    1    2    0    0  0.14579285863E+03 -0.53082261425E+03 -0.33978764919E+03  0.11188028140E+04  0.91281755276E+03 0.  0.
         23    2    4    4    0    0  0.32863112945E+03 -0.51902308335E+03 -0.54687038389E+03  0.82752100875E+03  0.91325915509E+02 0.  0.
         23    2    4    4    0    0 -0.18283827083E+03 -0.11799530895E+02  0.20708273470E+03  0.29128180525E+03  0.91612056249E+02 0.  0.
          2    1    3    3  502    0 -0.12356596492E+03  0.28081427712E+03  0.35201765454E+03  0.46694928529E+03  0.00000000000E+00 0.  1.
         -2    1    3    3    0  502 -0.22226893705E+02  0.25000833713E+03  0.26232111961E+03  0.36305725889E+03  0.00000000000E+00 0. -1.
         11    1    5    5    0    0  0.51919769820E+02 -0.94259858892E+02 -0.53707010424E+02  0.12027063842E+03  0.00000000000E+00 0. -1.
        -11    1    5    5    0    0  0.27671135963E+03 -0.42476322446E+03 -0.49316337347E+03  0.70725037033E+03  0.00000000000E+00 0.  1.
          4    1    6    6  503    0 -0.18316323833E+03 -0.28051282333E+02  0.20230115272E+03  0.27433811749E+03  0.00000000000E+00 0.  1.
         -4    1    6    6    0  503  0.32496749919E+00  0.16251751437E+02  0.47815819734E+01  0.16943687757E+02  0.00000000000E+00 0. -1.
<mgrwt>
<rscale>  0 0.19293728E+04</rscale>
<asrwt>0</asrwt>
<pdfrwt beam="1">  1        2 0.12878909E+00 0.19293728E+04</pdfrwt>
<pdfrwt beam="2">  1       -2 0.17102773E+00 0.19293728E+04</pdfrwt>
<totfact> 0.63430196E+00</totfact>
</mgrwt>
</event>
<event>
12    2  0.3555611E-008  0.2475092E+04  0.7818608E-02  0.8411913E-01
          2   -1    0    0  501    0  0.00000000000E+00  0.00000000000E+00  0.22546422849E+04  0.22546422849E+04  0.00000000000E+00 0. -1.
         -2   -1    0    0    0  501 -0.00000000000E+00 -0.00000000000E+00 -0.67927397037E+03  0.67927397037E+03  0.00000000000E+00 0.  1.
         23    2    1    2    0    0  0.34753071198E+03  0.80945341682E+03  0.14080531073E+04  0.16632095970E+04  0.87522458778E+02 0.  0.
        254    2    1    2    0    0 -0.34753071198E+03 -0.80945341682E+03  0.16731520717E+03  0.12707066582E+04  0.90039358222E+03 0.  0.
         23    2    4    4    0    0 -0.63215684873E+03 -0.43032804100E+03  0.16645498281E+03  0.78799260024E+03  0.91763677212E+02 0.  0.
         23    2    4    4    0    0  0.28462613675E+03 -0.37912537582E+03  0.86022435991E+00  0.48271405797E+03  0.90906729503E+02 0.  0.
          4    1    3    3  502    0  0.25667502156E+03  0.50767189202E+03  0.94716816533E+03  0.11048711916E+04  0.00000000000E+00 0. -1.
         -4    1    3    3    0  502  0.90855690419E+02  0.30178152480E+03  0.46088494200E+03  0.55833840541E+03  0.00000000000E+00 0.  1.
         11    1    5    5    0    0 -0.47150964389E+03 -0.36489484276E+03  0.14116730835E+03  0.61269715154E+03  0.00000000000E+00 0. -1.
        -11    1    5    5    0    0 -0.16064720484E+03 -0.65433198241E+02  0.25287674464E+02  0.17529544870E+03  0.00000000000E+00 0.  1.
          4    1    6    6  503    0  0.12800321718E+03 -0.23583900644E+03 -0.21849454598E+02  0.26922529456E+03  0.00000000000E+00 0. -1.
         -4    1    6    6    0  503  0.15662291957E+03 -0.14328636938E+03  0.22709678958E+02  0.21348876341E+03  0.00000000000E+00 0.  1.
<mgrwt>
<rscale>  0 0.24750918E+04</rscale>
<asrwt>0</asrwt>
<pdfrwt beam="1">  1        2 0.34686804E+00 0.24750918E+04</pdfrwt>
<pdfrwt beam="2">  1       -2 0.10450369E+00 0.24750918E+04</pdfrwt>
<totfact> 0.31956149E+00</totfact>
</mgrwt>
</event>
<event>
12    2  0.3555611E-008  0.1983162E+04  0.7818608E-02  0.8614534E-01
          1   -1    0    0  501    0  0.00000000000E+00  0.00000000000E+00  0.69080605908E+03  0.69080605908E+03  0.00000000000E+00 0. -1.
         -1   -1    0    0    0  501 -0.00000000000E+00 -0.00000000000E+00 -0.14233123002E+04  0.14233123002E+04  0.00000000000E+00 0.  1.
         23    2    1    2    0    0 -0.61467036566E+03  0.18993707965E+03 -0.76216234485E+03  0.10018095736E+04  0.93995900332E+02 0.  0.
        254    2    1    2    0    0  0.61467036566E+03 -0.18993707965E+03  0.29656103734E+02  0.11123087856E+04  0.90689337712E+03 0.  0.
         23    2    4    4    0    0  0.15063162792E+02 -0.23008052704E+02 -0.36004301022E+03  0.37175058231E+03  0.88381315218E+02 0.  0.
         23    2    4    4    0    0  0.59960720286E+03 -0.16692902694E+03  0.38969911395E+03  0.74055820332E+03  0.95744218269E+02 0.  0.
          4    1    3    3  502    0 -0.20756102170E+03  0.19279667035E+02 -0.23059036698E+03  0.31084594357E+03  0.00000000000E+00 0. -1.
         -4    1    3    3    0  502 -0.40710934396E+03  0.17065741261E+03 -0.53157197787E+03  0.69096363006E+03  0.00000000000E+00 0.  1.
         11    1    5    5    0    0 -0.26091516213E+02 -0.87054314520E+01 -0.38765417858E+02  0.47532193057E+02  0.00000000000E+00 0. -1.
        -11    1    5    5    0    0  0.41154679005E+02 -0.14302621252E+02 -0.32127759236E+03  0.32421838925E+03  0.00000000000E+00 0.  1.
          3    1    6    6  503    0  0.20262644564E+03 -0.11348397725E+02  0.11330079367E+03  0.23242919879E+03  0.00000000000E+00 0. -1.
         -3    1    6    6    0  503  0.39698075722E+03 -0.15558062922E+03  0.27639832028E+03  0.50812900453E+03  0.00000000000E+00 0.  1.
<mgrwt>
<rscale>  0 0.19831619E+04</rscale>
<asrwt>0</asrwt>
<pdfrwt beam="1">  1        1 0.10627786E+00 0.19831619E+04</pdfrwt>
<pdfrwt beam="2">  1       -1 0.21897112E+00 0.19831619E+04</pdfrwt>
<totfact> 0.28869819E+00</totfact>
</mgrwt>
</event>
<event>
12    2  0.3555611E-008  0.1429834E+04  0.7818608E-02  0.8932502E-01
          2   -1    0    0  501    0  0.00000000000E+00  0.00000000000E+00  0.14483850712E+04  0.14483850712E+04  0.00000000000E+00 0. -1.
         -2   -1    0    0    0  501 -0.00000000000E+00 -0.00000000000E+00 -0.35288030823E+03  0.35288030823E+03  0.00000000000E+00 0.  1.
         23    2    1    2    0    0  0.34847729006E+03 -0.58232518375E+02  0.49436943609E+03  0.61454087866E+03  0.91825401271E+02 0.  0.
        254    2    1    2    0    0 -0.34847729006E+03  0.58232518375E+02  0.60113532691E+03  0.11867245008E+04  0.96027283189E+03 0.  0.
         23    2    4    4    0    0 -0.22102495244E+03  0.11235740913E+03 -0.22327440164E+03  0.34585445588E+03  0.91036417105E+02 0.  0.
         23    2    4    4    0    0 -0.12745233761E+03 -0.54124890755E+02  0.82440972855E+03  0.84087004492E+03  0.90760287342E+02 0.  0.
          1    1    3    3  502    0  0.29884140368E+03 -0.79272155344E+02  0.44183325061E+03  0.53926513008E+03  0.00000000000E+00 0. -1.
         -1    1    3    3    0  502  0.49635886376E+02  0.21039636969E+02  0.52536185475E+02  0.75275748581E+02  0.00000000000E+00 0.  1.
         11    1    5    5    0    0 -0.10076985911E+03  0.33924219702E+02 -0.41309989362E+02  0.11406985758E+03  0.00000000000E+00 0.  1.
        -11    1    5    5    0    0 -0.12025509334E+03  0.78433189427E+02 -0.18196441227E+03  0.23178459830E+03  0.00000000000E+00 0. -1.
          3    1    6    6  503    0 -0.97759416749E+02 -0.52115207797E+02  0.38964215451E+03  0.40508506146E+03  0.00000000000E+00 0. -1.
         -3    1    6    6    0  503 -0.29692920864E+02 -0.20096829581E+01  0.43476757404E+03  0.43578498347E+03  0.00000000000E+00 0.  1.
<mgrwt>
<rscale>  0 0.14298344E+04</rscale>
<asrwt>0</asrwt>
<pdfrwt beam="1">  1        2 0.22282847E+00 0.14298344E+04</pdfrwt>
<pdfrwt beam="2">  1       -2 0.54289279E-01 0.14298344E+04</pdfrwt>
<totfact> 0.42116968E+01</totfact>
</mgrwt>
</event>
<event>
12    2  0.3555611E-008  0.1403397E+04  0.7818608E-02  0.8951364E-01
         -2   -1    0    0    0  501 -0.00000000000E+00  0.00000000000E+00  0.37285204718E+03  0.37285204718E+03  0.00000000000E+00 0.  1.
          2   -1    0    0  501    0  0.00000000000E+00 -0.00000000000E+00 -0.13205789383E+04  0.13205789383E+04  0.00000000000E+00 0. -1.
         23    2    1    2    0    0  0.29229220478E+03 -0.25787889987E+03 -0.13716854357E+03  0.42306865563E+03  0.90750306103E+02 0.  0.
        254    2    1    2    0    0 -0.29229220478E+03  0.25787889987E+03 -0.81055834760E+03  0.12703623299E+04  0.89715068655E+03 0.  0.
         23    2    4    4    0    0  0.10648725347E+03 -0.71449346295E+02 -0.72008625178E+03  0.73760546940E+03  0.95357612433E+02 0.  0.
         23    2    4    4    0    0 -0.39877945825E+03  0.32932824617E+03 -0.90472095827E+02  0.53275686050E+03  0.90346678094E+02 0.  0.
          1    1    3    3  502    0  0.25069067188E+03 -0.17221102708E+03 -0.11597811311E+03  0.32550479802E+03  0.00000000000E+00 0. -1.
         -1    1    3    3    0  502  0.41601532907E+02 -0.85667872794E+02 -0.21190430457E+02  0.97563857612E+02  0.00000000000E+00 0.  1.
         11    1    5    5    0    0  0.59190128237E+02 -0.89735074820E+02 -0.43808251459E+03  0.45107886730E+03  0.00000000000E+00 0.  1.
        -11    1    5    5    0    0  0.47297125231E+02  0.18285728525E+02 -0.28200373719E+03  0.28652660210E+03  0.00000000000E+00 0. -1.
          1    1    6    6  503    0 -0.31811379984E+03  0.25462442564E+03 -0.33272969798E+02  0.40882401875E+03  0.00000000000E+00 0. -1.
         -1    1    6    6    0  503 -0.80665658408E+02  0.74703820524E+02 -0.57199126029E+02  0.12393284176E+03  0.00000000000E+00 0.  1.
<mgrwt>
<rscale>  0 0.14033967E+04</rscale>
<asrwt>0</asrwt>
<pdfrwt beam="1">  1        2 0.20316598E+00 0.14033967E+04</pdfrwt>
<pdfrwt beam="2">  1       -2 0.57361855E-01 0.14033967E+04</pdfrwt>
<totfact> 0.44551504E+01</totfact>
</mgrwt>
</event>
<event>
12    2  0.3555611E-008  0.1424386E+04  0.7818608E-02  0.8936354E-01
         -2   -1    0    0    0  501 -0.00000000000E+00  0.00000000000E+00  0.73398069219E+03  0.73398069219E+03  0.00000000000E+00 0.  1.
          2   -1    0    0  501    0  0.00000000000E+00 -0.00000000000E+00 -0.69105181182E+03  0.69105181182E+03  0.00000000000E+00 0. -1.
         23    2    1    2    0    0 -0.58161080209E+02 -0.23769170940E+03  0.34980282804E+03  0.43809369834E+03  0.98407367878E+02 0.  0.
        254    2    1    2    0    0  0.58161080209E+02  0.23769170940E+03 -0.30687394767E+03  0.98693880567E+03  0.90553659585E+03 0.  0.
         23    2    4    4    0    0  0.26048824198E+03  0.37124017167E+03 -0.48683945396E+03  0.67141554179E+03  0.90071008381E+02 0.  0.
         23    2    4    4    0    0 -0.20232716177E+03 -0.13354846227E+03  0.17996550630E+03  0.31552326388E+03  0.91629004304E+02 0.  0.
          1    1    3    3  502    0 -0.37963746031E+02 -0.34233718790E+02  0.32345890688E+02  0.60493389385E+02  0.00000000000E+00 0. -1.
         -1    1    3    3    0  502 -0.20197334179E+02 -0.20345799061E+03  0.31745693735E+03  0.37760030895E+03  0.00000000000E+00 0.  1.
         11    1    5    5    0    0  0.16080248395E+03  0.22032842514E+03 -0.35455449898E+03  0.44733762027E+03  0.00000000000E+00 0. -1.
        -11    1    5    5    0    0  0.99685758031E+02  0.15091174653E+03 -0.13228495499E+03  0.22407792152E+03  0.00000000000E+00 0.  1.
          2    1    6    6  503    0  0.83993335812E+01 -0.15158570767E+02  0.96132284162E+01  0.19817800909E+02  0.00000000000E+00 0.  1.
         -2    1    6    6    0  503 -0.21072649535E+03 -0.11838989150E+03  0.17035227788E+03  0.29570546297E+03  0.00000000000E+00 0. -1.
<mgrwt>
<rscale>  0 0.14243857E+04</rscale>
<asrwt>0</asrwt>
<pdfrwt beam="1">  1        2 0.10631566E+00 0.14243857E+04</pdfrwt>
<pdfrwt beam="2">  1       -2 0.11292011E+00 0.14243857E+04</pdfrwt>
<totfact> 0.24945272E+01</totfact>
</mgrwt>
</event>
<event>
12    2  0.3555611E-008  0.1966981E+04  0.7818608E-02  0.8622215E-01
          1   -1    0    0  501    0  0.00000000000E+00  0.00000000000E+00  0.96732595702E+03  0.96732595702E+03  0.00000000000E+00 0. -1.
         -1   -1    0    0    0  501 -0.00000000000E+00 -0.00000000000E+00 -0.99992544447E+03  0.99992544447E+03  0.00000000000E+00 0.  1.
         23    2    1    2    0    0  0.26403902863E+02  0.76103767903E+03 -0.10396222726E+03  0.77437350808E+03  0.94713622753E+02 0.  0.
        254    2    1    2    0    0 -0.26403902863E+02 -0.76103767903E+03  0.71362739800E+02  0.11928778934E+04  0.91541767132E+03 0.  0.
         23    2    4    4    0    0  0.35384835399E+03 -0.37381654745E+02  0.15160305392E+02  0.36778707635E+03  0.91822943434E+02 0.  0.
         23    2    4    4    0    0 -0.38025225685E+03 -0.72365602428E+03  0.56202434408E+02  0.82509081706E+03  0.96676379935E+02 0.  0.
          2    1    3    3  502    0  0.13020342749E+02  0.59974273778E+03 -0.11987412415E+03  0.61174397135E+03  0.00000000000E+00 0.  1.
         -2    1    3    3    0  502  0.13383560115E+02  0.16129494125E+03  0.15911896897E+02  0.16262953673E+03  0.00000000000E+00 0. -1.
         11    1    5    5    0    0  0.18789156097E+02  0.13073546611E+02 -0.15379431273E+02  0.27576745894E+02  0.00000000000E+00 0. -1.
        -11    1    5    5    0    0  0.33505919789E+03 -0.50455201356E+02  0.30539736665E+02  0.34021033046E+03  0.00000000000E+00 0.  1.
          3    1    6    6  503    0 -0.58951464687E+02 -0.17931482241E+03 -0.13096236027E+02  0.18921044401E+03  0.00000000000E+00 0. -1.
         -3    1    6    6    0  503 -0.32130079216E+03 -0.54434120188E+03  0.69298670435E+02  0.63588037305E+03  0.00000000000E+00 0.  1.
<mgrwt>
<rscale>  0 0.19669813E+04</rscale>
<asrwt>0</asrwt>
<pdfrwt beam="1">  1        1 0.14881938E+00 0.19669813E+04</pdfrwt>
<pdfrwt beam="2">  1       -1 0.15383468E+00 0.19669813E+04</pdfrwt>
<totfact> 0.48663699E+00</totfact>
</mgrwt>
</event>
<event>
12    2  0.3555611E-008  0.2357125E+04  0.7818608E-02  0.8455732E-01
         -2   -1    0    0    0  501 -0.00000000000E+00  0.00000000000E+00  0.11323713760E+04  0.11323713760E+04  0.00000000000E+00 0.  1.
          2   -1    0    0  501    0  0.00000000000E+00 -0.00000000000E+00 -0.12266381754E+04  0.12266381754E+04  0.00000000000E+00 0. -1.
         23    2    1    2    0    0 -0.64542188183E+03  0.78827595627E+02  0.69984178613E+03  0.96030435186E+03  0.98095500515E+02 0.  0.
        254    2    1    2    0    0  0.64542188183E+03 -0.78827595627E+02 -0.79410858550E+03  0.13987051995E+04  0.95025501531E+03 0.  0.
         23    2    4    4    0    0  0.66878453069E+03 -0.14621126632E+03 -0.97023545886E+03  0.11909108839E+04  0.90892270753E+02 0.  0.
         23    2    4    4    0    0 -0.23362648859E+02  0.67383670698E+02  0.17612687336E+03  0.20779431558E+03  0.84091792889E+02 0.  0.
          1    1    3    3  502    0 -0.35362940969E+02 -0.18293812492E+02  0.40617121248E+02  0.56876635871E+02  0.00000000000E+00 0. -1.
         -1    1    3    3    0  502 -0.61005894086E+03  0.97121408119E+02  0.65922466488E+03  0.90342771599E+03  0.00000000000E+00 0.  1.
         11    1    5    5    0    0  0.12033035151E+03 -0.63086413842E+02 -0.18901501445E+03  0.23277878940E+03  0.00000000000E+00 0.  1.
        -11    1    5    5    0    0  0.54845417917E+03 -0.83124852483E+02 -0.78122044441E+03  0.95813209450E+03  0.00000000000E+00 0. -1.
          1    1    6    6  503    0 -0.42763942044E+02  0.65133856141E+01  0.96151852566E+02  0.10543413908E+03  0.00000000000E+00 0. -1.
         -1    1    6    6    0  503  0.19401293185E+02  0.60870285084E+02  0.79975020792E+02  0.10236017651E+03  0.00000000000E+00 0.  1.
<mgrwt>
<rscale>  0 0.23571253E+04</rscale>
<asrwt>0</asrwt>
<pdfrwt beam="1">  1        2 0.18871357E+00 0.23571253E+04</pdfrwt>
<pdfrwt beam="2">  1       -2 0.17421098E+00 0.23571253E+04</pdfrwt>
<totfact> 0.32793593E+00</totfact>
</mgrwt>
</event>
<event>
12    2  0.3555611E-008  0.1499887E+04  0.7818608E-02  0.8884528E-01
         -2   -1    0    0    0  501 -0.00000000000E+00  0.00000000000E+00  0.28088138024E+03  0.28088138024E+03  0.00000000000E+00 0.  1.
          2   -1    0    0  501    0  0.00000000000E+00 -0.00000000000E+00 -0.20023238942E+04  0.20023238942E+04  0.00000000000E+00 0. -1.
         23    2    1    2    0    0  0.43658548150E+03  0.11502787874E+03 -0.83262950746E+03  0.95143781535E+03  0.90131704923E+02 0.  0.
        254    2    1    2    0    0 -0.43658548150E+03 -0.11502787874E+03 -0.88881300651E+03  0.13317674591E+04  0.88305023019E+03 0.  0.
         23    2    4    4    0    0 -0.15095957703E+01 -0.10312212579E+03  0.14862176446E+03  0.20344455746E+03  0.93084947130E+02 0.  0.
         23    2    4    4    0    0 -0.43507588573E+03 -0.11905752956E+02 -0.10374347710E+04  0.11283229016E+04  0.86074926943E+02 0.  0.
          3    1    3    3  502    0  0.39481634971E+03  0.13027421537E+03 -0.74418076110E+03  0.85244139176E+03  0.00000000000E+00 0. -1.
         -3    1    3    3    0  502  0.41769131798E+02 -0.15246336624E+02 -0.88448746360E+02  0.98996423593E+02  0.00000000000E+00 0.  1.
         11    1    5    5    0    0 -0.35083001182E+02 -0.77396732328E+01  0.25171405849E+02  0.43867062656E+02  0.00000000000E+00 0. -1.
        -11    1    5    5    0    0  0.33573405412E+02 -0.95382452554E+02  0.12345035861E+03  0.15957749480E+03  0.00000000000E+00 0.  1.
          3    1    6    6  503    0 -0.32495277379E+02 -0.11288608110E+02 -0.14919282882E+03  0.15310739987E+03  0.00000000000E+00 0. -1.
         -3    1    6    6    0  503 -0.40258060835E+03 -0.61714484625E+00 -0.88824194216E+03  0.97521550178E+03  0.00000000000E+00 0.  1.
<mgrwt>
<rscale>  0 0.14998873E+04</rscale>
<asrwt>0</asrwt>
<pdfrwt beam="1">  1        2 0.30804983E+00 0.14998873E+04</pdfrwt>
<pdfrwt beam="2">  1       -2 0.43212521E-01 0.14998873E+04</pdfrwt>
<totfact> 0.32693665E+01</totfact>
</mgrwt>
</event>
<event>
12    2  0.3555611E-008  0.1644698E+04  0.7818608E-02  0.8793549E-01
          1   -1    0    0  501    0  0.00000000000E+00  0.00000000000E+00  0.10992846285E+04  0.10992846285E+04  0.00000000000E+00 0. -1.
         -1   -1    0    0    0  501 -0.00000000000E+00 -0.00000000000E+00 -0.61517980709E+03  0.61517980709E+03  0.00000000000E+00 0.  1.
         23    2    1    2    0    0 -0.32161719546E+03  0.48034089872E+03  0.63779185085E+02  0.58874960625E+03  0.91615037038E+02 0.  0.
        254    2    1    2    0    0  0.32161719546E+03 -0.48034089872E+03  0.42032563630E+03  0.11257148293E+04  0.86970985795E+03 0.  0.
         23    2    4    4    0    0  0.17972192728E+03 -0.64969148772E+03  0.52704425164E+03  0.86111783425E+03  0.96691679712E+02 0.  0.
         23    2    4    4    0    0  0.14189526818E+03  0.16935058900E+03 -0.10671861534E+03  0.26459699506E+03  0.99039476010E+02 0.  0.
          4    1    3    3  502    0 -0.31092512199E+02  0.54317288989E+02 -0.21321391217E+02  0.66118937691E+02  0.00000000000E+00 0. -1.
         -4    1    3    3    0  502 -0.29052468326E+03  0.42602360973E+03  0.85100576302E+02  0.52263066856E+03  0.00000000000E+00 0.  1.
         11    1    5    5    0    0  0.16107380667E+03 -0.41441864322E+03  0.33089443516E+03  0.55423705241E+03  0.00000000000E+00 0. -1.
        -11    1    5    5    0    0  0.18648120608E+02 -0.23527284449E+03  0.19614981648E+03  0.30688078184E+03  0.00000000000E+00 0.  1.
          2    1    6    6  503    0  0.43480985641E+02  0.42011485427E+02 -0.81835877760E+02  0.10174808062E+03  0.00000000000E+00 0. -1.
         -2    1    6    6    0  503  0.98414282542E+02  0.12733910357E+03 -0.24882737580E+02  0.16284891445E+03  0.00000000000E+00 0.  1.
<mgrwt>
<rscale>  0 0.16446978E+04</rscale>
<asrwt>0</asrwt>
<pdfrwt beam="1">  1        1 0.16912071E+00 0.16446978E+04</pdfrwt>
<pdfrwt beam="2">  1       -1 0.94643048E-01 0.16446978E+04</pdfrwt>
<totfact> 0.13107401E+01</totfact>
</mgrwt>
</event>
<event>
12    2  0.3555611E-008  0.3132703E+04  0.7818608E-02  0.8206820E-01
         -2   -1    0    0    0  501 -0.00000000000E+00  0.00000000000E+00  0.15533330606E+04  0.15533330606E+04  0.00000000000E+00 0. -1.
          2   -1    0    0  501    0  0.00000000000E+00 -0.00000000000E+00 -0.15794786583E+04  0.15794786583E+04  0.00000000000E+00 0.  1.
         23    2    1    2    0    0  0.12565769070E+04  0.40407615375E+03  0.55655510121E+03  0.14353211086E+04  0.90166750914E+02 0.  0.
        254    2    1    2    0    0 -0.12565769070E+04 -0.40407615375E+03 -0.58270069891E+03  0.16974906103E+04  0.89424337081E+03 0.  0.
         23    2    4    4    0    0 -0.89410437829E+03 -0.52534026874E+02 -0.73698665406E+03  0.11634167151E+04  0.90590625303E+02 0.  0.
         23    2    4    4    0    0 -0.36247252870E+03 -0.35154212688E+03  0.15428595515E+03  0.53407389519E+03  0.80390102270E+02 0.  0.
          1    1    3    3  502    0  0.59252807380E+03  0.15947921823E+03  0.22176480976E+03  0.65245901797E+03  0.00000000000E+00 0. -1.
         -1    1    3    3    0  502  0.66404883319E+03  0.24459693552E+03  0.33479029146E+03  0.78286209066E+03  0.00000000000E+00 0.  1.
         11    1    5    5    0    0 -0.40260864030E+03  0.12799914220E+02 -0.29616965392E+03  0.49997401827E+03  0.00000000000E+00 0. -1.
        -11    1    5    5    0    0 -0.49149573799E+03 -0.65333941093E+02 -0.44081700014E+03  0.66344269680E+03  0.00000000000E+00 0.  1.
          3    1    6    6  503    0 -0.84695762079E+02 -0.60136722786E+02  0.27482462458E+01  0.10391029977E+03  0.00000000000E+00 0. -1.
         -3    1    6    6    0  503 -0.27777676662E+03 -0.29140540409E+03  0.15153770890E+03  0.43016359542E+03  0.00000000000E+00 0.  1.
<mgrwt>
<rscale>  0 0.31327026E+04</rscale>
<asrwt>0</asrwt>
<pdfrwt beam="1">  1        2 0.24299672E+00 0.31327026E+04</pdfrwt>
<pdfrwt beam="2">  1       -2 0.23897432E+00 0.31327026E+04</pdfrwt>
<totfact> 0.72887445E-01</totfact>
</mgrwt>
</event>
<event>
12    2  0.3555611E-008  0.1432877E+04  0.7818608E-02  0.8930358E-01
         -1   -1    0    0    0  501 -0.00000000000E+00  0.00000000000E+00  0.27500404788E+03  0.27500404788E+03  0.00000000000E+00 0.  1.
          1   -1    0    0  501    0  0.00000000000E+00 -0.00000000000E+00 -0.18664600014E+04  0.18664600014E+04  0.00000000000E+00 0. -1.
         23    2    1    2    0    0  0.13191676179E+03  0.22163087912E+03  0.38129988871E+02  0.27621688625E+03  0.91211806133E+02 0.  0.
        254    2    1    2    0    0 -0.13191676179E+03 -0.22163087912E+03 -0.16295859423E+04  0.18652471630E+04  0.87010019936E+03 0.  0.
         23    2    4    4    0    0  0.35384413893E+03 -0.22328993905E+02 -0.56155138737E+03  0.67107099941E+03  0.96395368014E+02 0.  0.
         23    2    4    4    0    0 -0.48576090073E+03 -0.19930188521E+03 -0.10680345550E+04  0.11941761636E+04  0.98356519310E+02 0.  0.
          2    1    3    3  502    0  0.74747463487E+02  0.11297813483E+03 -0.25634330379E+02  0.13787081323E+03  0.00000000000E+00 0. -1.
         -2    1    3    3    0  502  0.57169298307E+02  0.10865274429E+03  0.63764319250E+02  0.13834607302E+03  0.00000000000E+00 0.  1.
         11    1    5    5    0    0  0.12467144021E+02  0.18613641297E+02 -0.22864523167E+02  0.32010681686E+02  0.00000000000E+00 0.  1.
        -11    1    5    5    0    0  0.34137699491E+03 -0.40942635202E+02 -0.53868686420E+03  0.63906031773E+03  0.00000000000E+00 0. -1.
          2    1    6    6  503    0 -0.45400119674E+03 -0.15836079230E+03 -0.98870249621E+03  0.10994215994E+04  0.00000000000E+00 0. -1.
         -2    1    6    6    0  503 -0.31759703984E+02 -0.40941092909E+02 -0.79332058769E+02  0.94754564187E+02  0.00000000000E+00 0.  1.
<mgrwt>
<rscale>  0 0.14328769E+04</rscale>
<asrwt>0</asrwt>
<pdfrwt beam="1">  1        1 0.28714770E+00 0.14328769E+04</pdfrwt>
<pdfrwt beam="2">  1       -1 0.42308314E-01 0.14328769E+04</pdfrwt>
<totfact> 0.19623057E+01</totfact>
</mgrwt>
</event>
<event>
12    2  0.3555611E-008  0.1838353E+04  0.7818608E-02  0.8686165E-01
         -1   -1    0    0    0  501 -0.00000000000E+00  0.00000000000E+00  0.95602849604E+03  0.95602849604E+03  0.00000000000E+00 0.  1.
          1   -1    0    0  501    0  0.00000000000E+00 -0.00000000000E+00 -0.88374523937E+03  0.88374523937E+03  0.00000000000E+00 0. -1.
         23    2    1    2    0    0 -0.33736338295E+03  0.36672748365E+03  0.51346657133E+03  0.72123436951E+03  0.90708304287E+02 0.  0.
        254    2    1    2    0    0  0.33736338295E+03 -0.36672748365E+03 -0.44118331466E+03  0.11185393659E+04  0.89899082114E+03 0.  0.
         23    2    4    4    0    0  0.40903104837E+03 -0.61612460694E+02 -0.61659375771E+03  0.74812571729E+03  0.91660967582E+02 0.  0.
         23    2    4    4    0    0 -0.71667665413E+02 -0.30511502296E+03  0.17541044305E+03  0.37041364861E+03  0.90587063340E+02 0.  0.
          4    1    3    3  502    0 -0.97609648973E+02  0.15731793866E+03  0.15168953837E+03  0.23934555239E+03  0.00000000000E+00 0. -1.
         -4    1    3    3    0  502 -0.23975373398E+03  0.20940954499E+03  0.36177703296E+03  0.48188881712E+03  0.00000000000E+00 0.  1.
         11    1    5    5    0    0  0.18420741498E+03  0.17175859338E+02 -0.25263318501E+03  0.31313081619E+03  0.00000000000E+00 0.  1.
        -11    1    5    5    0    0  0.22482363338E+03 -0.78788320032E+02 -0.36396057270E+03  0.43499490110E+03  0.00000000000E+00 0. -1.
          3    1    6    6  503    0 -0.69224213220E+02 -0.21014665001E+03  0.16255048202E+03  0.27454738282E+03  0.00000000000E+00 0. -1.
         -3    1    6    6    0  503 -0.24434521929E+01 -0.94968372947E+02  0.12859961025E+02  0.95866265789E+02  0.00000000000E+00 0.  1.
<mgrwt>
<rscale>  0 0.18383532E+04</rscale>
<asrwt>0</asrwt>
<pdfrwt beam="1">  1        1 0.13596080E+00 0.18383532E+04</pdfrwt>
<pdfrwt beam="2">  1       -1 0.14708131E+00 0.18383532E+04</pdfrwt>
<totfact> 0.64931341E+00</totfact>
</mgrwt>
</event>
<event>
12    2  0.3555611E-008  0.2891237E+04  0.7818608E-02  0.8275489E-01
         -2   -1    0    0    0  501 -0.00000000000E+00  0.00000000000E+00  0.13627220075E+04  0.13627220075E+04  0.00000000000E+00 0. -1.
          2   -1    0    0  501    0  0.00000000000E+00 -0.00000000000E+00 -0.15335581427E+04  0.15335581427E+04  0.00000000000E+00 0.  1.
         23    2    1    2    0    0 -0.56976584363E+03  0.42193175694E+02  0.11089803974E+04  0.12508699710E+04  0.91786610804E+02 0.  0.
        254    2    1    2    0    0  0.56976584363E+03 -0.42193175694E+02 -0.12798165326E+04  0.16454101792E+04  0.86199241302E+03 0.  0.
         23    2    4    4    0    0  0.46812220218E+03  0.19473799251E+03 -0.12713560548E+04  0.13716810876E+04  0.90008366230E+02 0.  0.
         23    2    4    4    0    0  0.10164364145E+03 -0.23693116820E+03 -0.84604777475E+01  0.27372909161E+03  0.91587267666E+02 0.  0.
          1    1    3    3  502    0 -0.44572538879E+03  0.69408250997E+02  0.84189097426E+03  0.95512776112E+03  0.00000000000E+00 0. -1.
         -1    1    3    3    0  502 -0.12404045484E+03 -0.27215075303E+02  0.26708942310E+03  0.29574220986E+03  0.00000000000E+00 0.  1.
         11    1    5    5    0    0  0.43095358920E+03  0.19490060880E+03 -0.11189308517E+04  0.12147894855E+04  0.00000000000E+00 0. -1.
        -11    1    5    5    0    0  0.37168612976E+02 -0.16261629578E+00 -0.15242520316E+03  0.15689160204E+03  0.00000000000E+00 0.  1.
          3    1    6    6  503    0  0.35789249784E+02 -0.14463985668E+03 -0.43218633722E+02  0.15514318819E+03  0.00000000000E+00 0. -1.
         -3    1    6    6    0  503  0.65854391666E+02 -0.92291311523E+02  0.34758155975E+02  0.11858590342E+03  0.00000000000E+00 0.  1.
<mgrwt>
<rscale>  0 0.28912374E+04</rscale>
<asrwt>0</asrwt>
<pdfrwt beam="1">  1        2 0.23593202E+00 0.28912374E+04</pdfrwt>
<pdfrwt beam="2">  1       -2 0.20964954E+00 0.28912374E+04</pdfrwt>
<totfact> 0.12082315E+00</totfact>
</mgrwt>
</event>
<event>
12    2  0.3555611E-008  0.1693846E+04  0.7818608E-02  0.8764882E-01
          2   -1    0    0  501    0  0.00000000000E+00  0.00000000000E+00  0.19725501437E+04  0.19725501437E+04  0.00000000000E+00 0. -1.
         -2   -1    0    0    0  501 -0.00000000000E+00 -0.00000000000E+00 -0.36362994656E+03  0.36362994656E+03  0.00000000000E+00 0.  1.
         23    2    1    2    0    0  0.45864315491E+03 -0.35741799097E+03  0.35549498524E+03  0.68434993334E+03  0.62104612766E+02 0.  0.
        254    2    1    2    0    0 -0.45864315491E+03  0.35741799097E+03  0.12534252119E+04  0.16518301569E+04  0.90518889834E+03 0.  0.
         23    2    4    4    0    0 -0.57999470788E+03  0.28066372171E+03  0.13187792243E+04  0.14706738852E+04  0.92396148087E+02 0.  0.
         23    2    4    4    0    0  0.12135155297E+03  0.76754269254E+02 -0.65354012423E+02  0.18115627175E+03  0.89045104285E+02 0.  0.
          2    1    3    3  502    0  0.41530937305E+01  0.17901392979E+00  0.96835787907E+01  0.10538118035E+02  0.00000000000E+00 0. -1.
         -2    1    3    3    0  502  0.45449006118E+03 -0.35759700490E+03  0.34581140645E+03  0.67381181531E+03  0.00000000000E+00 0.  1.
         11    1    5    5    0    0 -0.40209586495E+03  0.16854986722E+03  0.80409428221E+03  0.91468997864E+03  0.00000000000E+00 0. -1.
        -11    1    5    5    0    0 -0.17789884292E+03  0.11211385449E+03  0.51468494210E+03  0.55598390652E+03  0.00000000000E+00 0.  1.
          4    1    6    6  503    0  0.64101199581E+02  0.18052883850E+02  0.12875329758E+02  0.67828051125E+02  0.00000000000E+00 0. -1.
         -4    1    6    6    0  503  0.57250353387E+02  0.58701385404E+02 -0.78229342181E+02  0.11332822062E+03  0.00000000000E+00 0.  1.
<mgrwt>
<rscale>  0 0.16938457E+04</rscale>
<asrwt>0</asrwt>
<pdfrwt beam="1">  1        2 0.30346925E+00 0.16938457E+04</pdfrwt>
<pdfrwt beam="2">  1       -2 0.55943070E-01 0.16938457E+04</pdfrwt>
<totfact> 0.19770623E+01</totfact>
</mgrwt>
</event>
<event>
12    2  0.3555611E-008  0.1865510E+04  0.7818608E-02  0.8672217E-01
         -1   -1    0    0    0  501 -0.00000000000E+00  0.00000000000E+00  0.53744643799E+03  0.53744643799E+03  0.00000000000E+00 0.  1.
          1   -1    0    0  501    0  0.00000000000E+00 -0.00000000000E+00 -0.16188259267E+04  0.16188259267E+04  0.00000000000E+00 0. -1.
         23    2    1    2    0    0 -0.46164781908E+03 -0.16082623247E+03  0.18169669995E+03  0.52938027440E+03  0.90807478951E+02 0.  0.
        254    2    1    2    0    0  0.46164781908E+03  0.16082623247E+03 -0.12630761887E+04  0.16268920903E+04  0.90135044750E+03 0.  0.
         23    2    4    4    0    0 -0.11609689795E+02  0.55035889386E+02  0.11869727970E+03  0.15939010744E+03  0.90290797572E+02 0.  0.
         23    2    4    4    0    0  0.47325750888E+03  0.10579034308E+03 -0.13817734684E+04  0.14675019829E+04  0.95393319668E+02 0.  0.
          2    1    3    3  502    0 -0.11124594753E+03 -0.81010287448E+02  0.57524599626E+02  0.14915564715E+03  0.00000000000E+00 0. -1.
         -2    1    3    3    0  502 -0.35040187155E+03 -0.79815945018E+02  0.12417210033E+03  0.38022462724E+03  0.00000000000E+00 0.  1.
         11    1    5    5    0    0  0.37725905998E+02  0.18165418258E+02  0.30440842268E+02  0.51767473203E+02  0.00000000000E+00 0. -1.
        -11    1    5    5    0    0 -0.49335595793E+02  0.36870471128E+02  0.88256437429E+02  0.10762263424E+03  0.00000000000E+00 0.  1.
          1    1    6    6  503    0  0.42387765652E+03  0.62845284057E+02 -0.12148260183E+04  0.12881863421E+04  0.00000000000E+00 0.  1.
         -1    1    6    6    0  503  0.49379852358E+02  0.42945059023E+02 -0.16694745010E+03  0.17931564072E+03  0.00000000000E+00 0. -1.
<mgrwt>
<rscale>  0 0.18655104E+04</rscale>
<asrwt>0</asrwt>
<pdfrwt beam="1">  1        1 0.24905014E+00 0.18655104E+04</pdfrwt>
<pdfrwt beam="2">  1       -1 0.82684067E-01 0.18655104E+04</pdfrwt>
<totfact> 0.73863255E+00</totfact>
</mgrwt>
</event>
<event>
12    2  0.3555611E-008  0.2108284E+04  0.7818608E-02  0.8557603E-01
          2   -1    0    0  501    0  0.00000000000E+00  0.00000000000E+00  0.28732970067E+04  0.28732970067E+04  0.00000000000E+00 0. -1.
         -2   -1    0    0    0  501 -0.00000000000E+00 -0.00000000000E+00 -0.38673878568E+03  0.38673878568E+03  0.00000000000E+00 0.  1.
         23    2    1    2    0    0 -0.56674152163E+03 -0.58735329517E+03  0.61157898075E+03  0.10266306284E+04  0.11731049338E+03 0.  0.
        254    2    1    2    0    0  0.56674152163E+03  0.58735329517E+03  0.18749792403E+04  0.22334051639E+04  0.89798197602E+03 0.  0.
         23    2    4    4    0    0  0.28846633137E+03  0.55227893043E+03  0.18296898297E+04  0.19351251576E+04  0.93379126944E+02 0.  0.
         23    2    4    4    0    0  0.27827519026E+03  0.35074364739E+02  0.45289410577E+02  0.29828000636E+03  0.90843485781E+02 0.  0.
          1    1    3    3  502    0 -0.44402151556E+03 -0.40231903002E+03  0.48633816533E+03  0.77171271809E+03  0.00000000000E+00 0. -1.
         -1    1    3    3    0  502 -0.12272000606E+03 -0.18503426515E+03  0.12524081542E+03  0.25491791035E+03  0.00000000000E+00 0.  1.
         11    1    5    5    0    0 -0.42896922879E+01  0.38164772189E+02  0.11353525683E+03  0.11985493665E+03  0.00000000000E+00 0.  1.
        -11    1    5    5    0    0  0.29275602366E+03  0.51411415824E+03  0.17161545728E+04  0.18152702209E+04  0.00000000000E+00 0. -1.
          4    1    6    6  503    0  0.10183274981E+03  0.31704497213E+02 -0.22908055944E+02  0.10908649369E+03  0.00000000000E+00 0. -1.
         -4    1    6    6    0  503  0.17644244044E+03  0.33698675263E+01  0.68197466521E+02  0.18919351267E+03  0.00000000000E+00 0.  1.
<mgrwt>
<rscale>  0 0.21082840E+04</rscale>
<asrwt>0</asrwt>
<pdfrwt beam="1">  1        2 0.44204568E+00 0.21082840E+04</pdfrwt>
<pdfrwt beam="2">  1       -2 0.59498276E-01 0.21082840E+04</pdfrwt>
<totfact> 0.50720305E+00</totfact>
</mgrwt>
</event>
<event>
12    2  0.3555611E-008  0.1716402E+04  0.7818608E-02  0.8752065E-01
          2   -1    0    0  501    0  0.00000000000E+00  0.00000000000E+00  0.32066673418E+04  0.32066673418E+04  0.00000000000E+00 0.  1.
         -2   -1    0    0    0  501 -0.00000000000E+00 -0.00000000000E+00 -0.22968039423E+03  0.22968039423E+03  0.00000000000E+00 0. -1.
         23    2    1    2    0    0  0.19484830111E+03 -0.25585303829E+03  0.31347208333E+02  0.33599807032E+03  0.92116329400E+02 0.  0.
        254    2    1    2    0    0 -0.19484830111E+03  0.25585303829E+03  0.29456397392E+04  0.31003496657E+04  0.91211180159E+03 0.  0.
         23    2    4    4    0    0 -0.41164229530E+03 -0.13789009885E+03  0.20062840970E+04  0.20550489323E+04  0.97914135226E+02 0.  0.
         23    2    4    4    0    0  0.21679399419E+03  0.39374313714E+03  0.93935564225E+03  0.10453007334E+04  0.90726548273E+02 0.  0.
          4    1    3    3  502    0  0.15496227807E+03 -0.24585778531E+03  0.12830918381E+02  0.29090202936E+03  0.00000000000E+00 0. -1.
         -4    1    3    3    0  502  0.39886023043E+02 -0.99952529755E+01  0.18516289952E+02  0.45096040955E+02  0.00000000000E+00 0.  1.
         11    1    5    5    0    0 -0.17451221018E+03 -0.10804761654E+03  0.98763659491E+03  0.10087392342E+04  0.00000000000E+00 0. -1.
        -11    1    5    5    0    0 -0.23713008512E+03 -0.29842482317E+02  0.10186475021E+04  0.10463096982E+04  0.00000000000E+00 0.  1.
          1    1    6    6  503    0  0.15336871248E+03  0.31999512730E+03  0.80194594082E+03  0.87694705396E+03  0.00000000000E+00 0. -1.
         -1    1    6    6    0  503  0.63425281719E+02  0.73748009842E+02  0.13740970143E+03  0.16835367939E+03  0.00000000000E+00 0.  1.
<mgrwt>
<rscale>  0 0.17164016E+04</rscale>
<asrwt>0</asrwt>
<pdfrwt beam="1">  1        2 0.49333341E+00 0.17164016E+04</pdfrwt>
<pdfrwt beam="2">  1       -2 0.35335448E-01 0.17164016E+04</pdfrwt>
<totfact> 0.92370078E+00</totfact>
</mgrwt>
</event>
<event>
12    2  0.3555611E-008  0.1877983E+04  0.7818608E-02  0.8665894E-01
         -2   -1    0    0    0  501 -0.00000000000E+00  0.00000000000E+00  0.24446589885E+04  0.24446589885E+04  0.00000000000E+00 0.  1.
          2   -1    0    0  501    0  0.00000000000E+00 -0.00000000000E+00 -0.36066582488E+03  0.36066582488E+03  0.00000000000E+00 0. -1.
         23    2    1    2    0    0 -0.51859107930E+03  0.16059410714E+03  0.14503851741E+04  0.15512491245E+04  0.89607579348E+02 0.  0.
        254    2    1    2    0    0  0.51859107930E+03 -0.16059410714E+03  0.63360798952E+03  0.12540756889E+04  0.93622624095E+03 0.  0.
         23    2    4    4    0    0 -0.13122482868E+03 -0.23450816279E+03  0.50703848348E+03  0.58121509791E+03  0.92243873646E+02 0.  0.
         23    2    4    4    0    0  0.64981590798E+03  0.73914055654E+02  0.12656950604E+03  0.67286059096E+03  0.94855327322E+02 0.  0.
          4    1    3    3  502    0 -0.50468517077E+03  0.15302473121E+03  0.13452671957E+04  0.14449455068E+04  0.00000000000E+00 0.  1.
         -4    1    3    3    0  502 -0.13905908529E+02  0.75693759321E+01  0.10511797840E+03  0.10630361766E+03  0.00000000000E+00 0. -1.
         11    1    5    5    0    0 -0.13684066207E+02 -0.86104183769E+02  0.10245054243E+03  0.13452619736E+03  0.00000000000E+00 0.  1.
        -11    1    5    5    0    0 -0.11754076247E+03 -0.14840397903E+03  0.40458794105E+03  0.44668890055E+03  0.00000000000E+00 0. -1.
          2    1    6    6  503    0  0.41932239616E+03  0.67164503175E+02  0.12345136428E+03  0.44224719530E+03  0.00000000000E+00 0. -1.
         -2    1    6    6    0  503  0.23049351182E+03  0.67495524791E+01  0.31181417586E+01  0.23061339566E+03  0.00000000000E+00 0.  1.
<mgrwt>
<rscale>  0 0.18779829E+04</rscale>
<asrwt>0</asrwt>
<pdfrwt beam="1">  1        2 0.55487051E-01 0.18779829E+04</pdfrwt>
<pdfrwt beam="2">  1       -2 0.37610137E+00 0.18779829E+04</pdfrwt>
<totfact> 0.89263792E-01</totfact>
</mgrwt>
</event>
<event>
12    2  0.3555611E-008  0.2003096E+04  0.7818608E-02  0.8605175E-01
         -2   -1    0    0    0  501 -0.00000000000E+00  0.00000000000E+00  0.38127773279E+03  0.38127773279E+03  0.00000000000E+00 0.  1.
          2   -1    0    0  501    0  0.00000000000E+00 -0.00000000000E+00 -0.26308853591E+04  0.26308853591E+04  0.00000000000E+00 0. -1.
         23    2    1    2    0    0  0.75875937520E+03 -0.10931098640E+03 -0.12088479740E+04  0.14348428515E+04  0.98974254325E+02 0.  0.
        254    2    1    2    0    0 -0.75875937520E+03  0.10931098640E+03 -0.10407596523E+04  0.15773202404E+04  0.90393241211E+03 0.  0.
         23    2    4    4    0    0 -0.92347271610E+02  0.41817429777E+03 -0.47837785360E+03  0.64849992058E+03  0.91153794705E+02 0.  0.
         23    2    4    4    0    0 -0.66641210359E+03 -0.30886331136E+03 -0.56238179867E+03  0.92882031978E+03  0.83260206886E+02 0.  0.
          3    1    3    3  502    0  0.73889135883E+03 -0.88675108321E+02 -0.11591580721E+04  0.13774872599E+04  0.00000000000E+00 0. -1.
         -3    1    3    3    0  502  0.19868016362E+02 -0.20635878083E+02 -0.49689901930E+02  0.57355591639E+02  0.00000000000E+00 0.  1.
         11    1    5    5    0    0  0.13338259618E+02  0.14406795098E+02 -0.30721263967E+02  0.36459031452E+02  0.00000000000E+00 0. -1.
        -11    1    5    5    0    0 -0.10568553123E+03  0.40376750267E+03 -0.44765658963E+03  0.61204088913E+03  0.00000000000E+00 0.  1.
          1    1    6    6  503    0 -0.28236087312E+03 -0.12385694555E+03 -0.28761489957E+03  0.42165215058E+03  0.00000000000E+00 0. -1.
         -1    1    6    6    0  503 -0.38405123047E+03 -0.18500636581E+03 -0.27476689909E+03  0.50716816920E+03  0.00000000000E+00 0.  1.
<mgrwt>
<rscale>  0 0.20030956E+04</rscale>
<asrwt>0</asrwt>
<pdfrwt beam="1">  1        2 0.40475161E+00 0.20030956E+04</pdfrwt>
<pdfrwt beam="2">  1       -2 0.58658110E-01 0.20030956E+04</pdfrwt>
<totfact> 0.73707616E+00</totfact>
</mgrwt>
</event>
<event>
12    2  0.3555611E-008  0.1375271E+04  0.7818608E-02  0.8971916E-01
          2   -1    0    0  501    0  0.00000000000E+00  0.00000000000E+00  0.63543867574E+03  0.63543867574E+03  0.00000000000E+00 0. -1.
         -2   -1    0    0    0  501 -0.00000000000E+00 -0.00000000000E+00 -0.74412011372E+03  0.74412011372E+03  0.00000000000E+00 0.  1.
         23    2    1    2    0    0  0.44490013605E+02 -0.18459367224E+03 -0.37048844364E+03  0.42591944664E+03  0.89952782104E+02 0.  0.
        254    2    1    2    0    0 -0.44490013605E+02  0.18459367224E+03  0.26180700566E+03  0.95363934283E+03  0.89712368313E+03 0.  0.
         23    2    4    4    0    0  0.35591382471E+03  0.22480933207E+03 -0.55165716383E+02  0.43340627700E+03  0.87085350522E+02 0.  0.
         23    2    4    4    0    0 -0.40040383832E+03 -0.40215659826E+02  0.31697272204E+03  0.52023306583E+03  0.90720467529E+02 0.  0.
          1    1    3    3  502    0 -0.11221122350E+02 -0.46823259423E-01 -0.55509204726E+02  0.56632036768E+02  0.00000000000E+00 0. -1.
         -1    1    3    3    0  502  0.55711135955E+02 -0.18454684898E+03 -0.31497923891E+03  0.36928740987E+03  0.00000000000E+00 0.  1.
         11    1    5    5    0    0  0.10535151169E+03  0.60091952712E+02 -0.55907032028E+02  0.13354991586E+03  0.00000000000E+00 0. -1.
        -11    1    5    5    0    0  0.25056231302E+03  0.16471737936E+03  0.74131564520E+00  0.29985636114E+03  0.00000000000E+00 0.  1.
          4    1    6    6  503    0 -0.58499475926E+01  0.40860820914E+01  0.28726513446E+02  0.29599502166E+02  0.00000000000E+00 0. -1.
         -4    1    6    6    0  503 -0.39455389072E+03 -0.44301741917E+02  0.28824620860E+03  0.49063356366E+03  0.00000000000E+00 0.  1.
<mgrwt>
<rscale>  0 0.13752712E+04</rscale>
<asrwt>0</asrwt>
<pdfrwt beam="1">  1        2 0.97759797E-01 0.13752712E+04</pdfrwt>
<pdfrwt beam="2">  1       -2 0.11448002E+00 0.13752712E+04</pdfrwt>
<totfact> 0.26878139E+01</totfact>
</mgrwt>
</event>
<event>
12    2  0.3555611E-008  0.1361329E+04  0.7818608E-02  0.8982296E-01
         -2   -1    0    0    0  501 -0.00000000000E+00  0.00000000000E+00  0.57545646052E+03  0.57545646052E+03  0.00000000000E+00 0.  1.
          2   -1    0    0  501    0  0.00000000000E+00 -0.00000000000E+00 -0.80510743650E+03  0.80510743650E+03  0.00000000000E+00 0. -1.
         23    2    1    2    0    0  0.62555299704E+02 -0.10075959104E+03  0.29189926772E+03  0.32789061077E+03  0.90782208772E+02 0.  0.
        254    2    1    2    0    0 -0.62555299704E+02  0.10075959104E+03 -0.52155024371E+03  0.10526732862E+04  0.90666461834E+03 0.  0.
         23    2    4    4    0    0 -0.36967283755E+03 -0.16242687491E+03 -0.38158386694E+02  0.41557386565E+03  0.90581890114E+02 0.  0.
         23    2    4    4    0    0  0.30711753785E+03  0.26318646595E+03 -0.48339185702E+03  0.63709942060E+03  0.92949913317E+02 0.  0.
          4    1    3    3  502    0  0.27251770791E+02  0.70447445564E+00  0.15527091378E+02  0.31372692938E+02  0.00000000000E+00 0. -1.
         -4    1    3    3    0  502  0.35303528913E+02 -0.10146406549E+03  0.27637217634E+03  0.29651791784E+03  0.00000000000E+00 0.  1.
         11    1    5    5    0    0 -0.55356579106E+02 -0.54071866948E+02  0.15168225655E+02  0.78855517975E+02  0.00000000000E+00 0. -1.
        -11    1    5    5    0    0 -0.31431625845E+03 -0.10835500796E+03 -0.53326612349E+02  0.33671834767E+03  0.00000000000E+00 0.  1.
          2    1    6    6  503    0  0.22783743625E+03  0.19750486490E+03 -0.41700413815E+03  0.51459743513E+03  0.00000000000E+00 0.  1.
         -2    1    6    6    0  503  0.79280101600E+02  0.65681601051E+02 -0.66387718869E+02  0.12250198547E+03  0.00000000000E+00 0. -1.
<mgrwt>
<rscale>  0 0.13613292E+04</rscale>
<asrwt>0</asrwt>
<pdfrwt beam="1">  1        2 0.12386268E+00 0.13613292E+04</pdfrwt>
<pdfrwt beam="2">  1       -2 0.88531764E-01 0.13613292E+04</pdfrwt>
<totfact> 0.36602858E+01</totfact>
</mgrwt>
</event>
<event>
12    2  0.3555611E-008  0.2194170E+04  0.7818608E-02  0.8520859E-01
         -1   -1    0    0    0  501 -0.00000000000E+00  0.00000000000E+00  0.71376543411E+03  0.71376543411E+03  0.00000000000E+00 0.  1.
          1   -1    0    0  501    0  0.00000000000E+00 -0.00000000000E+00 -0.16862619431E+04  0.16862619431E+04  0.00000000000E+00 0. -1.
         23    2    1    2    0    0  0.71712271598E+03  0.49106011234E+03 -0.71432887810E+03  0.11290921194E+04  0.95803153545E+02 0.  0.
        254    2    1    2    0    0 -0.71712271598E+03 -0.49106011234E+03 -0.25816763086E+03  0.12709352578E+04  0.89062948540E+03 0.  0.
         23    2    4    4    0    0 -0.79128834573E+02  0.17678011353E+03  0.14206989678E+03  0.26029830174E+03  0.10029341612E+03 0.  0.
         23    2    4    4    0    0 -0.63799388140E+03 -0.66784022586E+03 -0.40023752764E+03  0.10106369561E+04  0.90278560523E+02 0.  0.
          1    1    3    3  502    0  0.42724315741E+03  0.29035179359E+03 -0.48445466824E+03  0.70819291523E+03  0.00000000000E+00 0. -1.
         -1    1    3    3    0  502  0.28987955856E+03  0.20070831874E+03 -0.22987420986E+03  0.42089920414E+03  0.00000000000E+00 0.  1.
         11    1    5    5    0    0 -0.21620839523E+02 -0.86105875644E+01  0.89648652033E+01  0.24939361019E+02  0.00000000000E+00 0. -1.
        -11    1    5    5    0    0 -0.57507995050E+02  0.18539070109E+03  0.13310503157E+03  0.23535894072E+03  0.00000000000E+00 0.  1.
          4    1    6    6  503    0 -0.21804384262E+03 -0.28967354467E+03 -0.16929416590E+03  0.40014296744E+03  0.00000000000E+00 0. -1.
         -4    1    6    6    0  503 -0.41995003879E+03 -0.37816668119E+03 -0.23094336174E+03  0.61049398865E+03  0.00000000000E+00 0.  1.
<mgrwt>
<rscale>  0 0.21941700E+04</rscale>
<asrwt>0</asrwt>
<pdfrwt beam="1">  1        1 0.25942491E+00 0.21941700E+04</pdfrwt>
<pdfrwt beam="2">  1       -1 0.10981007E+00 0.21941700E+04</pdfrwt>
<totfact> 0.34039664E+00</totfact>
</mgrwt>
</event>
<event>
12    2  0.3555611E-008  0.3043681E+04  0.7818608E-02  0.8231366E-01
         -1   -1    0    0    0  501 -0.00000000000E+00  0.00000000000E+00  0.82369291877E+03  0.82369291877E+03  0.00000000000E+00 0.  1.
          1   -1    0    0  501    0  0.00000000000E+00 -0.00000000000E+00 -0.28117254302E+04  0.28117254302E+04  0.00000000000E+00 0. -1.
         23    2    1    2    0    0 -0.40016887601E+03 -0.13274551089E+04 -0.94668158595E+03  0.16812703114E+04  0.90507675187E+02 0.  0.
        254    2    1    2    0    0  0.40016887601E+03  0.13274551089E+04 -0.10413509254E+04  0.19541480376E+04  0.90111631184E+03 0.  0.
         23    2    4    4    0    0  0.20385997768E+03 -0.38972728268E+02 -0.32005764606E+03  0.39389406986E+03  0.98172691821E+02 0.  0.
         23    2    4    4    0    0  0.19630889833E+03  0.13664278371E+04 -0.72129327936E+03  0.15602539677E+04  0.92012125482E+02 0.  0.
          3    1    3    3  502    0 -0.34727148005E+03 -0.11704058607E+04 -0.86709654223E+03  0.14974323936E+04  0.00000000000E+00 0. -1.
         -3    1    3    3    0  502 -0.52897395959E+02 -0.15704924813E+03 -0.79585043721E+02  0.18383791780E+03  0.00000000000E+00 0.  1.
         11    1    5    5    0    0  0.17910663285E+03  0.23694470802E+01 -0.27317466760E+03  0.32666374030E+03  0.00000000000E+00 0.  1.
        -11    1    5    5    0    0  0.24753344826E+02 -0.41342175349E+02 -0.46882978467E+02  0.67230329558E+02  0.00000000000E+00 0. -1.
          2    1    6    6  503    0  0.17764033063E+03  0.13263114559E+04 -0.70876278369E+03  0.15142664391E+04  0.00000000000E+00 0.  1.
         -2    1    6    6    0  503  0.18668567700E+02  0.40116381222E+02 -0.12530495672E+02  0.45987528571E+02  0.00000000000E+00 0. -1.
<mgrwt>
<rscale>  0 0.30436809E+04</rscale>
<asrwt>0</asrwt>
<pdfrwt beam="1">  1        1 0.43257315E+00 0.30436809E+04</pdfrwt>
<pdfrwt beam="2">  1       -1 0.12672199E+00 0.30436809E+04</pdfrwt>
<totfact> 0.37461856E-01</totfact>
</mgrwt>
</event>
<event>
12    2  0.3555611E-008  0.1844892E+04  0.7818608E-02  0.8682784E-01
         -2   -1    0    0    0  501 -0.00000000000E+00  0.00000000000E+00  0.31982792447E+03  0.31982792447E+03  0.00000000000E+00 0.  1.
          2   -1    0    0  501    0  0.00000000000E+00 -0.00000000000E+00 -0.26605141454E+04  0.26605141454E+04  0.00000000000E+00 0. -1.
         23    2    1    2    0    0 -0.60087818819E+02  0.40862081819E+03  0.21567241477E+02  0.42362479701E+03  0.91713159930E+02 0.  0.
        254    2    1    2    0    0  0.60087818819E+02 -0.40862081819E+03 -0.23622534624E+04  0.25567172729E+04  0.88655528519E+03 0.  0.
         23    2    4    4    0    0  0.41654402096E+03 -0.39721806867E+02 -0.13753829997E+04  0.14405402836E+04  0.91603327423E+02 0.  0.
         23    2    4    4    0    0 -0.35645620214E+03 -0.36889901132E+03 -0.98687046274E+03  0.11161769893E+04  0.93756367849E+02 0.  0.
          1    1    3    3  502    0  0.14043383618E+02  0.17955815046E+03 -0.12149716870E+02  0.18051582102E+03  0.00000000000E+00 0. -1.
         -1    1    3    3    0  502 -0.74131202438E+02  0.22906266773E+03  0.33716958347E+02  0.24310897598E+03  0.00000000000E+00 0.  1.
         11    1    5    5    0    0  0.12829158715E+03  0.10676125059E+02 -0.30918921024E+03  0.33491891363E+03  0.00000000000E+00 0.  1.
        -11    1    5    5    0    0  0.28825243381E+03 -0.50397931926E+02 -0.10661937894E+04  0.11056213700E+04  0.00000000000E+00 0. -1.
          4    1    6    6  503    0 -0.54405922169E+02 -0.89798073792E+02 -0.27033708435E+03  0.29001006465E+03  0.00000000000E+00 0.  1.
         -4    1    6    6    0  503 -0.30205027997E+03 -0.27910093753E+03 -0.71653337839E+03  0.82616692460E+03  0.00000000000E+00 0. -1.
<mgrwt>
<rscale>  0 0.18448921E+04</rscale>
<asrwt>0</asrwt>
<pdfrwt beam="1">  1        2 0.40930985E+00 0.18448921E+04</pdfrwt>
<pdfrwt beam="2">  1       -2 0.49204298E-01 0.18448921E+04</pdfrwt>
<totfact> 0.10326798E+01</totfact>
</mgrwt>
</event>
<event>
12    2  0.3555611E-008  0.1143066E+04  0.7818608E-02  0.9164204E-01
          2   -1    0    0  501    0  0.00000000000E+00  0.00000000000E+00  0.32274187094E+04  0.32274187094E+04  0.00000000000E+00 0.  1.
         -2   -1    0    0    0  501 -0.00000000000E+00 -0.00000000000E+00 -0.10121095468E+03  0.10121095468E+03  0.00000000000E+00 0. -1.
         23    2    1    2    0    0  0.12307621187E+03  0.17875308689E+03  0.79317483105E+03  0.82737741181E+03  0.91250473756E+02 0.  0.
        254    2    1    2    0    0 -0.12307621187E+03 -0.17875308689E+03  0.23330329236E+04  0.25012522522E+04  0.87528268951E+03 0.  0.
         23    2    4    4    0    0 -0.46800614601E+03 -0.11994627179E+03  0.92552890438E+03  0.10480042712E+04  0.91062279205E+02 0.  0.
         23    2    4    4    0    0  0.34492993413E+03 -0.58806815100E+02  0.14075040193E+04  0.14532479811E+04  0.91799941959E+02 0.  0.
          1    1    3    3  502    0  0.92919968122E+01  0.27831170002E+02  0.26081749285E+03  0.26246272079E+03  0.00000000000E+00 0. -1.
         -1    1    3    3    0  502  0.11378421506E+03  0.15092191688E+03  0.53235733820E+03  0.56491469102E+03  0.00000000000E+00 0.  1.
         11    1    5    5    0    0 -0.31671487247E+03 -0.62090790261E+02  0.69474719430E+03  0.76605302732E+03  0.00000000000E+00 0.  1.
        -11    1    5    5    0    0 -0.15129127354E+03 -0.57855481525E+02  0.23078171008E+03  0.28195124384E+03  0.00000000000E+00 0. -1.
          2    1    6    6  503    0 -0.45128165246E+01 -0.62586237492E+01  0.19585695169E+02  0.21050780020E+02  0.00000000000E+00 0. -1.
         -2    1    6    6    0  503  0.34944275066E+03 -0.52548191350E+02  0.13879183241E+04  0.14321972011E+04  0.00000000000E+00 0.  1.
<mgrwt>
<rscale>  0 0.11430663E+04</rscale>
<asrwt>0</asrwt>
<pdfrwt beam="1">  1        2 0.49652588E+00 0.11430663E+04</pdfrwt>
<pdfrwt beam="2">  1       -2 0.15570919E-01 0.11430663E+04</pdfrwt>
<totfact> 0.41510743E+01</totfact>
</mgrwt>
</event>
<event>
12    2  0.3555611E-008  0.1579159E+04  0.7818608E-02  0.8833455E-01
          1   -1    0    0  501    0  0.00000000000E+00  0.00000000000E+00  0.20839833126E+04  0.20839833126E+04  0.00000000000E+00 0. -1.
         -1   -1    0    0    0  501 -0.00000000000E+00 -0.00000000000E+00 -0.29915567717E+03  0.29915567717E+03  0.00000000000E+00 0.  1.
         23    2    1    2    0    0 -0.20854004443E+03  0.44641121507E+02 -0.12178227710E+03  0.26452996284E+03  0.98302585740E+02 0.  0.
        254    2    1    2    0    0  0.20854004443E+03 -0.44641121507E+02  0.19066099125E+04  0.21186090269E+04  0.89881092037E+03 0.  0.
         23    2    4    4    0    0  0.55468373422E+03 -0.41439987554E+02  0.10935657609E+04  0.12303800990E+04  0.92508362178E+02 0.  0.
         23    2    4    4    0    0 -0.34614368979E+03 -0.32011339523E+01  0.81304415165E+03  0.88822892793E+03  0.89911815926E+02 0.  0.
          3    1    3    3  502    0 -0.17860588963E+02  0.46309368996E+01  0.17185864774E+02  0.25215078083E+02  0.00000000000E+00 0. -1.
         -3    1    3    3    0  502 -0.19067945547E+03  0.40010184607E+02 -0.13896814188E+03  0.23931488476E+03  0.00000000000E+00 0.  1.
         11    1    5    5    0    0  0.22086343548E+03  0.28495203984E+02  0.42022511675E+03  0.47558572575E+03  0.00000000000E+00 0.  1.
        -11    1    5    5    0    0  0.33382029874E+03 -0.69935191539E+02  0.67334064410E+03  0.75479437323E+03  0.00000000000E+00 0. -1.
          4    1    6    6  503    0 -0.12695405728E+03 -0.19049851024E+02  0.40375277973E+03  0.42367031596E+03  0.00000000000E+00 0.  1.
         -4    1    6    6    0  503 -0.21918963250E+03  0.15848717072E+02  0.40929137192E+03  0.46455861197E+03  0.00000000000E+00 0. -1.
<mgrwt>
<rscale>  0 0.15791586E+04</rscale>
<asrwt>0</asrwt>
<pdfrwt beam="1">  1        1 0.32061281E+00 0.15791586E+04</pdfrwt>
<pdfrwt beam="2">  1       -1 0.46023952E-01 0.15791586E+04</pdfrwt>
<totfact> 0.11800730E+01</totfact>
</mgrwt>
</event>
<event>
12    2  0.3555611E-008  0.1676672E+04  0.7818608E-02  0.8774782E-01
         -2   -1    0    0    0  501 -0.00000000000E+00  0.00000000000E+00  0.41092710141E+03  0.41092710141E+03  0.00000000000E+00 0.  1.
          2   -1    0    0  501    0  0.00000000000E+00 -0.00000000000E+00 -0.17102970201E+04  0.17102970201E+04  0.00000000000E+00 0. -1.
         23    2    1    2    0    0  0.12502145261E+03  0.58087067156E+03 -0.38583308891E+03  0.71460741851E+03  0.93570772165E+02 0.  0.
        254    2    1    2    0    0 -0.12502145261E+03 -0.58087067156E+03 -0.91353682980E+03  0.14066167030E+04  0.88937051287E+03 0.  0.
         23    2    4    4    0    0 -0.29898073648E+03  0.15099352955E+02 -0.65871403653E+03  0.72945100915E+03  0.92612750674E+02 0.  0.
         23    2    4    4    0    0  0.17395928386E+03 -0.59597002451E+03 -0.25482279327E+03  0.67716569388E+03  0.90424656137E+02 0.  0.
          2    1    3    3  502    0  0.47329608645E+02  0.81045261885E+02 -0.40976539716E+02  0.10240851105E+03  0.00000000000E+00 0. -1.
         -2    1    3    3    0  502  0.77691843970E+02  0.49982540967E+03 -0.34485654920E+03  0.61219890746E+03  0.00000000000E+00 0.  1.
         11    1    5    5    0    0 -0.30436562151E+03  0.13989786295E+02 -0.62523478404E+03  0.69552331438E+03  0.00000000000E+00 0. -1.
        -11    1    5    5    0    0  0.53848850333E+01  0.11095666602E+01 -0.33479252492E+02  0.33927694770E+02  0.00000000000E+00 0.  1.
          1    1    6    6  503    0  0.14832016201E+03 -0.57050322246E+03 -0.22743475474E+03  0.63182225741E+03  0.00000000000E+00 0. -1.
         -1    1    6    6    0  503  0.25639121852E+02 -0.25466802051E+02 -0.27388038532E+02  0.45343436468E+02  0.00000000000E+00 0.  1.
<mgrwt>
<rscale>  0 0.16766722E+04</rscale>
<asrwt>0</asrwt>
<pdfrwt beam="1">  1        2 0.26312262E+00 0.16766722E+04</pdfrwt>
<pdfrwt beam="2">  1       -2 0.63219555E-01 0.16766722E+04</pdfrwt>
<totfact> 0.21376952E+01</totfact>
</mgrwt>
</event>
<event>
12    2  0.3555611E-008  0.1445273E+04  0.7818608E-02  0.8921684E-01
          2   -1    0    0  501    0  0.00000000000E+00  0.00000000000E+00  0.10927767620E+04  0.10927767620E+04  0.00000000000E+00 0. -1.
         -2   -1    0    0    0  501 -0.00000000000E+00 -0.00000000000E+00 -0.47786850345E+03  0.47786850345E+03  0.00000000000E+00 0.  1.
         23    2    1    2    0    0  0.27274284131E+03 -0.24940088080E+03 -0.61620602343E+02  0.38253599111E+03  0.77118279497E+02 0.  0.
        254    2    1    2    0    0 -0.27274284131E+03  0.24940088080E+03  0.67652886088E+03  0.11881092743E+04  0.90405911937E+03 0.  0.
         23    2    4    4    0    0 -0.38219610692E+03 -0.51986069296E+02  0.74847502482E+03  0.84699308437E+03  0.91684276979E+02 0.  0.
         23    2    4    4    0    0  0.10945326560E+03  0.30138695010E+03 -0.71946163943E+02  0.34111618996E+03  0.91487122090E+02 0.  0.
          3    1    3    3  502    0  0.17112565521E+02 -0.49920130605E+02 -0.15635751966E+02  0.55039404774E+02  0.00000000000E+00 0. -1.
         -3    1    3    3    0  502  0.25563027579E+03 -0.19948075019E+03 -0.45984850377E+02  0.32749658634E+03  0.00000000000E+00 0.  1.
         11    1    5    5    0    0 -0.10311711874E+03 -0.46587476897E+01  0.29379900844E+03  0.31140440182E+03  0.00000000000E+00 0. -1.
        -11    1    5    5    0    0 -0.27907898817E+03 -0.47327321606E+02  0.45467601638E+03  0.53558868255E+03  0.00000000000E+00 0.  1.
          1    1    6    6  503    0  0.19372616262E+01  0.71576600261E+01 -0.22863961711E+02  0.24036343831E+02  0.00000000000E+00 0. -1.
         -1    1    6    6    0  503  0.10751600398E+03  0.29422929007E+03 -0.49082202233E+02  0.31707984613E+03  0.00000000000E+00 0.  1.
<mgrwt>
<rscale>  0 0.14452731E+04</rscale>
<asrwt>0</asrwt>
<pdfrwt beam="1">  1        2 0.16811950E+00 0.14452731E+04</pdfrwt>
<pdfrwt beam="2">  1       -2 0.73518232E-01 0.14452731E+04</pdfrwt>
<totfact> 0.35644849E+01</totfact>
</mgrwt>
</event>
<event>
12    2  0.3555611E-008  0.3041105E+04  0.7818608E-02  0.8232089E-01
          2   -1    0    0  501    0  0.00000000000E+00  0.00000000000E+00  0.16835879227E+04  0.16835879227E+04  0.00000000000E+00 0. -1.
         -2   -1    0    0    0  501 -0.00000000000E+00 -0.00000000000E+00 -0.13733054431E+04  0.13733054431E+04  0.00000000000E+00 0.  1.
         23    2    1    2    0    0  0.34659679141E+03  0.13169975481E+04  0.39520322505E+03  0.14210210777E+04  0.92214080613E+02 0.  0.
        254    2    1    2    0    0 -0.34659679141E+03 -0.13169975481E+04 -0.84920745496E+02  0.16358722882E+04  0.90236064445E+03 0.  0.
         23    2    4    4    0    0 -0.38317186849E+03 -0.92984276206E+02  0.91724372796E+01  0.40437393934E+03  0.89260253134E+02 0.  0.
         23    2    4    4    0    0  0.36575077074E+02 -0.12240132719E+04 -0.94093182775E+02  0.12314983488E+04  0.90489944684E+02 0.  0.
          3    1    3    3  502    0  0.28436669310E+03  0.91556958503E+03  0.27379333178E+03  0.99704306312E+03  0.00000000000E+00 0. -1.
         -3    1    3    3    0  502  0.62230098315E+02  0.40142796305E+03  0.12140989327E+03  0.42397801457E+03  0.00000000000E+00 0.  1.
         11    1    5    5    0    0 -0.46117389596E+02 -0.43688968003E+02 -0.18923685946E+01  0.63554076244E+02  0.00000000000E+00 0. -1.
        -11    1    5    5    0    0 -0.33705447889E+03 -0.49295308204E+02  0.11064805874E+02  0.34081986309E+03  0.00000000000E+00 0.  1.
          4    1    6    6  503    0  0.65789684347E+01 -0.99138099762E+02 -0.32508999669E+02  0.10453937397E+03  0.00000000000E+00 0. -1.
         -4    1    6    6    0  503  0.29996108639E+02 -0.11248751721E+04 -0.61584183106E+02  0.11269589748E+04  0.00000000000E+00 0.  1.
<mgrwt>
<rscale>  0 0.30411054E+04</rscale>
<asrwt>0</asrwt>
<pdfrwt beam="1">  1        2 0.25901353E+00 0.30411054E+04</pdfrwt>
<pdfrwt beam="2">  1       -2 0.21127776E+00 0.30411054E+04</pdfrwt>
<totfact> 0.96016455E-01</totfact>
</mgrwt>
</event>
<event>
12    2  0.3555611E-008  0.1139047E+04  0.7818608E-02  0.9167948E-01
          2   -1    0    0  501    0  0.00000000000E+00  0.00000000000E+00  0.28962452502E+04  0.28962452502E+04  0.00000000000E+00 0. -1.
         -2   -1    0    0    0  501 -0.00000000000E+00 -0.00000000000E+00 -0.11199223040E+03  0.11199223040E+03  0.00000000000E+00 0.  1.
         23    2    1    2    0    0  0.15679322324E+02  0.15171123847E+03  0.17858125370E+03  0.24947975193E+03  0.84182785788E+02 0.  0.
        254    2    1    2    0    0 -0.15679322324E+02 -0.15171123847E+03  0.26056717661E+04  0.27587577286E+04  0.89328422790E+03 0.  0.
         23    2    4    4    0    0  0.33207517223E+02  0.32497245357E+02 -0.35144384653E+02  0.10955944939E+03  0.92786502367E+02 0.  0.
         23    2    4    4    0    0 -0.48886839547E+02 -0.18420848383E+03  0.26408161507E+04  0.26491982792E+04  0.89548267905E+02 0.  0.
          4    1    3    3  502    0  0.21143139137E+02  0.10290472588E+03  0.16967909029E+03  0.19956805512E+03  0.00000000000E+00 0. -1.
         -4    1    3    3    0  502 -0.54638168128E+01  0.48806512588E+02  0.89021634070E+01  0.49911696810E+02  0.00000000000E+00 0.  1.
         11    1    5    5    0    0  0.63312224432E+02  0.10018250064E+02 -0.11377034425E+02  0.65101766560E+02  0.00000000000E+00 0.  1.
        -11    1    5    5    0    0 -0.30104707209E+02  0.22478995292E+02 -0.23767350228E+02  0.44457682827E+02  0.00000000000E+00 0. -1.
          4    1    6    6  503    0 -0.23855152591E+02 -0.17492793349E+03  0.19839241585E+04  0.19917640213E+04  0.00000000000E+00 0. -1.
         -4    1    6    6    0  503 -0.25031686956E+02 -0.92805503344E+01  0.65689199226E+03  0.65743425790E+03  0.00000000000E+00 0.  1.
<mgrwt>
<rscale>  0 0.11390469E+04</rscale>
<asrwt>0</asrwt>
<pdfrwt beam="1">  1        2 0.44557614E+00 0.11390469E+04</pdfrwt>
<pdfrwt beam="2">  1       -2 0.17229576E-01 0.11390469E+04</pdfrwt>
<totfact> 0.56267498E+01</totfact>
</mgrwt>
</event>
<event>
12    2  0.3555611E-008  0.2234186E+04  0.7818608E-02  0.8504332E-01
          2   -1    0    0  501    0  0.00000000000E+00  0.00000000000E+00  0.22262568874E+04  0.22262568874E+04  0.00000000000E+00 0. -1.
         -2   -1    0    0    0  501 -0.00000000000E+00 -0.00000000000E+00 -0.56053581912E+03  0.56053581912E+03  0.00000000000E+00 0.  1.
         23    2    1    2    0    0  0.67565429627E+03  0.26038873968E+03  0.14384232690E+04  0.16129982021E+04  0.91600629973E+02 0.  0.
        254    2    1    2    0    0 -0.67565429627E+03 -0.26038873968E+03  0.22729779924E+03  0.11737945044E+04  0.89544303287E+03 0.  0.
         23    2    4    4    0    0 -0.72648524326E+03 -0.49950322347E+03  0.13183605787E+03  0.89598000849E+03  0.90084130255E+02 0.  0.
         23    2    4    4    0    0  0.50830946988E+02  0.23911448379E+03  0.95461741369E+02  0.27781449587E+03  0.91150581576E+02 0.  0.
          1    1    3    3  502    0  0.54731080587E+03  0.18847414563E+03  0.12094438758E+04  0.13408303809E+04  0.00000000000E+00 0. -1.
         -1    1    3    3    0  502  0.12834349040E+03  0.71914594051E+02  0.22897939327E+03  0.27216782122E+03  0.00000000000E+00 0.  1.
         11    1    5    5    0    0 -0.40943913876E+03 -0.23771227084E+03  0.43490755523E+02  0.47543556648E+03  0.00000000000E+00 0. -1.
        -11    1    5    5    0    0 -0.31704610450E+03 -0.26179095264E+03  0.88345302350E+02  0.42054444201E+03  0.00000000000E+00 0.  1.
          4    1    6    6  503    0  0.58472358520E+02  0.88996657016E+02  0.15660042508E+02  0.10763205193E+03  0.00000000000E+00 0. -1.
         -4    1    6    6    0  503 -0.76414115325E+01  0.15011782678E+03  0.79801698861E+02  0.17018244395E+03  0.00000000000E+00 0.  1.
<mgrwt>
<rscale>  0 0.22341860E+04</rscale>
<asrwt>0</asrwt>
<pdfrwt beam="1">  1        2 0.34250105E+00 0.22341860E+04</pdfrwt>
<pdfrwt beam="2">  1       -2 0.86236281E-01 0.22341860E+04</pdfrwt>
<totfact> 0.53028057E+00</totfact>
</mgrwt>
</event>
<event>
12    2  0.3555611E-008  0.1447977E+04  0.7818608E-02  0.8919804E-01
          2   -1    0    0  501    0  0.00000000000E+00  0.00000000000E+00  0.28463153917E+04  0.28463153917E+04  0.00000000000E+00 0.  1.
         -2   -1    0    0    0  501 -0.00000000000E+00 -0.00000000000E+00 -0.18415354968E+03  0.18415354968E+03  0.00000000000E+00 0. -1.
         23    2    1    2    0    0 -0.35524876421E+03 -0.46826940564E+02  0.14139897131E+04  0.14613967820E+04  0.88989880892E+02 0.  0.
        254    2    1    2    0    0  0.35524876421E+03  0.46826940564E+02  0.12481721289E+04  0.15690721593E+04  0.88071523832E+03 0.  0.
         23    2    4    4    0    0  0.50530096398E+02  0.43287777204E+03  0.50742385349E+03  0.67521847602E+03  0.92220209826E+02 0.  0.
         23    2    4    4    0    0  0.30471866781E+03 -0.38605083147E+03  0.74074827542E+03  0.89385368333E+03  0.91529714661E+02 0.  0.
          1    1    3    3  502    0 -0.11190157637E+03 -0.13926483160E+02  0.62449836343E+03  0.63459760136E+03  0.00000000000E+00 0. -1.
         -1    1    3    3    0  502 -0.24334718784E+03 -0.32900457404E+02  0.78949134964E+03  0.82679918062E+03  0.00000000000E+00 0.  1.
         11    1    5    5    0    0  0.16134525771E+02  0.11137122110E+03  0.74846933205E+02  0.13515152690E+03  0.00000000000E+00 0.  1.
        -11    1    5    5    0    0  0.34395570628E+02  0.32150655093E+03  0.43257692028E+03  0.54006694912E+03  0.00000000000E+00 0. -1.
          2    1    6    6  503    0  0.26567126842E+03 -0.32329358084E+03  0.56405050435E+03  0.70231968058E+03  0.00000000000E+00 0. -1.
         -2    1    6    6    0  503  0.39047399398E+02 -0.62757250628E+02  0.17669777107E+03  0.19153400275E+03  0.00000000000E+00 0.  1.
<mgrwt>
<rscale>  0 0.14479766E+04</rscale>
<asrwt>0</asrwt>
<pdfrwt beam="1">  1        2 0.43789464E+00 0.14479766E+04</pdfrwt>
<pdfrwt beam="2">  1       -2 0.28331317E-01 0.14479766E+04</pdfrwt>
<totfact> 0.24131616E+01</totfact>
</mgrwt>
</event>
<event>
12    2  0.3555611E-008  0.3396432E+04  0.7818608E-02  0.8138783E-01
         -1   -1    0    0    0  501 -0.00000000000E+00  0.00000000000E+00  0.15633006242E+04  0.15633006242E+04  0.00000000000E+00 0.  1.
          1   -1    0    0  501    0  0.00000000000E+00 -0.00000000000E+00 -0.18447746303E+04  0.18447746303E+04  0.00000000000E+00 0. -1.
         23    2    1    2    0    0 -0.71093104162E+03  0.10397442810E+04  0.82124592379E+03  0.15056251787E+04  0.77273510498E+02 0.  0.
        254    2    1    2    0    0  0.71093104162E+03 -0.10397442810E+04 -0.11027199299E+04  0.19024500759E+04  0.90378865422E+03 0.  0.
         23    2    4    4    0    0 -0.20525714430E+03 -0.14903929677E+03 -0.19237037214E+03  0.33098990440E+03  0.90580072122E+02 0.  0.
         23    2    4    4    0    0  0.91618818592E+03 -0.89070498424E+03 -0.91034955779E+03  0.15714601715E+04  0.89412483451E+02 0.  0.
          3    1    3    3  502    0 -0.46585547452E+03  0.73652351993E+03  0.58806258423E+03  0.10513352565E+04  0.00000000000E+00 0. -1.
         -3    1    3    3    0  502 -0.24507556710E+03  0.30322076108E+03  0.23318333956E+03  0.45428992217E+03  0.00000000000E+00 0.  1.
         11    1    5    5    0    0 -0.37737764941E+02 -0.39627251234E+02 -0.19187086869E+01  0.54755268113E+02  0.00000000000E+00 0.  1.
        -11    1    5    5    0    0 -0.16751937936E+03 -0.10941204553E+03 -0.19045166345E+03  0.27623463628E+03  0.00000000000E+00 0. -1.
          1    1    6    6  503    0  0.29783215624E+03 -0.24561228889E+03 -0.24273504843E+03  0.45601501453E+03  0.00000000000E+00 0. -1.
         -1    1    6    6    0  503  0.61835602968E+03 -0.64509269536E+03 -0.66761450936E+03  0.11154451569E+04  0.00000000000E+00 0.  1.
<mgrwt>
<rscale>  0 0.33964319E+04</rscale>
<asrwt>0</asrwt>
<pdfrwt beam="1">  1        1 0.28381148E+00 0.33964319E+04</pdfrwt>
<pdfrwt beam="2">  1       -1 0.24050779E+00 0.33964319E+04</pdfrwt>
<totfact> 0.25149587E-01</totfact>
</mgrwt>
</event>
<event>
12    2  0.3555611E-008  0.1825010E+04  0.7818608E-02  0.8693112E-01
         -1   -1    0    0    0  501 -0.00000000000E+00  0.00000000000E+00  0.34889998701E+03  0.34889998701E+03  0.00000000000E+00 0.  1.
          1   -1    0    0  501    0  0.00000000000E+00 -0.00000000000E+00 -0.23865437605E+04  0.23865437605E+04  0.00000000000E+00 0. -1.
         23    2    1    2    0    0 -0.24704307857E+03 -0.51113631767E+03 -0.19212573235E+03  0.60631594576E+03  0.91739365241E+02 0.  0.
        254    2    1    2    0    0  0.24704307857E+03  0.51113631767E+03 -0.18455180412E+04  0.21291278018E+04  0.89719437030E+03 0.  0.
         23    2    4    4    0    0  0.16095815101E+03  0.43307651752E+03 -0.19098979731E+04  0.19677119209E+04  0.10352361877E+03 0.  0.
         23    2    4    4    0    0  0.86084927560E+02  0.78059800156E+02  0.64379931918E+02  0.16141588088E+03  0.91686224770E+02 0.  0.
          4    1    3    3  502    0  0.70016206580E+01 -0.72490526128E+01  0.35967993886E+00  0.10084682706E+02  0.00000000000E+00 0. -1.
         -4    1    3    3    0  502 -0.25404469923E+03 -0.50388726506E+03 -0.19248541228E+03  0.59623126305E+03  0.00000000000E+00 0.  1.
         11    1    5    5    0    0 -0.41694311136E+01  0.19900800954E+01 -0.25127923469E+01  0.52591539220E+01  0.00000000000E+00 0.  1.
        -11    1    5    5    0    0  0.16512758212E+03  0.43108643742E+03 -0.19073851807E+04  0.19624527670E+04  0.00000000000E+00 0. -1.
          2    1    6    6  503    0  0.78608347827E+02  0.97443362546E+01  0.37243835335E+02  0.87529010662E+02  0.00000000000E+00 0. -1.
         -2    1    6    6    0  503  0.74765797338E+01  0.68315463902E+02  0.27136096584E+02  0.73886870217E+02  0.00000000000E+00 0.  1.
<mgrwt>
<rscale>  0 0.18250097E+04</rscale>
<asrwt>0</asrwt>
<pdfrwt beam="1">  1        1 0.36716060E+00 0.18250097E+04</pdfrwt>
<pdfrwt beam="2">  1       -1 0.53676918E-01 0.18250097E+04</pdfrwt>
<totfact> 0.53564352E+00</totfact>
</mgrwt>
</event>
<event>
12    2  0.3555611E-008  0.4998646E+04  0.7818608E-02  0.7828716E-01
          1   -1    0    0  501    0  0.00000000000E+00  0.00000000000E+00  0.16561467020E+04  0.16561467020E+04  0.00000000000E+00 0. -1.
         -1   -1    0    0    0  501 -0.00000000000E+00 -0.00000000000E+00 -0.37717771134E+04  0.37717771134E+04  0.00000000000E+00 0.  1.
         23    2    1    2    0    0  0.81331697016E+03  0.15858473084E+04 -0.27954099997E+04  0.33165012214E+04  0.92016878438E+02 0.  0.
        254    2    1    2    0    0 -0.81331697016E+03 -0.15858473084E+04  0.67977958829E+03  0.21114225939E+04  0.90532254032E+03 0.  0.
         23    2    4    4    0    0 -0.62321555040E+03 -0.11240718961E+04  0.88651437038E+03  0.15640981026E+04  0.92519705071E+02 0.  0.
         23    2    4    4    0    0 -0.19010141976E+03 -0.46177541226E+03 -0.20673478209E+03  0.54732449129E+03  0.86311919707E+02 0.  0.
          4    1    3    3  502    0  0.56439718392E+03  0.10337843019E+04 -0.19035134412E+04  0.22384408826E+04  0.00000000000E+00 0.  1.
         -4    1    3    3    0  502  0.24891978625E+03  0.55206300645E+03 -0.89189655846E+03  0.10780603388E+04  0.00000000000E+00 0. -1.
         11    1    5    5    0    0 -0.56673277146E+03 -0.10663277782E+04  0.83825539393E+03  0.14700044457E+04  0.00000000000E+00 0.  1.
        -11    1    5    5    0    0 -0.56482778947E+02 -0.57744117873E+02  0.48258976450E+02  0.94093656930E+02  0.00000000000E+00 0. -1.
          4    1    6    6  503    0  0.13788556209E+01 -0.26567120227E+02  0.46111263789E+01  0.26999548264E+02  0.00000000000E+00 0. -1.
         -4    1    6    6    0  503 -0.19148027538E+03 -0.43520829203E+03 -0.21134590847E+03  0.52032494303E+03  0.00000000000E+00 0.  1.
<mgrwt>
<rscale>  0 0.49986463E+04</rscale>
<asrwt>0</asrwt>
<pdfrwt beam="1">  1        1 0.25479180E+00 0.49986463E+04</pdfrwt>
<pdfrwt beam="2">  1       -1 0.58027339E+00 0.49986463E+04</pdfrwt>
<totfact> 0.19895680E-03</totfact>
</mgrwt>
</event>
<event>
12    2  0.3555611E-008  0.1700354E+04  0.7818608E-02  0.8761163E-01
          2   -1    0    0  501    0  0.00000000000E+00  0.00000000000E+00  0.14114891347E+04  0.14114891347E+04  0.00000000000E+00 0. -1.
         -2   -1    0    0    0  501 -0.00000000000E+00 -0.00000000000E+00 -0.51208387913E+03  0.51208387913E+03  0.00000000000E+00 0.  1.
         23    2    1    2    0    0  0.43367263230E+02 -0.23804118528E+03 -0.30645770992E+03  0.40216737554E+03  0.96322087627E+02 0.  0.
        254    2    1    2    0    0 -0.43367263230E+02  0.23804118528E+03  0.12058629655E+04  0.15214056383E+04  0.89555865207E+03 0.  0.
         23    2    4    4    0    0 -0.32620881142E+03  0.20197221006E+03  0.11510065956E+04  0.12170754082E+04  0.96184218658E+02 0.  0.
         23    2    4    4    0    0  0.28284154819E+03  0.36068975220E+02  0.54856369953E+02  0.30433023012E+03  0.91144694201E+02 0.  0.
          1    1    3    3  502    0  0.14818070097E+01  0.39293513776E+01 -0.38406006045E+02  0.38634917556E+02  0.00000000000E+00 0. -1.
         -1    1    3    3    0  502  0.41885456220E+02 -0.24197053665E+03 -0.26805170388E+03  0.36353245798E+03  0.00000000000E+00 0.  1.
         11    1    5    5    0    0 -0.33103168888E+03  0.20363346131E+03  0.11451730267E+04  0.12093261871E+04  0.00000000000E+00 0. -1.
        -11    1    5    5    0    0  0.48228774573E+01 -0.16612512580E+01  0.58335688872E+01  0.77492211655E+01  0.00000000000E+00 0.  1.
          1    1    6    6  503    0  0.20410499149E+03  0.11632612063E+02 -0.15445851532E+01  0.20444204792E+03  0.00000000000E+00 0. -1.
         -1    1    6    6    0  503  0.78736556705E+02  0.24436363157E+02  0.56400955106E+02  0.99888182199E+02  0.00000000000E+00 0.  1.
<mgrwt>
<rscale>  0 0.17003539E+04</rscale>
<asrwt>0</asrwt>
<pdfrwt beam="1">  1        2 0.21715217E+00 0.17003539E+04</pdfrwt>
<pdfrwt beam="2">  1       -2 0.78782136E-01 0.17003539E+04</pdfrwt>
<totfact> 0.19404888E+01</totfact>
</mgrwt>
</event>
<event>
12    2  0.3555611E-008  0.2421937E+04  0.7818608E-02  0.8431336E-01
         -1   -1    0    0    0  501 -0.00000000000E+00  0.00000000000E+00  0.17255744087E+04  0.17255744087E+04  0.00000000000E+00 0.  1.
          1   -1    0    0  501    0  0.00000000000E+00 -0.00000000000E+00 -0.84982993935E+03  0.84982993935E+03  0.00000000000E+00 0. -1.
         23    2    1    2    0    0  0.61355524337E+03  0.16281894729E+03  0.12491900309E+04  0.14040273566E+04  0.88639937561E+02 0.  0.
        254    2    1    2    0    0 -0.61355524337E+03 -0.16281894729E+03 -0.37344556149E+03  0.11713769915E+04  0.91088002645E+03 0.  0.
         23    2    4    4    0    0 -0.72578572760E+03  0.11968151486E+03 -0.91643912845E+02  0.74668000470E+03  0.89687430935E+02 0.  0.
         23    2    4    4    0    0  0.11223048423E+03 -0.28250046215E+03 -0.28180164864E+03  0.42469698681E+03  0.92483342969E+02 0.  0.
          3    1    3    3  502    0  0.12141571598E+03  0.41186930514E+02  0.33481979866E+03  0.35852815358E+03  0.00000000000E+00 0. -1.
         -3    1    3    3    0  502  0.49213952739E+03  0.12163201678E+03  0.91437023219E+03  0.10454992030E+04  0.00000000000E+00 0.  1.
         11    1    5    5    0    0 -0.59042010653E+03  0.13101854200E+03 -0.65155917030E+02  0.60828205140E+03  0.00000000000E+00 0. -1.
        -11    1    5    5    0    0 -0.13536562107E+03 -0.11337027143E+02 -0.26487995815E+02  0.13839795329E+03  0.00000000000E+00 0.  1.
          4    1    6    6  503    0  0.10171343853E+03 -0.27944104479E+03 -0.24195800147E+03  0.38337526728E+03  0.00000000000E+00 0. -1.
         -4    1    6    6    0  503  0.10517045696E+02 -0.30594173609E+01 -0.39843647176E+02  0.41321719532E+02  0.00000000000E+00 0.  1.
<mgrwt>
<rscale>  0 0.24219371E+04</rscale>
<asrwt>0</asrwt>
<pdfrwt beam="1">  1        1 0.13074307E+00 0.24219371E+04</pdfrwt>
<pdfrwt beam="2">  1       -1 0.26547299E+00 0.24219371E+04</pdfrwt>
<totfact> 0.99067336E-01</totfact>
</mgrwt>
</event>
<event>
12    2  0.3555611E-008  0.1457874E+04  0.7818608E-02  0.8912960E-01
          2   -1    0    0  501    0  0.00000000000E+00  0.00000000000E+00  0.39345473337E+04  0.39345473337E+04  0.00000000000E+00 0. -1.
         -2   -1    0    0    0  501 -0.00000000000E+00 -0.00000000000E+00 -0.13504701254E+03  0.13504701254E+03  0.00000000000E+00 0.  1.
         23    2    1    2    0    0  0.34171026037E+03  0.24232593255E+03  0.16164517264E+04  0.16726451420E+04  0.96632436536E+02 0.  0.
        254    2    1    2    0    0 -0.34171026037E+03 -0.24232593255E+03  0.21830485948E+04  0.23969492042E+04  0.89675892014E+03 0.  0.
         23    2    4    4    0    0 -0.13875740569E+03  0.33310455481E+03  0.85826689792E+03  0.93549150475E+03  0.91159340368E+02 0.  0.
         23    2    4    4    0    0 -0.20295285468E+03 -0.57543048736E+03  0.13247816969E+04  0.14614576995E+04  0.92206051871E+02 0.  0.
          4    1    3    3  502    0  0.11733690703E+02 -0.72169993412E+01  0.28043415309E+02  0.31244162962E+02  0.00000000000E+00 0.  1.
         -4    1    3    3    0  502  0.32997656966E+03  0.24954293189E+03  0.15884083111E+04  0.16414009791E+04  0.00000000000E+00 0. -1.
         11    1    5    5    0    0 -0.14003202707E+03  0.28821938885E+03  0.80101689750E+03  0.86273255114E+03  0.00000000000E+00 0.  1.
        -11    1    5    5    0    0  0.12746213870E+01  0.44885165964E+02  0.57250000415E+02  0.72758953613E+02  0.00000000000E+00 0. -1.
          3    1    6    6  503    0 -0.68875142176E+02 -0.14845096106E+03  0.45019554610E+03  0.47901722597E+03  0.00000000000E+00 0. -1.
         -3    1    6    6    0  503 -0.13407771250E+03 -0.42697952630E+03  0.87458615078E+03  0.98244047352E+03  0.00000000000E+00 0.  1.
<mgrwt>
<rscale>  0 0.14578736E+04</rscale>
<asrwt>0</asrwt>
<pdfrwt beam="1">  1        2 0.60531489E+00 0.14578736E+04</pdfrwt>
<pdfrwt beam="2">  1       -2 0.20776466E-01 0.14578736E+04</pdfrwt>
<totfact> 0.76605668E+00</totfact>
</mgrwt>
</event>
<event>
12    2  0.3555611E-008  0.3065375E+04  0.7818608E-02  0.8225305E-01
         -1   -1    0    0    0  501 -0.00000000000E+00  0.00000000000E+00  0.90679726685E+03  0.90679726685E+03  0.00000000000E+00 0.  1.
          1   -1    0    0  501    0  0.00000000000E+00 -0.00000000000E+00 -0.25905800624E+04  0.25905800624E+04  0.00000000000E+00 0. -1.
         23    2    1    2    0    0 -0.60551525254E+03 -0.11019547958E+04 -0.65529351921E+02  0.12623929803E+04  0.91590653258E+02 0.  0.
        254    2    1    2    0    0  0.60551525254E+03  0.11019547958E+04 -0.16182534436E+04  0.22349843489E+04  0.89188437554E+03 0.  0.
         23    2    4    4    0    0  0.46817347635E+03  0.26050102128E+03 -0.11156087107E+04  0.12409188527E+04  0.90827406126E+02 0.  0.
         23    2    4    4    0    0  0.13734177618E+03  0.84145377447E+03 -0.50264473292E+03  0.99406549619E+03  0.92775347640E+02 0.  0.
          2    1    3    3  502    0 -0.34926537106E+03 -0.59771277430E+03 -0.77853055924E+02  0.69664047995E+03  0.00000000000E+00 0. -1.
         -2    1    3    3    0  502 -0.25624988148E+03 -0.50424202145E+03  0.12323704003E+02  0.56575250034E+03  0.00000000000E+00 0.  1.
         11    1    5    5    0    0  0.33921997838E+03  0.19797632153E+03 -0.72014898224E+03  0.82029224929E+03  0.00000000000E+00 0. -1.
        -11    1    5    5    0    0  0.12895349797E+03  0.62524699750E+02 -0.39545972844E+03  0.42062660345E+03  0.00000000000E+00 0.  1.
          1    1    6    6  503    0  0.60316428670E+02  0.60092092088E+03 -0.37728276554E+03  0.71209992971E+03  0.00000000000E+00 0. -1.
         -1    1    6    6    0  503  0.77025347513E+02  0.24053285360E+03 -0.12536196738E+03  0.28196556649E+03  0.00000000000E+00 0.  1.
<mgrwt>
<rscale>  0 0.30653750E+04</rscale>
<asrwt>0</asrwt>
<pdfrwt beam="1">  1        1 0.39855077E+00 0.30653750E+04</pdfrwt>
<pdfrwt beam="2">  1       -1 0.13950727E+00 0.30653750E+04</pdfrwt>
<totfact> 0.41924163E-01</totfact>
</mgrwt>
</event>
<event>
12    2  0.3555611E-008  0.1797849E+04  0.7818608E-02  0.8707444E-01
          1   -1    0    0  501    0  0.00000000000E+00  0.00000000000E+00  0.92465170166E+03  0.92465170166E+03  0.00000000000E+00 0. -1.
         -1   -1    0    0    0  501 -0.00000000000E+00 -0.00000000000E+00 -0.87391324086E+03  0.87391324086E+03  0.00000000000E+00 0.  1.
         23    2    1    2    0    0  0.41082854043E+03 -0.32283873861E+03  0.42197263275E+03  0.67803016262E+03  0.93054058830E+02 0.  0.
        254    2    1    2    0    0 -0.41082854043E+03  0.32283873861E+03 -0.37123417195E+03  0.11205347799E+04  0.91911829585E+03 0.  0.
         23    2    4    4    0    0 -0.65033408957E+02  0.59433170608E+03 -0.15828500846E+03  0.62405763573E+03  0.83272250358E+02 0.  0.
         23    2    4    4    0    0 -0.34579513147E+03 -0.27149296748E+03 -0.21294916349E+03  0.49647714417E+03  0.88653844316E+02 0.  0.
          2    1    3    3  502    0  0.40118605442E+03 -0.29396890045E+03  0.37870189494E+03  0.62512645914E+03  0.00000000000E+00 0. -1.
         -2    1    3    3    0  502  0.96424860125E+01 -0.28869838154E+02  0.43270737805E+02  0.52903703479E+02  0.00000000000E+00 0.  1.
         11    1    5    5    0    0 -0.46698274726E+02  0.11858559222E+03 -0.28757630858E+02  0.13065325437E+03  0.00000000000E+00 0.  1.
        -11    1    5    5    0    0 -0.18335134231E+02  0.47574611386E+03 -0.12952737761E+03  0.49340438136E+03  0.00000000000E+00 0. -1.
          3    1    6    6  503    0 -0.20311116836E+03 -0.10863027408E+03 -0.88619400134E+02  0.24679562645E+03  0.00000000000E+00 0. -1.
         -3    1    6    6    0  503 -0.14268396311E+03 -0.16286269340E+03 -0.12432976335E+03  0.24968151771E+03  0.00000000000E+00 0.  1.
<mgrwt>
<rscale>  0 0.17978491E+04</rscale>
<asrwt>0</asrwt>
<pdfrwt beam="1">  1        1 0.14225411E+00 0.17978491E+04</pdfrwt>
<pdfrwt beam="2">  1       -1 0.13444819E+00 0.17978491E+04</pdfrwt>
<totfact> 0.76336837E+00</totfact>
</mgrwt>
</event>
<event>
12    2  0.3555611E-008  0.2642981E+04  0.7818608E-02  0.8353746E-01
         -2   -1    0    0    0  501 -0.00000000000E+00  0.00000000000E+00  0.60814570863E+03  0.60814570863E+03  0.00000000000E+00 0.  1.
          2   -1    0    0  501    0  0.00000000000E+00 -0.00000000000E+00 -0.28715773471E+04  0.28715773471E+04  0.00000000000E+00 0. -1.
         23    2    1    2    0    0 -0.34768371139E+03  0.40024349357E+03 -0.23729024035E+04  0.24330480798E+04  0.89321470292E+02 0.  0.
        254    2    1    2    0    0  0.34768371139E+03 -0.40024349357E+03  0.10947076500E+03  0.10466749759E+04  0.89580457660E+03 0.  0.
         23    2    4    4    0    0  0.12908045455E+03 -0.32330739474E+03  0.48105710785E+03  0.60080308723E+03  0.91427421347E+02 0.  0.
         23    2    4    4    0    0  0.21860325684E+03 -0.76936098833E+02 -0.37158634285E+03  0.44587188866E+03  0.83778181553E+02 0.  0.
          3    1    3    3  502    0 -0.34854682315E+03  0.40104771635E+03 -0.23730956738E+04  0.24318526345E+04  0.00000000000E+00 0. -1.
         -3    1    3    3    0  502  0.86311176226E+00 -0.80422278006E+00  0.19327033630E+00  0.11954453635E+01  0.00000000000E+00 0.  1.
         11    1    5    5    0    0  0.13914789608E+03 -0.26770576641E+03  0.38217899216E+03  0.48691816192E+03  0.00000000000E+00 0.  1.
        -11    1    5    5    0    0 -0.10067441537E+02 -0.55601628326E+02  0.98878115685E+02  0.11388492531E+03  0.00000000000E+00 0. -1.
          4    1    6    6  503    0  0.11103349092E+03 -0.49465934968E+01 -0.12419332766E+03  0.16666399590E+03  0.00000000000E+00 0. -1.
         -4    1    6    6    0  503  0.10756976592E+03 -0.71989505337E+02 -0.24739301519E+03  0.27920789277E+03  0.00000000000E+00 0.  1.
<mgrwt>
<rscale>  0 0.26429812E+04</rscale>
<asrwt>0</asrwt>
<pdfrwt beam="1">  1        2 0.44178112E+00 0.26429812E+04</pdfrwt>
<pdfrwt beam="2">  1       -2 0.93560881E-01 0.26429812E+04</pdfrwt>
<totfact> 0.17800817E+00</totfact>
</mgrwt>
</event>
<event>
12    2  0.3555611E-008  0.1504455E+04  0.7818608E-02  0.8881496E-01
         -2   -1    0    0    0  501 -0.00000000000E+00  0.00000000000E+00  0.23278853590E+03  0.23278853590E+03  0.00000000000E+00 0.  1.
          2   -1    0    0  501    0  0.00000000000E+00 -0.00000000000E+00 -0.24307318202E+04  0.24307318202E+04  0.00000000000E+00 0. -1.
         23    2    1    2    0    0  0.11215273792E+03  0.33125566620E+03 -0.12843356075E+04  0.13342249783E+04  0.91267666952E+02 0.  0.
        254    2    1    2    0    0 -0.11215273792E+03 -0.33125566620E+03 -0.91360767679E+03  0.13292953778E+04  0.90002147826E+03 0.  0.
         23    2    4    4    0    0 -0.36423826490E+03  0.83213768008E+01 -0.71021546790E+02  0.38225189078E+03  0.91289040760E+02 0.  0.
         23    2    4    4    0    0  0.25208552698E+03 -0.33957704300E+03 -0.84258613001E+03  0.94704348702E+03  0.89890482165E+02 0.  0.
          3    1    3    3  502    0  0.10312499803E+03  0.29906597328E+03 -0.10239981365E+04  0.10717496933E+04  0.00000000000E+00 0. -1.
         -3    1    3    3    0  502  0.90277398911E+01  0.32189692920E+02 -0.26033747101E+03  0.26247528499E+03  0.00000000000E+00 0.  1.
         11    1    5    5    0    0 -0.16591885878E+03 -0.25584058133E+02  0.29007410829E+01  0.16790481241E+03  0.00000000000E+00 0.  1.
        -11    1    5    5    0    0 -0.19831940612E+03  0.33905434933E+02 -0.73922287873E+02  0.21434707837E+03  0.00000000000E+00 0. -1.
          4    1    6    6  503    0  0.18108941634E+03 -0.28136951573E+03 -0.58983748802E+03  0.67813748117E+03  0.00000000000E+00 0. -1.
         -4    1    6    6    0  503  0.70996110642E+02 -0.58207527265E+02 -0.25274864198E+03  0.26890600585E+03  0.00000000000E+00 0.  1.
<mgrwt>
<rscale>  0 0.15044554E+04</rscale>
<asrwt>0</asrwt>
<pdfrwt beam="1">  1        2 0.37395873E+00 0.15044554E+04</pdfrwt>
<pdfrwt beam="2">  1       -2 0.35813622E-01 0.15044554E+04</pdfrwt>
<totfact> 0.27087856E+01</totfact>
</mgrwt>
</event>
<event>
12    2  0.3555611E-008  0.1156311E+04  0.7818608E-02  0.9151981E-01
         -2   -1    0    0    0  501 -0.00000000000E+00  0.00000000000E+00  0.46593222462E+03  0.46593222462E+03  0.00000000000E+00 0.  1.
          2   -1    0    0  501    0  0.00000000000E+00 -0.00000000000E+00 -0.71740868121E+03  0.71740868121E+03  0.00000000000E+00 0. -1.
         23    2    1    2    0    0  0.42474880381E+01  0.34010933414E+02  0.16375846496E+03  0.19015955806E+03  0.90382730251E+02 0.  0.
        254    2    1    2    0    0 -0.42474880381E+01 -0.34010933414E+02 -0.41523492156E+03  0.99318134777E+03  0.90156218018E+03 0.  0.
         23    2    4    4    0    0  0.40657899257E+03 -0.17923133315E+03 -0.16952821010E+03  0.48440421068E+03  0.92072131126E+02 0.  0.
         23    2    4    4    0    0 -0.41082648060E+03  0.14522039974E+03 -0.24570671146E+03  0.50877713709E+03  0.92817161666E+02 0.  0.
          2    1    3    3  502    0  0.26579298092E+02 -0.10391512967E+02  0.12184947880E+03  0.12514686618E+03  0.00000000000E+00 0. -1.
         -2    1    3    3    0  502 -0.22331810054E+02  0.44402446381E+02  0.41908986159E+02  0.65012691882E+02  0.00000000000E+00 0.  1.
         11    1    5    5    0    0  0.21975098111E+03 -0.13345089508E+03 -0.12973047329E+03  0.28797505238E+03  0.00000000000E+00 0. -1.
        -11    1    5    5    0    0  0.18682801146E+03 -0.45780438070E+02 -0.39797736809E+02  0.19642915830E+03  0.00000000000E+00 0.  1.
          3    1    6    6  503    0 -0.41233945068E+03  0.13577557285E+03 -0.23246404995E+03  0.49244122826E+03  0.00000000000E+00 0. -1.
         -3    1    6    6    0  503  0.15129700740E+01  0.94448268833E+01 -0.13242661516E+02  0.16335908831E+02  0.00000000000E+00 0.  1.
<mgrwt>
<rscale>  0 0.11563111E+04</rscale>
<asrwt>0</asrwt>
<pdfrwt beam="1">  1        2 0.11037057E+00 0.11563111E+04</pdfrwt>
<pdfrwt beam="2">  1       -2 0.71681881E-01 0.11563111E+04</pdfrwt>
<totfact> 0.69375548E+01</totfact>
</mgrwt>
</event>
<event>
12    2  0.3555611E-008  0.2400885E+04  0.7818608E-02  0.8439172E-01
         -2   -1    0    0    0  501 -0.00000000000E+00  0.00000000000E+00  0.66437872678E+03  0.66437872678E+03  0.00000000000E+00 0.  1.
          2   -1    0    0  501    0  0.00000000000E+00 -0.00000000000E+00 -0.21690378107E+04  0.21690378107E+04  0.00000000000E+00 0. -1.
         23    2    1    2    0    0  0.21699049104E+03 -0.94122370782E+03 -0.22314588359E+03  0.99543359303E+03  0.90038943876E+02 0.  0.
        254    2    1    2    0    0 -0.21699049104E+03  0.94122370782E+03 -0.12815132003E+04  0.18379829445E+04  0.89605707415E+03 0.  0.
         23    2    4    4    0    0  0.13041404580E+03  0.79644547690E+03 -0.46888833420E+03  0.93768047328E+03  0.89750649108E+02 0.  0.
         23    2    4    4    0    0 -0.34740453684E+03  0.14477823092E+03 -0.81262486615E+03  0.90030247119E+03  0.92383538424E+02 0.  0.
          4    1    3    3  502    0  0.96330609286E+02 -0.49025564701E+03 -0.15837692206E+03  0.52413112401E+03  0.00000000000E+00 0. -1.
         -4    1    3    3    0  502  0.12065988176E+03 -0.45096806080E+03 -0.64768961537E+02  0.47130246902E+03  0.00000000000E+00 0.  1.
         11    1    5    5    0    0  0.36111681124E+02  0.30741458546E+03 -0.22804033976E+03  0.38446089193E+03  0.00000000000E+00 0.  1.
        -11    1    5    5    0    0  0.94302364677E+02  0.48903089144E+03 -0.24084799443E+03  0.55321958135E+03  0.00000000000E+00 0. -1.
          3    1    6    6  503    0 -0.12859893926E+03  0.70013871137E+02 -0.41826037928E+03  0.44314938137E+03  0.00000000000E+00 0. -1.
         -3    1    6    6    0  503 -0.21880559758E+03  0.74764359782E+02 -0.39436448687E+03  0.45715308982E+03  0.00000000000E+00 0.  1.
<mgrwt>
<rscale>  0 0.24008853E+04</rscale>
<asrwt>0</asrwt>
<pdfrwt beam="1">  1        2 0.33369812E+00 0.24008853E+04</pdfrwt>
<pdfrwt beam="2">  1       -2 0.10221211E+00 0.24008853E+04</pdfrwt>
<totfact> 0.37888813E+00</totfact>
</mgrwt>
</event>
<event>
12    2  0.3555611E-008  0.2837175E+04  0.7818608E-02  0.8291819E-01
         -1   -1    0    0    0  501 -0.00000000000E+00  0.00000000000E+00  0.16547846346E+04  0.16547846346E+04  0.00000000000E+00 0.  1.
          1   -1    0    0  501    0  0.00000000000E+00 -0.00000000000E+00 -0.12161039488E+04  0.12161039488E+04  0.00000000000E+00 0. -1.
         23    2    1    2    0    0 -0.79530655728E+03  0.96686593453E+03 -0.35022961381E+02  0.12557756858E+04  0.91671750584E+02 0.  0.
        254    2    1    2    0    0  0.79530655728E+03 -0.96686593453E+03  0.47370364725E+03  0.16151128976E+04  0.90379880014E+03 0.  0.
         23    2    4    4    0    0  0.76877850400E+03 -0.11202612491E+04  0.43901839411E+03  0.14307401378E+04  0.90964482396E+02 0.  0.
         23    2    4    4    0    0  0.26528053280E+02  0.15339531453E+03  0.34685253146E+02  0.18437275984E+03  0.92500744077E+02 0.  0.
          2    1    3    3  502    0 -0.41258643408E+03  0.51921586156E+03 -0.62925722650E+02  0.66616238490E+03  0.00000000000E+00 0.  1.
         -2    1    3    3    0  502 -0.38272012321E+03  0.44765007297E+03  0.27902761269E+02  0.58961330092E+03  0.00000000000E+00 0. -1.
         11    1    5    5    0    0  0.66232545004E+03 -0.10001763658E+04  0.40955481550E+03  0.12675815206E+04  0.00000000000E+00 0.  1.
        -11    1    5    5    0    0  0.10645305397E+03 -0.12008488322E+03  0.29463578602E+02  0.16315861712E+03  0.00000000000E+00 0. -1.
          1    1    6    6  503    0  0.19806169779E+02  0.71739508274E+02  0.63182634593E+02  0.97626260416E+02  0.00000000000E+00 0. -1.
         -1    1    6    6    0  503  0.67218835002E+01  0.81655806252E+02 -0.28497381447E+02  0.86746499421E+02  0.00000000000E+00 0.  1.
<mgrwt>
<rscale>  0 0.28371747E+04</rscale>
<asrwt>0</asrwt>
<pdfrwt beam="1">  1        1 0.18709292E+00 0.28371747E+04</pdfrwt>
<pdfrwt beam="2">  1       -1 0.25458225E+00 0.28371747E+04</pdfrwt>
<totfact> 0.58405252E-01</totfact>
</mgrwt>
</event>
<event>
12    2  0.3555611E-008  0.1636079E+04  0.7818608E-02  0.8798685E-01
          1   -1    0    0  501    0  0.00000000000E+00  0.00000000000E+00  0.24729051234E+04  0.24729051234E+04  0.00000000000E+00 0. -1.
         -1   -1    0    0    0  501 -0.00000000000E+00 -0.00000000000E+00 -0.27060815319E+03  0.27060815319E+03  0.00000000000E+00 0.  1.
         23    2    1    2    0    0  0.29868916357E+03  0.33542568497E+03  0.18809913276E+03  0.49542849447E+03  0.91337302417E+02 0.  0.
        254    2    1    2    0    0 -0.29868916357E+03 -0.33542568497E+03  0.20141978375E+04  0.22480847821E+04  0.89172117430E+03 0.  0.
         23    2    4    4    0    0  0.30125530861E+03 -0.22552120479E+02  0.66895170311E+03  0.73956331491E+03  0.90521580643E+02 0.  0.
         23    2    4    4    0    0 -0.59994447218E+03 -0.31287356449E+03  0.13452461343E+04  0.15085214672E+04  0.90147756819E+02 0.  0.
          1    1    3    3  502    0  0.23550532803E+02  0.84390834350E+01  0.31662096308E+02  0.40352621565E+02  0.00000000000E+00 0. -1.
         -1    1    3    3    0  502  0.27513863077E+03  0.32698660153E+03  0.15643703645E+03  0.45507587290E+03  0.00000000000E+00 0.  1.
         11    1    5    5    0    0  0.26881391025E+03 -0.48291941694E+02  0.59785362438E+03  0.65728379423E+03  0.00000000000E+00 0. -1.
        -11    1    5    5    0    0  0.32441398365E+02  0.25739821215E+02  0.71098078733E+02  0.82279520681E+02  0.00000000000E+00 0.  1.
          2    1    6    6  503    0 -0.47285069496E+03 -0.21650739364E+03  0.96587741738E+03  0.10969878835E+04  0.00000000000E+00 0. -1.
         -2    1    6    6    0  503 -0.12709377722E+03 -0.96366170845E+02  0.37936871696E+03  0.41153358368E+03  0.00000000000E+00 0.  1.
<mgrwt>
<rscale>  0 0.16360786E+04</rscale>
<asrwt>0</asrwt>
<pdfrwt beam="1">  1        1 0.38044693E+00 0.16360786E+04</pdfrwt>
<pdfrwt beam="2">  1       -1 0.41632025E-01 0.16360786E+04</pdfrwt>
<totfact> 0.76719473E+00</totfact>
</mgrwt>
</event>
<event>
12    2  0.3555611E-008  0.1754896E+04  0.7818608E-02  0.8730660E-01
          2   -1    0    0  501    0  0.00000000000E+00  0.00000000000E+00  0.24742936361E+04  0.24742936361E+04  0.00000000000E+00 0.  1.
         -2   -1    0    0    0  501 -0.00000000000E+00 -0.00000000000E+00 -0.31116540737E+03  0.31116540737E+03  0.00000000000E+00 0. -1.
         23    2    1    2    0    0 -0.13714395889E+03  0.13222439982E+03  0.17360033754E+04  0.17488230988E+04  0.91557381906E+02 0.  0.
        254    2    1    2    0    0  0.13714395889E+03 -0.13222439982E+03  0.42712485341E+03  0.10366359447E+04  0.92514144009E+03 0.  0.
         23    2    4    4    0    0  0.32778682035E+03  0.25485193661E+03  0.52978866790E+01  0.42629208971E+03  0.96452936470E+02 0.  0.
         23    2    4    4    0    0 -0.19064286147E+03 -0.38707633643E+03  0.42182696673E+03  0.61034385503E+03  0.91699730975E+02 0.  0.
          2    1    3    3  502    0  0.11840304606E+02  0.17544282449E+02  0.11288677366E+03  0.11485389993E+03  0.00000000000E+00 0. -1.
         -2    1    3    3    0  502 -0.14898426349E+03  0.11468011737E+03  0.16231166017E+04  0.16339691988E+04  0.00000000000E+00 0.  1.
         11    1    5    5    0    0  0.21915777400E+03  0.20613125656E+03  0.36885563669E+02  0.30311840862E+03  0.00000000000E+00 0.  1.
        -11    1    5    5    0    0  0.10862904635E+03  0.48720680055E+02 -0.31587676990E+02  0.12317368109E+03  0.00000000000E+00 0. -1.
          3    1    6    6  503    0 -0.23348929705E+02 -0.78863477221E+02  0.13135489302E+03  0.15497976796E+03  0.00000000000E+00 0. -1.
         -3    1    6    6    0  503 -0.16729393176E+03 -0.30821285921E+03  0.29047207372E+03  0.45536408707E+03  0.00000000000E+00 0.  1.
<mgrwt>
<rscale>  0 0.17548955E+04</rscale>
<asrwt>0</asrwt>
<pdfrwt beam="1">  1        2 0.38066055E+00 0.17548955E+04</pdfrwt>
<pdfrwt beam="2">  1       -2 0.47871603E-01 0.17548955E+04</pdfrwt>
<totfact> 0.14129874E+01</totfact>
</mgrwt>
</event>
<event>
12    2  0.3555611E-008  0.1213079E+04  0.7818608E-02  0.9101485E-01
         -1   -1    0    0    0  501 -0.00000000000E+00  0.00000000000E+00  0.17252704739E+03  0.17252704739E+03  0.00000000000E+00 0.  1.
          1   -1    0    0  501    0  0.00000000000E+00 -0.00000000000E+00 -0.21323618661E+04  0.21323618661E+04  0.00000000000E+00 0. -1.
         23    2    1    2    0    0 -0.16645173841E+03  0.98649388676E+02 -0.84874296402E+02  0.22933319361E+03  0.89175021138E+02 0.  0.
        254    2    1    2    0    0  0.16645173841E+03 -0.98649388676E+02 -0.18749605223E+04  0.20755557199E+04  0.86891697127E+03 0.  0.
         23    2    4    4    0    0  0.24344743438E+03 -0.44739667253E+03 -0.12203357843E+04  0.13254361356E+04  0.90172542142E+02 0.  0.
         23    2    4    4    0    0 -0.76995695964E+02  0.34874728385E+03 -0.65462473804E+03  0.75011958425E+03  0.81196291959E+02 0.  0.
          1    1    3    3  502    0  0.58475270623E+01 -0.97504791068E+00 -0.18661477431E+02  0.19580475762E+02  0.00000000000E+00 0. -1.
         -1    1    3    3    0  502 -0.17229926548E+03  0.99624436587E+02 -0.66212818971E+02  0.20975271785E+03  0.00000000000E+00 0.  1.
         11    1    5    5    0    0  0.25057222332E+03 -0.42915375562E+03 -0.11589370266E+04  0.12609894594E+04  0.00000000000E+00 0.  1.
        -11    1    5    5    0    0 -0.71247889396E+01 -0.18242916902E+02 -0.61398757645E+02  0.64446676213E+02  0.00000000000E+00 0. -1.
          1    1    6    6  503    0  0.26409198891E+01  0.11502121429E+03 -0.26422437074E+03  0.28818634994E+03  0.00000000000E+00 0. -1.
         -1    1    6    6    0  503 -0.79636615853E+02  0.23372606956E+03 -0.39040036730E+03  0.46193323431E+03  0.00000000000E+00 0.  1.
<mgrwt>
<rscale>  0 0.12130789E+04</rscale>
<asrwt>0</asrwt>
<pdfrwt beam="1">  1        1 0.32805569E+00 0.12130789E+04</pdfrwt>
<pdfrwt beam="2">  1       -1 0.26542621E-01 0.12130789E+04</pdfrwt>
<totfact> 0.30343267E+01</totfact>
</mgrwt>
</event>
<event>
12    2  0.3555611E-008  0.3295423E+04  0.7818608E-02  0.8164061E-01
          1   -1    0    0  501    0  0.00000000000E+00  0.00000000000E+00  0.14876660804E+04  0.14876660804E+04  0.00000000000E+00 0. -1.
         -1   -1    0    0    0  501 -0.00000000000E+00 -0.00000000000E+00 -0.18249747605E+04  0.18249747605E+04  0.00000000000E+00 0.  1.
         23    2    1    2    0    0 -0.11540730432E+04  0.37153101209E+03 -0.10950456264E+04  0.16362076989E+04  0.90171103722E+02 0.  0.
        254    2    1    2    0    0  0.11540730432E+04 -0.37153101209E+03  0.75773694634E+03  0.16764331421E+04  0.87541014279E+03 0.  0.
         23    2    4    4    0    0  0.87403163770E+03  0.57502109622E+01  0.80864916623E+03  0.11951158280E+04  0.10209799049E+03 0.  0.
         23    2    4    4    0    0  0.28004140548E+03 -0.37728122305E+03 -0.50912219887E+02  0.48131731409E+03  0.91159161131E+02 0.  0.
          2    1    3    3  502    0 -0.10639568879E+04  0.31601672810E+03 -0.10016858926E+04  0.14950737304E+04  0.00000000000E+00 0.  1.
         -2    1    3    3    0  502 -0.90116155247E+02  0.55514283990E+02 -0.93359733839E+02  0.14113396850E+03  0.00000000000E+00 0. -1.
         11    1    5    5    0    0  0.77090576579E+03  0.15879082291E+02  0.66645940050E+03  0.10191741645E+04  0.00000000000E+00 0. -1.
        -11    1    5    5    0    0  0.10312587191E+03 -0.10128871329E+02  0.14218976573E+03  0.17594166354E+03  0.00000000000E+00 0.  1.
          4    1    6    6  503    0  0.27490410911E+03 -0.33006203417E+03 -0.33980941719E+02  0.43089200503E+03  0.00000000000E+00 0. -1.
         -4    1    6    6    0  503  0.51372963734E+01 -0.47219188883E+02 -0.16931278168E+02  0.50425309054E+02  0.00000000000E+00 0.  1.
<mgrwt>
<rscale>  0 0.32954229E+04</rscale>
<asrwt>0</asrwt>
<pdfrwt beam="1">  1        1 0.22887170E+00 0.32954229E+04</pdfrwt>
<pdfrwt beam="2">  1       -1 0.28076535E+00 0.32954229E+04</pdfrwt>
<totfact> 0.24363509E-01</totfact>
</mgrwt>
</event>
<event>
12    2  0.3555611E-008  0.2405789E+04  0.7818608E-02  0.8437340E-01
         -2   -1    0    0    0  501 -0.00000000000E+00  0.00000000000E+00  0.67785145965E+03  0.67785145965E+03  0.00000000000E+00 0.  1.
          2   -1    0    0  501    0  0.00000000000E+00 -0.00000000000E+00 -0.21346193067E+04  0.21346193067E+04  0.00000000000E+00 0. -1.
         23    2    1    2    0    0  0.67580491073E+03  0.76980086661E+03 -0.77132788010E+03  0.12854468726E+04  0.90118322900E+02 0.  0.
        254    2    1    2    0    0 -0.67580491073E+03 -0.76980086661E+03 -0.68543996693E+03  0.15270238937E+04  0.90148121007E+03 0.  0.
         23    2    4    4    0    0 -0.89309712316E+01  0.14407127022E+03 -0.26697846086E+03  0.31742998868E+03  0.92994655751E+02 0.  0.
         23    2    4    4    0    0 -0.66687393949E+03 -0.91387213683E+03 -0.41846150607E+03  0.12095939050E+04  0.90134618105E+02 0.  0.
          2    1    3    3  502    0  0.62460498421E+03  0.69760410483E+03 -0.73229625584E+03  0.11887138763E+04  0.00000000000E+00 0.  1.
         -2    1    3    3    0  502  0.51199926513E+02  0.72196761777E+02 -0.39031624263E+02  0.96732996328E+02  0.00000000000E+00 0. -1.
         11    1    5    5    0    0  0.37853732984E+02  0.98250485134E+02 -0.18034732805E+03  0.20883299946E+03  0.00000000000E+00 0.  1.
        -11    1    5    5    0    0 -0.46784704215E+02  0.45820785086E+02 -0.86631132813E+02  0.10859698922E+03  0.00000000000E+00 0. -1.
          1    1    6    6  503    0 -0.34822478879E+02 -0.74800786463E+02 -0.12788898944E+02  0.83494422729E+02  0.00000000000E+00 0. -1.
         -1    1    6    6    0  503 -0.63205146061E+03 -0.83907135037E+03 -0.40567260712E+03  0.11260994823E+04  0.00000000000E+00 0.  1.
<mgrwt>
<rscale>  0 0.24057887E+04</rscale>
<asrwt>0</asrwt>
<pdfrwt beam="1">  1        2 0.32840297E+00 0.24057887E+04</pdfrwt>
<pdfrwt beam="2">  1       -2 0.10428484E+00 0.24057887E+04</pdfrwt>
<totfact> 0.37737756E+00</totfact>
</mgrwt>
</event>
<event>
12    2  0.3555611E-008  0.1865693E+04  0.7818608E-02  0.8672124E-01
          2   -1    0    0  501    0  0.00000000000E+00  0.00000000000E+00  0.88614142473E+03  0.88614142473E+03  0.00000000000E+00 0. -1.
         -2   -1    0    0    0  501 -0.00000000000E+00 -0.00000000000E+00 -0.98201360609E+03  0.98201360609E+03  0.00000000000E+00 0.  1.
         23    2    1    2    0    0  0.16037060004E+03 -0.50622650813E+03  0.44562882937E+03  0.69921135812E+03  0.91254933387E+02 0.  0.
        254    2    1    2    0    0 -0.16037060004E+03  0.50622650813E+03 -0.54150101072E+03  0.11689436727E+04  0.88950658144E+03 0.  0.
         23    2    4    4    0    0 -0.30805519784E+03  0.69860972514E+03 -0.46696326341E+03  0.89956988946E+03  0.90651771496E+02 0.  0.
         23    2    4    4    0    0  0.14768459780E+03 -0.19238321701E+03 -0.74537747314E+02  0.26937378323E+03  0.90467213435E+02 0.  0.
          2    1    3    3  502    0  0.88788082846E+02 -0.27694927102E+03  0.30238871646E+03  0.41955113897E+03  0.00000000000E+00 0. -1.
         -2    1    3    3    0  502  0.71582517193E+02 -0.22927723712E+03  0.14324011291E+03  0.27966021915E+03  0.00000000000E+00 0.  1.
         11    1    5    5    0    0 -0.30798174544E+03  0.64392510238E+03 -0.44103687507E+03  0.83905054566E+03  0.00000000000E+00 0. -1.
        -11    1    5    5    0    0 -0.73452392445E-01  0.54684622758E+02 -0.25926388339E+02  0.60519343798E+02  0.00000000000E+00 0.  1.
          3    1    6    6  503    0  0.15884787686E+03 -0.18769857189E+03 -0.66117348302E+02  0.25462699311E+03  0.00000000000E+00 0. -1.
         -3    1    6    6    0  503 -0.11163279068E+02 -0.46846451172E+01 -0.84203990120E+01  0.14746790124E+02  0.00000000000E+00 0.  1.
<mgrwt>
<rscale>  0 0.18656934E+04</rscale>
<asrwt>0</asrwt>
<pdfrwt beam="1">  1        2 0.13632945E+00 0.18656934E+04</pdfrwt>
<pdfrwt beam="2">  1       -2 0.15107902E+00 0.18656934E+04</pdfrwt>
<totfact> 0.82704479E+00</totfact>
</mgrwt>
</event>
<event>
12    2  0.3555611E-008  0.3745610E+04  0.7818608E-02  0.8057929E-01
         -2   -1    0    0    0  501 -0.00000000000E+00  0.00000000000E+00  0.16090159236E+04  0.16090159236E+04  0.00000000000E+00 0.  1.
          2   -1    0    0  501    0  0.00000000000E+00 -0.00000000000E+00 -0.21798403962E+04  0.21798403962E+04  0.00000000000E+00 0. -1.
         23    2    1    2    0    0  0.13911052182E+04  0.47479302927E+03 -0.12537638914E+04  0.19340612740E+04  0.89816298100E+02 0.  0.
        254    2    1    2    0    0 -0.13911052182E+04 -0.47479302927E+03  0.68293941891E+03  0.18547950458E+04  0.90180722062E+03 0.  0.
         23    2    4    4    0    0 -0.11132600991E+04  0.48029196978E+02  0.36745478182E+03  0.11777987022E+04  0.10262511549E+03 0.  0.
         23    2    4    4    0    0 -0.27784511915E+03 -0.52282222625E+03  0.31548463710E+03  0.67699634357E+03  0.90843285169E+02 0.  0.
          3    1    3    3  502    0  0.58479851065E+03  0.20196216742E+03 -0.58624833223E+03  0.85232923343E+03  0.00000000000E+00 0. -1.
         -3    1    3    3    0  502  0.80630670757E+03  0.27283086185E+03 -0.66751555921E+03  0.10817320406E+04  0.00000000000E+00 0.  1.
         11    1    5    5    0    0 -0.30400672791E+02  0.13725206119E+01 -0.67209785248E+01  0.31164984700E+02  0.00000000000E+00 0. -1.
        -11    1    5    5    0    0 -0.10828594263E+04  0.46656676366E+02  0.37417576034E+03  0.11466337175E+04  0.00000000000E+00 0.  1.
          4    1    6    6  503    0 -0.88488137035E+02 -0.10725695861E+03  0.10451392339E+03  0.17394644506E+03  0.00000000000E+00 0. -1.
         -4    1    6    6    0  503 -0.18935698212E+03 -0.41556526765E+03  0.21097071371E+03  0.50304989851E+03  0.00000000000E+00 0.  1.
<mgrwt>
<rscale>  0 0.37456096E+04</rscale>
<asrwt>0</asrwt>
<pdfrwt beam="1">  1        2 0.33536006E+00 0.37456096E+04</pdfrwt>
<pdfrwt beam="2">  1       -2 0.24754091E+00 0.37456096E+04</pdfrwt>
<totfact> 0.28408533E-01</totfact>
</mgrwt>
</event>
<event>
12    2  0.3555611E-008  0.1605975E+04  0.7818608E-02  0.8816885E-01
         -2   -1    0    0    0  501 -0.00000000000E+00  0.00000000000E+00  0.79614180637E+03  0.79614180637E+03  0.00000000000E+00 0.  1.
          2   -1    0    0  501    0  0.00000000000E+00 -0.00000000000E+00 -0.80989254572E+03  0.80989254572E+03  0.00000000000E+00 0. -1.
         23    2    1    2    0    0  0.19863924700E+03  0.24150043169E+03 -0.43451026612E+03  0.54401902031E+03  0.96837565748E+02 0.  0.
        254    2    1    2    0    0 -0.19863924700E+03 -0.24150043169E+03  0.42075952676E+03  0.10620153318E+04  0.92361137749E+03 0.  0.
         23    2    4    4    0    0 -0.22652516595E+03 -0.46610638226E+03 -0.53444198116E+02  0.52893695076E+03  0.91373985225E+02 0.  0.
         23    2    4    4    0    0  0.27885918946E+02  0.22460595058E+03  0.47420372488E+03  0.53307838102E+03  0.89877305891E+02 0.  0.
          3    1    3    3  502    0  0.77242329360E+02  0.14894704550E+03 -0.17154790461E+03  0.23995892020E+03  0.00000000000E+00 0. -1.
         -3    1    3    3    0  502  0.12139691764E+03  0.92553386189E+02 -0.26296236150E+03  0.30406010011E+03  0.00000000000E+00 0.  1.
         11    1    5    5    0    0 -0.17869565663E+03 -0.29683321326E+03 -0.65561504315E+02  0.35261934865E+03  0.00000000000E+00 0.  1.
        -11    1    5    5    0    0 -0.47829509314E+02 -0.16927316900E+03  0.12117306199E+02  0.17631760211E+03  0.00000000000E+00 0. -1.
          2    1    6    6  503    0  0.30428742779E+02  0.14306528637E+03  0.20531889373E+03  0.25209012808E+03  0.00000000000E+00 0.  1.
         -2    1    6    6    0  503 -0.25428238329E+01  0.81540664212E+02  0.26888483114E+03  0.28098825294E+03  0.00000000000E+00 0. -1.
<mgrwt>
<rscale>  0 0.16059755E+04</rscale>
<asrwt>0</asrwt>
<pdfrwt beam="1">  1        2 0.12459885E+00 0.16059755E+04</pdfrwt>
<pdfrwt beam="2">  1       -2 0.12248335E+00 0.16059755E+04</pdfrwt>
<totfact> 0.16385827E+01</totfact>
</mgrwt>
</event>
<event>
12    2  0.3555611E-008  0.1718067E+04  0.7818608E-02  0.8751126E-01
          2   -1    0    0  501    0  0.00000000000E+00  0.00000000000E+00  0.20843069848E+04  0.20843069848E+04  0.00000000000E+00 0. -1.
         -2   -1    0    0    0  501 -0.00000000000E+00 -0.00000000000E+00 -0.35404522241E+03  0.35404522241E+03  0.00000000000E+00 0.  1.
         23    2    1    2    0    0  0.47045498913E+03 -0.16002226677E+03  0.11405545771E+04  0.12473511981E+04  0.89917993399E+02 0.  0.
        254    2    1    2    0    0 -0.47045498913E+03  0.16002226677E+03  0.58970718533E+03  0.11910010091E+04  0.90763088123E+03 0.  0.
         23    2    4    4    0    0 -0.21382819112E+02  0.33862313636E+03  0.60498221312E+03  0.69932439792E+03  0.89040900121E+02 0.  0.
         23    2    4    4    0    0 -0.44907217002E+03 -0.17860086959E+03 -0.15275027793E+02  0.49167661117E+03  0.89154242723E+02 0.  0.
          4    1    3    3  502    0  0.36832860806E+03 -0.16283965073E+03  0.89910564407E+03  0.98517697626E+03  0.00000000000E+00 0. -1.
         -4    1    3    3    0  502  0.10212638107E+03  0.28173839557E+01  0.24144893299E+03  0.26217422186E+03  0.00000000000E+00 0.  1.
         11    1    5    5    0    0  0.39247510115E+01 -0.44097068671E+01  0.49884560623E+01  0.77287695684E+01  0.00000000000E+00 0.  1.
        -11    1    5    5    0    0 -0.25307570123E+02  0.34303284323E+03  0.59999375706E+03  0.69159562835E+03  0.00000000000E+00 0. -1.
          1    1    6    6  503    0 -0.38193446394E+03 -0.11479131905E+03 -0.13144164606E+02  0.39902850868E+03  0.00000000000E+00 0. -1.
         -1    1    6    6    0  503 -0.67137706077E+02 -0.63809550542E+02 -0.21308631862E+01  0.92648102493E+02  0.00000000000E+00 0.  1.
<mgrwt>
<rscale>  0 0.17180674E+04</rscale>
<asrwt>0</asrwt>
<pdfrwt beam="1">  1        2 0.32066261E+00 0.17180674E+04</pdfrwt>
<pdfrwt beam="2">  1       -2 0.54468497E-01 0.17180674E+04</pdfrwt>
<totfact> 0.18077737E+01</totfact>
</mgrwt>
</event>
<event>
12    2  0.3555611E-008  0.1022705E+04  0.7818608E-02  0.9283987E-01
         -2   -1    0    0    0  501 -0.00000000000E+00  0.00000000000E+00  0.84364789221E+02  0.84364789221E+02  0.00000000000E+00 0. -1.
          2   -1    0    0  501    0  0.00000000000E+00 -0.00000000000E+00 -0.30994137543E+04  0.30994137543E+04  0.00000000000E+00 0.  1.
         23    2    1    2    0    0 -0.31025642221E+02 -0.42962565200E+02 -0.21069072508E+03  0.23524258978E+03  0.90222624256E+02 0.  0.
        254    2    1    2    0    0  0.31025642221E+02  0.42962565200E+02 -0.28043582400E+04  0.29485359537E+04  0.90919236675E+03 0.  0.
         23    2    4    4    0    0  0.41139673918E+03  0.12981855480E+03 -0.20223982248E+04  0.20696922158E+04  0.86204141806E+02 0.  0.
         23    2    4    4    0    0 -0.38037109696E+03 -0.86855989598E+02 -0.78196001513E+03  0.87884373793E+03  0.93159627001E+02 0.  0.
          1    1    3    3  502    0 -0.26161224724E+02 -0.27575846640E+02 -0.18318742127E+02  0.42194944130E+02  0.00000000000E+00 0. -1.
         -1    1    3    3    0  502 -0.48644174964E+01 -0.15386718560E+02 -0.19237198295E+03  0.19304764565E+03  0.00000000000E+00 0.  1.
         11    1    5    5    0    0  0.17716544529E+02  0.22772386360E+01 -0.31243085339E+02  0.35988778075E+02  0.00000000000E+00 0.  1.
        -11    1    5    5    0    0  0.39368019465E+03  0.12754131616E+03 -0.19911551395E+04  0.20337034377E+04  0.00000000000E+00 0. -1.
          1    1    6    6  503    0 -0.36880079139E+03 -0.96132178305E+02 -0.77207966700E+03  0.86102405984E+03  0.00000000000E+00 0. -1.
         -1    1    6    6    0  503 -0.11570305570E+02  0.92761887066E+01 -0.98803481324E+01  0.17819678087E+02  0.00000000000E+00 0.  1.
<mgrwt>
<rscale>  0 0.10227050E+04</rscale>
<asrwt>0</asrwt>
<pdfrwt beam="1">  1        2 0.47683285E+00 0.10227050E+04</pdfrwt>
<pdfrwt beam="2">  1       -2 0.12979199E-01 0.10227050E+04</pdfrwt>
<totfact> 0.69005459E+01</totfact>
</mgrwt>
</event>
<event>
12    2  0.3555611E-008  0.3038978E+04  0.7818608E-02  0.8232687E-01
         -2   -1    0    0    0  501 -0.00000000000E+00  0.00000000000E+00  0.21099229898E+04  0.21099229898E+04  0.00000000000E+00 0.  1.
          2   -1    0    0  501    0  0.00000000000E+00 -0.00000000000E+00 -0.10942802805E+04  0.10942802805E+04  0.00000000000E+00 0. -1.
         23    2    1    2    0    0 -0.85448852593E+03 -0.72534086272E+03  0.13206216723E+04  0.17346313386E+04  0.92920780710E+02 0.  0.
        254    2    1    2    0    0  0.85448852593E+03  0.72534086272E+03 -0.30497896304E+03  0.14695719317E+04  0.90019969247E+03 0.  0.
         23    2    4    4    0    0  0.89312295563E+03  0.44353809520E+03  0.53501538308E+02  0.10029752807E+04  0.93286350998E+02 0.  0.
         23    2    4    4    0    0 -0.38634429701E+02  0.28180276753E+03 -0.35848050135E+03  0.46659665098E+03  0.91097452836E+02 0.  0.
          1    1    3    3  502    0 -0.23965827769E+03 -0.18928658957E+03  0.30001115478E+03  0.42810302037E+03  0.00000000000E+00 0. -1.
         -1    1    3    3    0  502 -0.61483024824E+03 -0.53605427316E+03  0.10206105175E+04  0.13065283182E+04  0.00000000000E+00 0.  1.
         11    1    5    5    0    0  0.37785485356E+02  0.25918378408E+02  0.21446123313E+02  0.50590922586E+02  0.00000000000E+00 0.  1.
        -11    1    5    5    0    0  0.85533747027E+03  0.41761971679E+03  0.32055414994E+02  0.95238435809E+03  0.00000000000E+00 0. -1.
          4    1    6    6  503    0 -0.34329697760E+02  0.23491351641E+03 -0.23330303790E+03  0.33285611882E+03  0.00000000000E+00 0. -1.
         -4    1    6    6    0  503 -0.43047319412E+01  0.46889251116E+02 -0.12517746345E+03  0.13374053216E+03  0.00000000000E+00 0.  1.
<mgrwt>
<rscale>  0 0.30389782E+04</rscale>
<asrwt>0</asrwt>
<pdfrwt beam="1">  1        2 0.16835081E+00 0.30389782E+04</pdfrwt>
<pdfrwt beam="2">  1       -2 0.32460354E+00 0.30389782E+04</pdfrwt>
<totfact> 0.42018938E-01</totfact>
</mgrwt>
</event>
<event>
12    2  0.3555611E-008  0.2132404E+04  0.7818608E-02  0.8547102E-01
         -1   -1    0    0    0  501 -0.00000000000E+00  0.00000000000E+00  0.79720819452E+03  0.79720819452E+03  0.00000000000E+00 0.  1.
          1   -1    0    0  501    0  0.00000000000E+00 -0.00000000000E+00 -0.14259591377E+04  0.14259591377E+04  0.00000000000E+00 0. -1.
         23    2    1    2    0    0 -0.30107727719E+02 -0.58578770682E+03  0.41666671911E+03  0.72559821344E+03  0.93956903975E+02 0.  0.
        254    2    1    2    0    0  0.30107727719E+02  0.58578770682E+03 -0.10454176623E+04  0.14975691188E+04  0.89764216933E+03 0.  0.
         23    2    4    4    0    0  0.37441589210E+03  0.26701656775E+03 -0.16757649174E+03  0.49805584377E+03  0.92155494778E+02 0.  0.
         23    2    4    4    0    0 -0.34430816438E+03  0.31877113907E+03 -0.87784117052E+03  0.99951327499E+03  0.90876372344E+02 0.  0.
          3    1    3    3  502    0 -0.18725301118E+02 -0.27768440144E+03  0.14089257299E+03  0.31194547733E+03  0.00000000000E+00 0. -1.
         -3    1    3    3    0  502 -0.11382426602E+02 -0.30810330538E+03  0.27577414612E+03  0.41365273611E+03  0.00000000000E+00 0.  1.
         11    1    5    5    0    0  0.35744470055E+03  0.26685986548E+03 -0.14347581241E+03  0.46857892665E+03  0.00000000000E+00 0.  1.
        -11    1    5    5    0    0  0.16971191555E+02  0.15670226422E+00 -0.24100679336E+02  0.29476917119E+02  0.00000000000E+00 0. -1.
          3    1    6    6  503    0 -0.20977666476E+03  0.24037482868E+03 -0.64207674139E+03  0.71697200027E+03  0.00000000000E+00 0.  1.
         -3    1    6    6    0  503 -0.13453149963E+03  0.78396310390E+02 -0.23576442913E+03  0.28254127471E+03  0.00000000000E+00 0. -1.
<mgrwt>
<rscale>  0 0.21324036E+04</rscale>
<asrwt>0</asrwt>
<pdfrwt beam="1">  1        1 0.21937833E+00 0.21324036E+04</pdfrwt>
<pdfrwt beam="2">  1       -1 0.12264741E+00 0.21324036E+04</pdfrwt>
<totfact> 0.39638967E+00</totfact>
</mgrwt>
</event>
<event>
12    2  0.3555611E-008  0.1649509E+04  0.7818608E-02  0.8790697E-01
         -2   -1    0    0    0  501 -0.00000000000E+00  0.00000000000E+00  0.61070335881E+03  0.61070335881E+03  0.00000000000E+00 0.  1.
          2   -1    0    0  501    0  0.00000000000E+00 -0.00000000000E+00 -0.11138300744E+04  0.11138300744E+04  0.00000000000E+00 0. -1.
         23    2    1    2    0    0 -0.10526044590E+03 -0.55315798224E+03 -0.61221647768E+02  0.57349595588E+03  0.89922224529E+02 0.  0.
        254    2    1    2    0    0  0.10526044590E+03  0.55315798224E+03 -0.44190506787E+03  0.11510374774E+04  0.90141204260E+03 0.  0.
         23    2    4    4    0    0 -0.20837754542E+03  0.14023936356E+03  0.19076395129E+03  0.32794819923E+03  0.89837941528E+02 0.  0.
         23    2    4    4    0    0  0.31363799132E+03  0.41291861868E+03 -0.63266901915E+03  0.82308927815E+03  0.91297846439E+02 0.  0.
          3    1    3    3  502    0  0.97530708414E+01 -0.11235098768E+02  0.46804374458E+01  0.15596676885E+02  0.00000000000E+00 0. -1.
         -3    1    3    3    0  502 -0.11501351674E+03 -0.54192288347E+03 -0.65902085214E+02  0.55789927899E+03  0.00000000000E+00 0.  1.
         11    1    5    5    0    0 -0.19429665887E+03  0.91486195237E+02  0.16627044564E+03  0.27160039885E+03  0.00000000000E+00 0.  1.
        -11    1    5    5    0    0 -0.14080886556E+02  0.48753168325E+02  0.24493505649E+02  0.56347800373E+02  0.00000000000E+00 0. -1.
          3    1    6    6  503    0  0.92136918221E+01 -0.30825011339E+01 -0.51825686900E+01  0.11011491655E+02  0.00000000000E+00 0. -1.
         -3    1    6    6    0  503  0.30442429950E+03  0.41600111982E+03 -0.62748645046E+03  0.81207778650E+03  0.00000000000E+00 0.  1.
<mgrwt>
<rscale>  0 0.16495087E+04</rscale>
<asrwt>0</asrwt>
<pdfrwt beam="1">  1        2 0.17135847E+00 0.16495087E+04</pdfrwt>
<pdfrwt beam="2">  1       -2 0.93954363E-01 0.16495087E+04</pdfrwt>
<totfact> 0.19521861E+01</totfact>
</mgrwt>
</event>
<event>
12    2  0.3555611E-008  0.1725033E+04  0.7818608E-02  0.8747214E-01
         -1   -1    0    0    0  501 -0.00000000000E+00  0.00000000000E+00  0.25414792747E+03  0.25414792747E+03  0.00000000000E+00 0.  1.
          1   -1    0    0  501    0  0.00000000000E+00 -0.00000000000E+00 -0.29271734313E+04  0.29271734313E+04  0.00000000000E+00 0. -1.
         23    2    1    2    0    0 -0.61471662481E+02  0.53143477309E+03 -0.39189943736E+03  0.66980226154E+03  0.94064962767E+02 0.  0.
        254    2    1    2    0    0  0.61471662481E+02 -0.53143477309E+03 -0.22811260664E+04  0.25115190972E+04  0.90442819576E+03 0.  0.
         23    2    4    4    0    0 -0.15283314995E+03 -0.14605041054E+03 -0.19223456309E+04  0.19361454350E+04  0.92507981225E+02 0.  0.
         23    2    4    4    0    0  0.21430481243E+03 -0.38538436254E+03 -0.35878043549E+03  0.57537366217E+03  0.88790712989E+02 0.  0.
          4    1    3    3  502    0 -0.48508651081E+02  0.45183046782E+03 -0.28695138110E+03  0.53744297929E+03  0.00000000000E+00 0.  1.
         -4    1    3    3    0  502 -0.12963011400E+02  0.79604305268E+02 -0.10494805627E+03  0.13235928224E+03  0.00000000000E+00 0. -1.
         11    1    5    5    0    0 -0.36687529424E+02 -0.96340182425E+02 -0.96800295024E+03  0.97347681905E+03  0.00000000000E+00 0.  1.
        -11    1    5    5    0    0 -0.11614562053E+03 -0.49710228120E+02 -0.95434268071E+03  0.96266861597E+03  0.00000000000E+00 0. -1.
          2    1    6    6  503    0  0.14170598265E+03 -0.17230234409E+03 -0.20293333927E+03  0.30158021070E+03  0.00000000000E+00 0. -1.
         -2    1    6    6    0  503  0.72598829788E+02 -0.21308201845E+03 -0.15584709622E+03  0.27379345148E+03  0.00000000000E+00 0.  1.
<mgrwt>
<rscale>  0 0.17250334E+04</rscale>
<asrwt>0</asrwt>
<pdfrwt beam="1">  1        1 0.45033436E+00 0.17250334E+04</pdfrwt>
<pdfrwt beam="2">  1       -1 0.39099682E-01 0.17250334E+04</pdfrwt>
<totfact> 0.40854840E+00</totfact>
</mgrwt>
</event>
<event>
12    2  0.3555611E-008  0.1594977E+04  0.7818608E-02  0.8823640E-01
          1   -1    0    0  501    0  0.00000000000E+00  0.00000000000E+00  0.37298765691E+03  0.37298765691E+03  0.00000000000E+00 0. -1.
         -1   -1    0    0    0  501 -0.00000000000E+00 -0.00000000000E+00 -0.17051174808E+04  0.17051174808E+04  0.00000000000E+00 0.  1.
         23    2    1    2    0    0  0.41973902040E+02  0.15454452851E+03 -0.11744292734E+04  0.11889604987E+04  0.93258401512E+02 0.  0.
        254    2    1    2    0    0 -0.41973902040E+02 -0.15454452851E+03 -0.15770055053E+03  0.88914463908E+03  0.86026908919E+03 0.  0.
         23    2    4    4    0    0 -0.12905885262E+03 -0.38687614074E+03 -0.36385339324E+03  0.55393240886E+03  0.90124836233E+02 0.  0.
         23    2    4    4    0    0  0.87084950580E+02  0.23233161223E+03  0.20615284270E+03  0.33521223022E+03  0.91139881903E+02 0.  0.
          2    1    3    3  502    0 -0.20697071310E+02  0.10114286003E+02 -0.79515983177E+02  0.82785621474E+02  0.00000000000E+00 0. -1.
         -2    1    3    3    0  502  0.62670973349E+02  0.14443024251E+03 -0.10949132902E+04  0.11061748772E+04  0.00000000000E+00 0.  1.
         11    1    5    5    0    0 -0.43465378311E+02 -0.24737494095E+03 -0.18823406693E+03  0.31387205112E+03  0.00000000000E+00 0. -1.
        -11    1    5    5    0    0 -0.85593474309E+02 -0.13950119979E+03 -0.17561932630E+03  0.24006035774E+03  0.00000000000E+00 0.  1.
          4    1    6    6  503    0  0.10407329277E+03  0.17382211731E+03  0.14712949325E+03  0.25038463714E+03  0.00000000000E+00 0. -1.
         -4    1    6    6    0  503 -0.16988342186E+02  0.58509494921E+02  0.59023349454E+02  0.84827593075E+02  0.00000000000E+00 0.  1.
<mgrwt>
<rscale>  0 0.15949768E+04</rscale>
<asrwt>0</asrwt>
<pdfrwt beam="1">  1        1 0.57382716E-01 0.15949768E+04</pdfrwt>
<pdfrwt beam="2">  1       -1 0.26232577E+00 0.15949768E+04</pdfrwt>
<totfact> 0.36652761E+00</totfact>
</mgrwt>
</event>
<event>
12    2  0.3555611E-008  0.1663757E+04  0.7818608E-02  0.8782309E-01
          2   -1    0    0  501    0  0.00000000000E+00  0.00000000000E+00  0.10964965601E+04  0.10964965601E+04  0.00000000000E+00 0. -1.
         -2   -1    0    0    0  501 -0.00000000000E+00 -0.00000000000E+00 -0.63112079820E+03  0.63112079820E+03  0.00000000000E+00 0.  1.
         23    2    1    2    0    0  0.30506056063E+03 -0.47399950202E+03 -0.19996017530E+02  0.57127081748E+03  0.90625783419E+02 0.  0.
        254    2    1    2    0    0 -0.30506056063E+03  0.47399950202E+03  0.48537177939E+03  0.11563465408E+04  0.88533275359E+03 0.  0.
         23    2    4    4    0    0  0.57454203127E+02  0.35323443750E+03  0.63668653711E+03  0.73605908891E+03  0.91310911406E+02 0.  0.
         23    2    4    4    0    0 -0.36251476375E+03  0.12076506452E+03 -0.15131475772E+03  0.42028745187E+03  0.88001315618E+02 0.  0.
          3    1    3    3  502    0  0.86167233137E+02 -0.15604693672E+03  0.34081862341E+02  0.18148556931E+03  0.00000000000E+00 0. -1.
         -3    1    3    3    0  502  0.21889332749E+03 -0.31795256530E+03 -0.54077879872E+02  0.38978524817E+03  0.00000000000E+00 0.  1.
         11    1    5    5    0    0  0.13976333787E+01  0.15012197979E+02  0.27062597132E+01  0.15318071316E+02  0.00000000000E+00 0. -1.
        -11    1    5    5    0    0  0.56056569748E+02  0.33822223952E+03  0.63398027739E+03  0.72074101759E+03  0.00000000000E+00 0.  1.
          2    1    6    6  503    0 -0.33949150851E+03  0.86240992825E+02 -0.14052171900E+03  0.37741005115E+03  0.00000000000E+00 0.  1.
         -2    1    6    6    0  503 -0.23023255238E+02  0.34524071693E+02 -0.10793038722E+02  0.42877400724E+02  0.00000000000E+00 0. -1.
<mgrwt>
<rscale>  0 0.16637569E+04</rscale>
<asrwt>0</asrwt>
<pdfrwt beam="1">  1        2 0.16869178E+00 0.16637569E+04</pdfrwt>
<pdfrwt beam="2">  1       -2 0.97095507E-01 0.16637569E+04</pdfrwt>
<totfact> 0.18504736E+01</totfact>
</mgrwt>
</event>
<event>
12    2  0.3555611E-008  0.1315547E+04  0.7818608E-02  0.9017326E-01
         -4   -1    0    0    0  501 -0.00000000000E+00  0.00000000000E+00  0.83677356148E+03  0.83677356148E+03  0.00000000000E+00 0.  1.
          4   -1    0    0  501    0  0.00000000000E+00 -0.00000000000E+00 -0.51706470349E+03  0.51706470349E+03  0.00000000000E+00 0. -1.
         23    2    1    2    0    0  0.33997312578E+02 -0.11955655300E+03  0.41327649223E+03  0.44123344109E+03  0.91868949460E+02 0.  0.
        254    2    1    2    0    0 -0.33997312578E+02  0.11955655300E+03 -0.93567634245E+02  0.91260482389E+03  0.89924583723E+03 0.  0.
         23    2    4    4    0    0  0.31549946720E+03  0.30070938875E+03 -0.20979100046E+03  0.49183310582E+03  0.89002751720E+02 0.  0.
         23    2    4    4    0    0 -0.34949677978E+03 -0.18115283576E+03  0.11622336621E+03  0.42077171807E+03  0.92610036693E+02 0.  0.
          4    1    3    3  502    0  0.36396758322E+02 -0.19617986136E+02  0.21767173534E+03  0.22156392704E+03  0.00000000000E+00 0. -1.
         -4    1    3    3    0  502 -0.23994457439E+01 -0.99938566859E+02  0.19560475689E+03  0.21966951405E+03  0.00000000000E+00 0.  1.
         11    1    5    5    0    0  0.94045963413E+02  0.38488238745E+02 -0.46826298374E+02  0.11188695177E+03  0.00000000000E+00 0. -1.
        -11    1    5    5    0    0  0.22145350379E+03  0.26222115001E+03 -0.16296470208E+03  0.37994615405E+03  0.00000000000E+00 0.  1.
          2    1    6    6  503    0 -0.21733922862E+03 -0.65746568872E+02  0.45387602062E+02  0.23155773802E+03  0.00000000000E+00 0. -1.
         -2    1    6    6    0  503 -0.13215755116E+03 -0.11540626689E+03  0.70835764152E+02  0.18921398006E+03  0.00000000000E+00 0.  1.
<mgrwt>
<rscale>  0 0.13155471E+04</rscale>
<asrwt>0</asrwt>
<pdfrwt beam="1">  1        4 0.79548416E-01 0.13155471E+04</pdfrwt>
<pdfrwt beam="2">  1       -4 0.12873439E+00 0.13155471E+04</pdfrwt>
<totfact> 0.12186031E+00</totfact>
</mgrwt>
</event>
<event>
12    2  0.3555611E-008  0.2337583E+04  0.7818608E-02  0.8463249E-01
          1   -1    0    0  501    0  0.00000000000E+00  0.00000000000E+00  0.89531318701E+03  0.89531318701E+03  0.00000000000E+00 0. -1.
         -1   -1    0    0    0  501 -0.00000000000E+00 -0.00000000000E+00 -0.15258046114E+04  0.15258046114E+04  0.00000000000E+00 0.  1.
         23    2    1    2    0    0  0.30283573844E+03 -0.81776756517E+03  0.22272255926E+03  0.90475053651E+03  0.92276322960E+02 0.  0.
        254    2    1    2    0    0 -0.30283573844E+03  0.81776756517E+03 -0.85321398368E+03  0.15163672619E+04  0.90052334559E+03 0.  0.
         23    2    4    4    0    0 -0.55251292615E+03  0.48860839588E+03 -0.25915061297E+03  0.78698184802E+03  0.90402935865E+02 0.  0.
         23    2    4    4    0    0  0.24967718771E+03  0.32915916929E+03 -0.59406337070E+03  0.72938541390E+03  0.91691530738E+02 0.  0.
          4    1    3    3  502    0  0.26571600786E+03 -0.75021806001E+03  0.17767671415E+03  0.81547602610E+03  0.00000000000E+00 0. -1.
         -4    1    3    3    0  502  0.37119730577E+02 -0.67549505166E+02  0.45045845110E+02  0.89274510404E+02  0.00000000000E+00 0.  1.
         11    1    5    5    0    0 -0.16355864715E+03  0.14648998085E+03 -0.12173827236E+03  0.25105965925E+03  0.00000000000E+00 0. -1.
        -11    1    5    5    0    0 -0.38895427900E+03  0.34211841503E+03 -0.13741234062E+03  0.53592218876E+03  0.00000000000E+00 0.  1.
          1    1    6    6  503    0  0.88388975302E+01 -0.57957455889E+01 -0.17043835778E+02  0.20055151819E+02  0.00000000000E+00 0. -1.
         -1    1    6    6    0  503  0.24083829018E+03  0.33495491488E+03 -0.57701953492E+03  0.70933026208E+03  0.00000000000E+00 0.  1.
<mgrwt>
<rscale>  0 0.23375825E+04</rscale>
<asrwt>0</asrwt>
<pdfrwt beam="1">  1        1 0.13774049E+00 0.23375825E+04</pdfrwt>
<pdfrwt beam="2">  1       -1 0.23473917E+00 0.23375825E+04</pdfrwt>
<totfact> 0.14523711E+00</totfact>
</mgrwt>
</event>
<event>
12    2  0.3555611E-008  0.1640120E+04  0.7818608E-02  0.8796273E-01
          2   -1    0    0  501    0  0.00000000000E+00  0.00000000000E+00  0.98615632683E+03  0.98615632683E+03  0.00000000000E+00 0. -1.
         -2   -1    0    0    0  501 -0.00000000000E+00 -0.00000000000E+00 -0.68193873662E+03  0.68193873662E+03  0.00000000000E+00 0.  1.
         23    2    1    2    0    0 -0.65034969831E+02  0.56299027812E+03  0.13720636791E+03  0.59013774525E+03  0.90826044796E+02 0.  0.
        254    2    1    2    0    0  0.65034969831E+02 -0.56299027812E+03  0.16701122229E+03  0.10779573182E+04  0.90161612171E+03 0.  0.
         23    2    4    4    0    0  0.47211438825E+03 -0.33281516908E+03  0.46446178550E+02  0.58612097766E+03  0.87878442092E+02 0.  0.
         23    2    4    4    0    0 -0.40707941842E+03 -0.23017510905E+03  0.12056504374E+03  0.49183634054E+03  0.93127989247E+02 0.  0.
          2    1    3    3  502    0 -0.27493967274E+02  0.18263882764E+03  0.19374745920E+01  0.18470683097E+03  0.00000000000E+00 0. -1.
         -2    1    3    3    0  502 -0.37541002558E+02  0.38035145048E+03  0.13526889332E+03  0.40543091429E+03  0.00000000000E+00 0.  1.
         11    1    5    5    0    0  0.12656305709E+03 -0.13212117209E+03  0.35467412373E+02  0.18636563222E+03  0.00000000000E+00 0. -1.
        -11    1    5    5    0    0  0.34555133116E+03 -0.20069399699E+03  0.10978766178E+02  0.39975534543E+03  0.00000000000E+00 0.  1.
          3    1    6    6  503    0 -0.97245971675E+02 -0.14410101635E+02  0.37710116464E+02  0.10529236876E+03  0.00000000000E+00 0. -1.
         -3    1    6    6    0  503 -0.30983344675E+03 -0.21576500741E+03  0.82854927278E+02  0.38654397178E+03  0.00000000000E+00 0.  1.
<mgrwt>
<rscale>  0 0.16401198E+04</rscale>
<asrwt>0</asrwt>
<pdfrwt beam="1">  1        2 0.15171636E+00 0.16401198E+04</pdfrwt>
<pdfrwt beam="2">  1       -2 0.10491365E+00 0.16401198E+04</pdfrwt>
<totfact> 0.18107456E+01</totfact>
</mgrwt>
</event>
<event>
12    2  0.3555611E-008  0.1443543E+04  0.7818608E-02  0.8922889E-01
         -2   -1    0    0    0  501 -0.00000000000E+00  0.00000000000E+00  0.28696108115E+03  0.28696108115E+03  0.00000000000E+00 0.  1.
          2   -1    0    0  501    0  0.00000000000E+00 -0.00000000000E+00 -0.18154171686E+04  0.18154171686E+04  0.00000000000E+00 0. -1.
         23    2    1    2    0    0 -0.20810347695E+03 -0.51903869382E+02 -0.10915869321E+04  0.11161783242E+04  0.91054667123E+02 0.  0.
        254    2    1    2    0    0  0.20810347695E+03  0.51903869382E+02 -0.43686915538E+03  0.98619992554E+03  0.85774971025E+03 0.  0.
         23    2    4    4    0    0  0.11721298430E+03 -0.61089352539E+02  0.23914499394E+03  0.28877008199E+03  0.93418624711E+02 0.  0.
         23    2    4    4    0    0  0.90890492648E+02  0.11299322192E+03 -0.67601414932E+03  0.69742984355E+03  0.91568044262E+02 0.  0.
          4    1    3    3  502    0 -0.14037603925E+03 -0.44532316899E+02 -0.91734526089E+03  0.92909143109E+03  0.00000000000E+00 0. -1.
         -4    1    3    3    0  502 -0.67727437705E+02 -0.73715524827E+01 -0.17424167116E+03  0.18708689311E+03  0.00000000000E+00 0.  1.
         11    1    5    5    0    0  0.11092820281E+03 -0.72560622693E+02  0.15647637741E+03  0.20507307681E+03  0.00000000000E+00 0.  1.
        -11    1    5    5    0    0  0.62847814926E+01  0.11471270154E+02  0.82668616528E+02  0.83697005180E+02  0.00000000000E+00 0. -1.
          1    1    6    6  503    0  0.10477871592E+03  0.69316601587E+02 -0.50187085045E+03  0.51735647391E+03  0.00000000000E+00 0. -1.
         -1    1    6    6    0  503 -0.13888223274E+02  0.43676620334E+02 -0.17414329888E+03  0.18007336964E+03  0.00000000000E+00 0.  1.
<mgrwt>
<rscale>  0 0.14435430E+04</rscale>
<asrwt>0</asrwt>
<pdfrwt beam="1">  1        2 0.27929495E+00 0.14435430E+04</pdfrwt>
<pdfrwt beam="2">  1       -2 0.44147858E-01 0.14435430E+04</pdfrwt>
<totfact> 0.39941654E+01</totfact>
</mgrwt>
</event>
<event>
12    2  0.3555611E-008  0.4762202E+04  0.7818608E-02  0.7866275E-01
          2   -1    0    0  501    0  0.00000000000E+00  0.00000000000E+00  0.33386981977E+04  0.33386981977E+04  0.00000000000E+00 0.  1.
         -2   -1    0    0    0  501 -0.00000000000E+00 -0.00000000000E+00 -0.16981594678E+04  0.16981594678E+04  0.00000000000E+00 0. -1.
         23    2    1    2    0    0  0.90526822767E+02 -0.20503251565E+04 -0.30459023163E+03  0.20768107935E+04  0.91320916655E+02 0.  0.
        254    2    1    2    0    0 -0.90526822767E+02  0.20503251565E+04  0.19451289616E+04  0.29600468720E+04  0.87539845443E+03 0.  0.
         23    2    4    4    0    0 -0.14387201569E+03  0.96197012860E+03  0.14768642117E+04  0.17706345229E+04  0.89067551314E+02 0.  0.
         23    2    4    4    0    0  0.53345192926E+02  0.10883550279E+04  0.46826474989E+03  0.11894123491E+04  0.89819172457E+02 0.  0.
          2    1    3    3  502    0  0.82844123465E+02 -0.18433972324E+04 -0.24580409119E+03  0.18615574546E+04  0.00000000000E+00 0. -1.
         -2    1    3    3    0  502  0.76826993014E+01 -0.20692792409E+03 -0.58786140437E+02  0.21525333898E+03  0.00000000000E+00 0.  1.
         11    1    5    5    0    0 -0.10003955952E+03  0.43387615904E+03  0.62456736354E+03  0.76703378443E+03  0.00000000000E+00 0. -1.
        -11    1    5    5    0    0 -0.43832456175E+02  0.52809396956E+03  0.85229684812E+03  0.10036007384E+04  0.00000000000E+00 0.  1.
          1    1    6    6  503    0  0.65569104006E+02  0.43766726374E+03  0.19089406426E+03  0.48196730690E+03  0.00000000000E+00 0. -1.
         -1    1    6    6    0  503 -0.12223911079E+02  0.65068776420E+03  0.27737068563E+03  0.70744504219E+03  0.00000000000E+00 0.  1.
<mgrwt>
<rscale>  0 0.47622020E+04</rscale>
<asrwt>0</asrwt>
<pdfrwt beam="1">  1        2 0.51364588E+00 0.47622020E+04</pdfrwt>
<pdfrwt beam="2">  1       -2 0.26125530E+00 0.47622020E+04</pdfrwt>
<totfact> 0.42609743E-02</totfact>
</mgrwt>
</event>
<event>
12    2  0.3555611E-008  0.1669147E+04  0.7818608E-02  0.8779159E-01
         -2   -1    0    0    0  501 -0.00000000000E+00  0.00000000000E+00  0.25175563982E+03  0.25175563982E+03  0.00000000000E+00 0. -1.
          2   -1    0    0  501    0  0.00000000000E+00 -0.00000000000E+00 -0.27666236079E+04  0.27666236079E+04  0.00000000000E+00 0.  1.
         23    2    1    2    0    0  0.37914959895E+02 -0.17152579088E+03 -0.19072749910E+04  0.19176471902E+04  0.93884042582E+02 0.  0.
        254    2    1    2    0    0 -0.37914959895E+02  0.17152579088E+03 -0.60759297706E+03  0.11007320576E+04  0.90087912377E+03 0.  0.
         23    2    4    4    0    0 -0.12765567162E+03  0.52021833255E+03 -0.40510106495E+03  0.67764601248E+03  0.90411068985E+02 0.  0.
         23    2    4    4    0    0  0.89740711727E+02 -0.34869254167E+03 -0.20249191211E+03  0.42308604508E+03  0.91427255851E+02 0.  0.
          2    1    3    3  502    0  0.72790405251E+01  0.86097795164E+01 -0.26476238311E+03  0.26500232497E+03  0.00000000000E+00 0. -1.
         -2    1    3    3    0  502  0.30635919370E+02 -0.18013557040E+03 -0.16425126079E+04  0.16526448652E+04  0.00000000000E+00 0.  1.
         11    1    5    5    0    0 -0.13713426347E+03  0.51159079604E+03 -0.40050596168E+03  0.66403010033E+03  0.00000000000E+00 0. -1.
        -11    1    5    5    0    0  0.94785918453E+01  0.86275365093E+01 -0.45951032675E+01  0.13615912148E+02  0.00000000000E+00 0.  1.
          3    1    6    6  503    0  0.55847148219E+02 -0.23190500475E+03 -0.82906747127E+02  0.25253190672E+03  0.00000000000E+00 0. -1.
         -3    1    6    6    0  503  0.33893563508E+02 -0.11678753692E+03 -0.11958516499E+03  0.17055413836E+03  0.00000000000E+00 0.  1.
<mgrwt>
<rscale>  0 0.16691472E+04</rscale>
<asrwt>0</asrwt>
<pdfrwt beam="1">  1        2 0.42563437E+00 0.16691472E+04</pdfrwt>
<pdfrwt beam="2">  1       -2 0.38731639E-01 0.16691472E+04</pdfrwt>
<totfact> 0.14602276E+01</totfact>
</mgrwt>
</event>
<event>
12    2  0.3555611E-008  0.2378082E+04  0.7818608E-02  0.8447755E-01
          3   -1    0    0  501    0  0.00000000000E+00  0.00000000000E+00  0.18106454230E+04  0.18106454230E+04  0.00000000000E+00 0. -1.
         -3   -1    0    0    0  501 -0.00000000000E+00 -0.00000000000E+00 -0.78083658787E+03  0.78083658787E+03  0.00000000000E+00 0.  1.
         23    2    1    2    0    0 -0.12658209153E+03 -0.75582427037E+03 -0.28018762091E+03  0.82113652208E+03  0.92014843411E+02 0.  0.
        254    2    1    2    0    0  0.12658209153E+03  0.75582427037E+03  0.13099964560E+04  0.17703454888E+04  0.91144889118E+03 0.  0.
         23    2    4    4    0    0  0.18538302728E+03  0.91654369504E+03  0.83627510064E+03  0.12577716594E+04  0.90632729254E+02 0.  0.
         23    2    4    4    0    0 -0.58800935747E+02 -0.16071942467E+03  0.47372135539E+03  0.51257382934E+03  0.95035385297E+02 0.  0.
          1    1    3    3  502    0 -0.50594007435E+02 -0.20845421805E+03 -0.11989607200E+03  0.24573966447E+03  0.00000000000E+00 0. -1.
         -1    1    3    3    0  502 -0.75988084093E+02 -0.54737005232E+03 -0.16029154891E+03  0.57539685761E+03  0.00000000000E+00 0.  1.
         11    1    5    5    0    0  0.15724843473E+03  0.68930890608E+03  0.67678698578E+03  0.97873104699E+03  0.00000000000E+00 0. -1.
        -11    1    5    5    0    0  0.28134592546E+02  0.22723478896E+03  0.15948811486E+03  0.27904061245E+03  0.00000000000E+00 0.  1.
          1    1    6    6  503    0 -0.64364914184E+02 -0.16475901845E+03  0.38617832899E+03  0.42476120128E+03  0.00000000000E+00 0. -1.
         -1    1    6    6    0  503  0.55639784371E+01  0.40395937754E+01  0.87543026402E+02  0.87812628053E+02  0.00000000000E+00 0.  1.
<mgrwt>
<rscale>  0 0.23780817E+04</rscale>
<asrwt>0</asrwt>
<pdfrwt beam="1">  1        3 0.27856083E+00 0.23780817E+04</pdfrwt>
<pdfrwt beam="2">  1       -3 0.12012871E+00 0.23780817E+04</pdfrwt>
<totfact> 0.67402982E-02</totfact>
</mgrwt>
</event>
<event>
12    2  0.3555611E-008  0.1401138E+04  0.7818608E-02  0.8952995E-01
         -2   -1    0    0    0  501 -0.00000000000E+00  0.00000000000E+00  0.41479827498E+03  0.41479827498E+03  0.00000000000E+00 0.  1.
          2   -1    0    0  501    0  0.00000000000E+00 -0.00000000000E+00 -0.11832182042E+04  0.11832182042E+04  0.00000000000E+00 0. -1.
         23    2    1    2    0    0 -0.66579325713E+02  0.35038944166E+03 -0.44431451483E+03  0.57707454198E+03  0.91619165392E+02 0.  0.
        254    2    1    2    0    0  0.66579325713E+02 -0.35038944166E+03 -0.32410541439E+03  0.10209419372E+04  0.90004030579E+03 0.  0.
         23    2    4    4    0    0  0.20106737593E+03 -0.61548898241E+03 -0.26245044051E+03  0.70379795043E+03  0.84832447652E+02 0.  0.
         23    2    4    4    0    0 -0.13448805021E+03  0.26509954074E+03 -0.61654973877E+02  0.31714398677E+03  0.91728787121E+02 0.  0.
          2    1    3    3  502    0 -0.70387952293E+02  0.33808777224E+03 -0.38851941977E+03  0.51981260576E+03  0.00000000000E+00 0. -1.
         -2    1    3    3    0  502  0.38086265802E+01  0.12301669428E+02 -0.55795095058E+02  0.57261936220E+02  0.00000000000E+00 0.  1.
         11    1    5    5    0    0  0.31506563208E+02 -0.30102764559E+02 -0.18378640902E+02  0.47292857819E+02  0.00000000000E+00 0.  1.
        -11    1    5    5    0    0  0.16956081272E+03 -0.58538621785E+03 -0.24407179961E+03  0.65650509261E+03  0.00000000000E+00 0. -1.
          4    1    6    6  503    0 -0.10326875517E+03  0.19775915699E+03 -0.39618949351E+01  0.22313407758E+03  0.00000000000E+00 0. -1.
         -4    1    6    6    0  503 -0.31219295046E+02  0.67340383756E+02 -0.57693078942E+02  0.94009909187E+02  0.00000000000E+00 0.  1.
<mgrwt>
<rscale>  0 0.14011379E+04</rscale>
<asrwt>0</asrwt>
<pdfrwt beam="1">  1        2 0.18203357E+00 0.14011379E+04</pdfrwt>
<pdfrwt beam="2">  1       -2 0.63815120E-01 0.14011379E+04</pdfrwt>
<totfact> 0.42850035E+01</totfact>
</mgrwt>
</event>
<event>
12    2  0.3555611E-008  0.1726556E+04  0.7818608E-02  0.8746362E-01
         -1   -1    0    0    0  501 -0.00000000000E+00  0.00000000000E+00  0.13737200690E+04  0.13737200690E+04  0.00000000000E+00 0.  1.
          1   -1    0    0  501    0  0.00000000000E+00 -0.00000000000E+00 -0.54250447571E+03  0.54250447571E+03  0.00000000000E+00 0. -1.
         23    2    1    2    0    0 -0.36156135768E+03 -0.50442275545E+03  0.29291825775E+03  0.69221063332E+03  0.90473883400E+02 0.  0.
        254    2    1    2    0    0  0.36156135768E+03  0.50442275545E+03  0.53829733555E+03  0.12240139114E+04  0.90734618655E+03 0.  0.
         23    2    4    4    0    0  0.28113821490E+03  0.71493695388E+03  0.18518076001E+03  0.79534063063E+03  0.90007004983E+02 0.  0.
         23    2    4    4    0    0  0.80423142777E+02 -0.21051419844E+03  0.35311657554E+03  0.42867328077E+03  0.91023931402E+02 0.  0.
          1    1    3    3  502    0 -0.26540332860E+03 -0.42257104240E+03  0.25487278685E+03  0.56032611057E+03  0.00000000000E+00 0. -1.
         -1    1    3    3    0  502 -0.96158029083E+02 -0.81851713046E+02  0.38045470899E+02  0.13188452275E+03  0.00000000000E+00 0.  1.
         11    1    5    5    0    0  0.91865065114E+02  0.28778665187E+03  0.11328065076E+03  0.32263424030E+03  0.00000000000E+00 0. -1.
        -11    1    5    5    0    0  0.18927314979E+03  0.42715030202E+03  0.71900109256E+02  0.47270639033E+03  0.00000000000E+00 0.  1.
          3    1    6    6  503    0 -0.91990945398E+01 -0.96011410527E+02  0.12046527344E+03  0.15432011015E+03  0.00000000000E+00 0. -1.
         -3    1    6    6    0  503  0.89622237317E+02 -0.11450278791E+03  0.23265130209E+03  0.27435317061E+03  0.00000000000E+00 0.  1.
<mgrwt>
<rscale>  0 0.17265564E+04</rscale>
<asrwt>0</asrwt>
<pdfrwt beam="1">  1        1 0.83462227E-01 0.17265564E+04</pdfrwt>
<pdfrwt beam="2">  1       -1 0.21134155E+00 0.17265564E+04</pdfrwt>
<totfact> 0.47267339E+00</totfact>
</mgrwt>
</event>
<event>
12    2  0.3555611E-008  0.1268030E+04  0.7818608E-02  0.9055309E-01
         -1   -1    0    0    0  501 -0.00000000000E+00  0.00000000000E+00  0.56938950218E+03  0.56938950218E+03  0.00000000000E+00 0.  1.
          1   -1    0    0  501    0  0.00000000000E+00 -0.00000000000E+00 -0.70597496455E+03  0.70597496455E+03  0.00000000000E+00 0. -1.
         23    2    1    2    0    0  0.77348332358E+02  0.26279196378E+03  0.91665127408E+02  0.30411863239E+03  0.95096089499E+02 0.  0.
        254    2    1    2    0    0 -0.77348332358E+02 -0.26279196378E+03 -0.22825058979E+03  0.97124583434E+03  0.90342556874E+03 0.  0.
         23    2    4    4    0    0 -0.47662506603E+03 -0.20550657412E+03 -0.73914501618E+02  0.53185385396E+03  0.89446983438E+02 0.  0.
         23    2    4    4    0    0  0.39927673367E+03 -0.57285389652E+02 -0.15433608817E+03  0.43939198038E+03  0.80883610160E+02 0.  0.
          3    1    3    3  502    0  0.38908635805E+02  0.15307258499E+03  0.31028280414E+01  0.15797064841E+03  0.00000000000E+00 0. -1.
         -3    1    3    3    0  502  0.38439696553E+02  0.10971937878E+03  0.88562299367E+02  0.14614798398E+03  0.00000000000E+00 0.  1.
         11    1    5    5    0    0 -0.29011933923E+03 -0.17173909840E+03 -0.49207152172E+02  0.34071233136E+03  0.00000000000E+00 0. -1.
        -11    1    5    5    0    0 -0.18650572680E+03 -0.33767475724E+02 -0.24707349446E+02  0.19114152260E+03  0.00000000000E+00 0.  1.
          3    1    6    6  503    0  0.36212044510E+03 -0.73355803110E+02 -0.14967703003E+03  0.39864207496E+03  0.00000000000E+00 0. -1.
         -3    1    6    6    0  503  0.37156288579E+02  0.16070413457E+02 -0.46590581390E+01  0.40749905428E+02  0.00000000000E+00 0.  1.
<mgrwt>
<rscale>  0 0.12680295E+04</rscale>
<asrwt>0</asrwt>
<pdfrwt beam="1">  1        1 0.10861153E+00 0.12680295E+04</pdfrwt>
<pdfrwt beam="2">  1       -1 0.87598386E-01 0.12680295E+04</pdfrwt>
<totfact> 0.33972839E+01</totfact>
</mgrwt>
</event>
<event>
12    2  0.3555611E-008  0.2958017E+04  0.7818608E-02  0.8255822E-01
          2   -1    0    0  501    0  0.00000000000E+00  0.00000000000E+00  0.12141808348E+04  0.12141808348E+04  0.00000000000E+00 0. -1.
         -2   -1    0    0    0  501 -0.00000000000E+00 -0.00000000000E+00 -0.18015977098E+04  0.18015977098E+04  0.00000000000E+00 0.  1.
         23    2    1    2    0    0 -0.56384118226E+03  0.89196403399E+03 -0.11265806077E+04  0.15464913402E+04  0.94524510280E+02 0.  0.
        254    2    1    2    0    0  0.56384118226E+03 -0.89196403399E+03  0.53916373272E+03  0.14692872043E+04  0.86867176852E+03 0.  0.
         23    2    4    4    0    0  0.35007274313E+02 -0.43042174992E+03  0.61513335194E+03  0.75716946018E+03  0.91805003710E+02 0.  0.
         23    2    4    4    0    0  0.52883390795E+03 -0.46154228407E+03 -0.75969619215E+02  0.71211774416E+03  0.93025353149E+02 0.  0.
          1    1    3    3  502    0 -0.30847437757E+02  0.86294995623E+02 -0.73750697005E+02  0.11763314156E+03  0.00000000000E+00 0. -1.
         -1    1    3    3    0  502 -0.53299374450E+03  0.80566903836E+03 -0.10528299107E+04  0.14288581987E+04  0.00000000000E+00 0.  1.
         11    1    5    5    0    0 -0.23988061213E+01 -0.34388094513E+03  0.44189427751E+03  0.55993786369E+03  0.00000000000E+00 0.  1.
        -11    1    5    5    0    0  0.37406080434E+02 -0.86540804789E+02  0.17323907443E+03  0.19723159649E+03  0.00000000000E+00 0. -1.
          3    1    6    6  503    0  0.14479311686E+03 -0.14182718073E+03 -0.62988869299E+02  0.21224418375E+03  0.00000000000E+00 0. -1.
         -3    1    6    6    0  503  0.38404079109E+03 -0.31971510334E+03 -0.12980749917E+02  0.49987356041E+03  0.00000000000E+00 0.  1.
<mgrwt>
<rscale>  0 0.29580165E+04</rscale>
<asrwt>0</asrwt>
<pdfrwt beam="1">  1        2 0.18679705E+00 0.29580165E+04</pdfrwt>
<pdfrwt beam="2">  1       -2 0.27716888E+00 0.29580165E+04</pdfrwt>
<totfact> 0.69915697E-01</totfact>
</mgrwt>
</event>
<event>
12    2  0.4213612E-008  0.2168394E+04  0.7818608E-02  0.8531700E-01
          1   -1    0    0  501    0  0.00000000000E+00  0.00000000000E+00  0.97604739072E+03  0.97604739072E+03  0.00000000000E+00 0. -1.
         -1   -1    0    0    0  501 -0.00000000000E+00 -0.00000000000E+00 -0.12043298181E+04  0.12043298181E+04  0.00000000000E+00 0.  1.
         23    2    1    2    0    0  0.46768379547E+03  0.31876005864E+03  0.59825261655E+03  0.82852910216E+03  0.90654136074E+02 0.  0.
        254    2    1    2    0    0 -0.46768379547E+03 -0.31876005864E+03 -0.82653504389E+03  0.13518481066E+04  0.90774281439E+03 0.  0.
         23    2    4    4    0    0  0.76990257707E+01 -0.43290802570E+03 -0.72259430006E+02  0.44813714389E+03  0.90204438915E+02 0.  0.
         23    2    4    4    0    0 -0.47538282124E+03  0.11414796706E+03 -0.75427561389E+03  0.90371096273E+03  0.93505172846E+02 0.  0.
          1    1    3    3  502    0  0.46771550328E+03  0.32267297259E+03  0.59749033422E+03  0.82454250269E+03  0.00000000000E+00 0. -1.
         -1    1    3    3    0  502 -0.31707815696E-01 -0.39129139540E+01  0.76228233410E+00  0.39865994725E+01  0.00000000000E+00 0.  1.
         11    1    5    5    0    0 -0.10180443822E+02 -0.50045249606E+02 -0.37349669762E+02  0.63270579860E+02  0.00000000000E+00 0.  1.
        -11    1    5    5    0    0  0.17879469593E+02 -0.38286277609E+03 -0.34909760244E+02  0.38486656403E+03  0.00000000000E+00 0. -1.
          2    1    6    6  503    0 -0.44651618158E+03  0.12018759470E+03 -0.73539586818E+03  0.86869375575E+03  0.00000000000E+00 0. -1.
         -2    1    6    6    0  503 -0.28866639659E+02 -0.60396276456E+01 -0.18879745702E+02  0.35017206985E+02  0.00000000000E+00 0.  1.
<mgrwt>
<rscale>  0 0.21683939E+04</rscale>
<asrwt>0</asrwt>
<pdfrwt beam="1">  1        1 0.15016114E+00 0.21683939E+04</pdfrwt>
<pdfrwt beam="2">  1       -1 0.18528151E+00 0.21683939E+04</pdfrwt>
<totfact> 0.27563243E+00</totfact>
</mgrwt>
</event>
<event>
12    2  0.3555611E-008  0.1368482E+04  0.7818608E-02  0.8976954E-01
          2   -1    0    0  501    0  0.00000000000E+00  0.00000000000E+00  0.67845843768E+03  0.67845843768E+03  0.00000000000E+00 0. -1.
         -2   -1    0    0    0  501 -0.00000000000E+00 -0.00000000000E+00 -0.69007310041E+03  0.69007310041E+03  0.00000000000E+00 0.  1.
         23    2    1    2    0    0  0.68338233787E+02 -0.16263466293E+03  0.33461360863E+03  0.38889826657E+03  0.90307512875E+02 0.  0.
        254    2    1    2    0    0 -0.68338233787E+02  0.16263466293E+03 -0.34622827135E+03  0.97963327152E+03  0.89927036146E+03 0.  0.
         23    2    4    4    0    0 -0.28251882648E+03  0.44648839555E+03 -0.12515742731E+03  0.55092354187E+03  0.93185796670E+02 0.  0.
         23    2    4    4    0    0  0.21418059269E+03 -0.28385373262E+03 -0.22107084404E+03  0.42870972965E+03  0.92051324847E+02 0.  0.
          2    1    3    3  502    0  0.71232812299E+02 -0.12232768257E+03  0.17946675976E+03  0.22857491842E+03  0.00000000000E+00 0. -1.
         -2    1    3    3    0  502 -0.28945785120E+01 -0.40306980358E+02  0.15514684886E+03  0.16032334815E+03  0.00000000000E+00 0.  1.
         11    1    5    5    0    0 -0.14349102998E+03  0.14988475662E+03 -0.68342909496E+02  0.21846251218E+03  0.00000000000E+00 0. -1.
        -11    1    5    5    0    0 -0.13902779650E+03  0.29660363893E+03 -0.56814517813E+02  0.33246102969E+03  0.00000000000E+00 0.  1.
          3    1    6    6  503    0  0.36081269352E+02 -0.53592031253E+01 -0.26965098758E+02  0.45361829848E+02  0.00000000000E+00 0. -1.
         -3    1    6    6    0  503  0.17809932334E+03 -0.27849452950E+03 -0.19410574529E+03  0.38334789981E+03  0.00000000000E+00 0.  1.
<mgrwt>
<rscale>  0 0.13684823E+04</rscale>
<asrwt>0</asrwt>
<pdfrwt beam="1">  1        2 0.10437822E+00 0.13684823E+04</pdfrwt>
<pdfrwt beam="2">  1       -2 0.10616509E+00 0.13684823E+04</pdfrwt>
<totfact> 0.29766360E+01</totfact>
</mgrwt>
</event>
<event>
12    2  0.3555611E-008  0.2773542E+04  0.7818608E-02  0.8311530E-01
         -2   -1    0    0    0  501 -0.00000000000E+00  0.00000000000E+00  0.16926747454E+04  0.16926747454E+04  0.00000000000E+00 0.  1.
          2   -1    0    0  501    0  0.00000000000E+00 -0.00000000000E+00 -0.11361507677E+04  0.11361507677E+04  0.00000000000E+00 0. -1.
         23    2    1    2    0    0 -0.11916613178E+04  0.12249849819E+03 -0.34661910122E+02  0.12018952275E+04  0.91039066053E+02 0.  0.
        254    2    1    2    0    0  0.11916613178E+04 -0.12249849819E+03  0.59118588781E+03  0.16269302855E+04  0.92862200149E+03 0.  0.
         23    2    4    4    0    0  0.65266540728E+03 -0.28367026310E+03  0.74718705758E+03  0.10359703805E+04  0.92223523728E+02 0.  0.
         23    2    4    4    0    0  0.53899591053E+03  0.16117176491E+03 -0.15600116977E+03  0.59095990500E+03  0.91675050968E+02 0.  0.
          1    1    3    3  502    0 -0.35249781587E+03  0.14476334669E+02 -0.45651266329E+02  0.35573629640E+03  0.00000000000E+00 0. -1.
         -1    1    3    3    0  502 -0.83916350194E+03  0.10802216352E+03  0.10989356207E+02  0.84615893114E+03  0.00000000000E+00 0.  1.
         11    1    5    5    0    0  0.46981553200E+03 -0.24623648433E+03  0.56978976008E+03  0.77847248572E+03  0.00000000000E+00 0.  1.
        -11    1    5    5    0    0  0.18284987528E+03 -0.37433778773E+02  0.17739729750E+03  0.25749789483E+03  0.00000000000E+00 0. -1.
          3    1    6    6  503    0  0.30764980850E+02  0.33207245228E+02 -0.49771675729E+01  0.45540941793E+02  0.00000000000E+00 0. -1.
         -3    1    6    6    0  503  0.50823092968E+03  0.12796451968E+03 -0.15102400220E+03  0.54541896321E+03  0.00000000000E+00 0.  1.
<mgrwt>
<rscale>  0 0.27735419E+04</rscale>
<asrwt>0</asrwt>
<pdfrwt beam="1">  1        2 0.17479243E+00 0.27735419E+04</pdfrwt>
<pdfrwt beam="2">  1       -2 0.26041150E+00 0.27735419E+04</pdfrwt>
<totfact> 0.10012983E+00</totfact>
</mgrwt>
</event>
<event>
12    2  0.3555611E-008  0.2167270E+04  0.7818608E-02  0.8532176E-01
         -2   -1    0    0    0  501 -0.00000000000E+00  0.00000000000E+00  0.51076924155E+03  0.51076924155E+03  0.00000000000E+00 0.  1.
          2   -1    0    0  501    0  0.00000000000E+00 -0.00000000000E+00 -0.22990126053E+04  0.22990126053E+04  0.00000000000E+00 0. -1.
         23    2    1    2    0    0 -0.49881949752E+02 -0.89243965328E+03 -0.81293701507E+03  0.12114953612E+04  0.88981324283E+02 0.  0.
        254    2    1    2    0    0  0.49881949752E+02  0.89243965328E+03 -0.97530634866E+03  0.15982864856E+04  0.89686145681E+03 0.  0.
         23    2    4    4    0    0 -0.15780619251E+02  0.84892161117E+03 -0.29016538684E+03  0.90269650404E+03  0.98732450815E+02 0.  0.
         23    2    4    4    0    0  0.65662569003E+02  0.43518042118E+02 -0.68514096181E+03  0.69558998157E+03  0.90674648906E+02 0.  0.
          2    1    3    3  502    0 -0.24219157832E+02 -0.47889477561E+03 -0.49556167633E+03  0.68957098892E+03  0.00000000000E+00 0. -1.
         -2    1    3    3    0  502 -0.25662791920E+02 -0.41354487767E+03 -0.31737533874E+03  0.52192437228E+03  0.00000000000E+00 0.  1.
         11    1    5    5    0    0 -0.49269448165E+02  0.68376615905E+03 -0.21786946000E+03  0.71932658812E+03  0.00000000000E+00 0.  1.
        -11    1    5    5    0    0  0.33488828915E+02  0.16515545212E+03 -0.72295926847E+02  0.18336991592E+03  0.00000000000E+00 0. -1.
          1    1    6    6  503    0  0.45033275340E+02  0.58621217170E+02 -0.27841950444E+03  0.28806572764E+03  0.00000000000E+00 0. -1.
         -1    1    6    6    0  503  0.20629293662E+02 -0.15103175053E+02 -0.40672145737E+03  0.40752425393E+03  0.00000000000E+00 0.  1.
<mgrwt>
<rscale>  0 0.21672701E+04</rscale>
<asrwt>0</asrwt>
<pdfrwt beam="1">  1        2 0.35369424E+00 0.21672701E+04</pdfrwt>
<pdfrwt beam="2">  1       -2 0.78579885E-01 0.21672701E+04</pdfrwt>
<totfact> 0.59867478E+00</totfact>
</mgrwt>
</event>
<event>
12    2  0.3555611E-008  0.1187619E+04  0.7818608E-02  0.9123763E-01
         -1   -1    0    0    0  501 -0.00000000000E+00  0.00000000000E+00  0.33263534599E+03  0.33263534599E+03  0.00000000000E+00 0.  1.
          1   -1    0    0  501    0  0.00000000000E+00 -0.00000000000E+00 -0.10600482636E+04  0.10600482636E+04  0.00000000000E+00 0. -1.
         23    2    1    2    0    0 -0.24633372141E+03  0.15155621618E+03 -0.58327735867E+02  0.31182778738E+03  0.10092004381E+03 0.  0.
        254    2    1    2    0    0  0.24633372141E+03 -0.15155621618E+03 -0.66908518174E+03  0.10808558222E+04  0.79807564742E+03 0.  0.
         23    2    4    4    0    0  0.37209342212E+02  0.28676750241E+03 -0.44318759266E+03  0.53713285918E+03  0.92066989393E+02 0.  0.
         23    2    4    4    0    0  0.20912437920E+03 -0.43832371859E+03 -0.22589758908E+03  0.54372296302E+03  0.93510702673E+02 0.  0.
          4    1    3    3  502    0 -0.12383845524E+01  0.22185446627E+02 -0.23769599233E+02  0.32538000646E+02  0.00000000000E+00 0. -1.
         -4    1    3    3    0  502 -0.24509533686E+03  0.12937076955E+03 -0.34558136634E+02  0.27928978673E+03  0.00000000000E+00 0.  1.
         11    1    5    5    0    0 -0.13796304229E+02  0.25466844789E+01 -0.29090919363E+02  0.32297139217E+02  0.00000000000E+00 0.  1.
        -11    1    5    5    0    0  0.51005646441E+02  0.28422081793E+03 -0.41409667330E+03  0.50483571996E+03  0.00000000000E+00 0. -1.
          1    1    6    6  503    0  0.17267302623E+03 -0.25903234637E+03 -0.13300040870E+03  0.33853041100E+03  0.00000000000E+00 0. -1.
         -1    1    6    6    0  503  0.36451352964E+02 -0.17929137222E+03 -0.92897180375E+02  0.20519255203E+03  0.00000000000E+00 0.  1.
<mgrwt>
<rscale>  0 0.11876187E+04</rscale>
<asrwt>0</asrwt>
<pdfrwt beam="1">  1        1 0.16308435E+00 0.11876187E+04</pdfrwt>
<pdfrwt beam="2">  1       -1 0.51174667E-01 0.11876187E+04</pdfrwt>
<totfact> 0.51698919E+01</totfact>
</mgrwt>
</event>
<event>
12    2  0.3555611E-008  0.2030938E+04  0.7818608E-02  0.8592291E-01
         -2   -1    0    0    0  501 -0.00000000000E+00  0.00000000000E+00  0.76816368473E+03  0.76816368473E+03  0.00000000000E+00 0.  1.
          2   -1    0    0  501    0  0.00000000000E+00 -0.00000000000E+00 -0.13423927240E+04  0.13423927240E+04  0.00000000000E+00 0. -1.
         23    2    1    2    0    0 -0.60714601754E+03 -0.41948987480E+03  0.12544291795E+03  0.75407136475E+03  0.91047546836E+02 0.  0.
        254    2    1    2    0    0  0.60714601754E+03  0.41948987480E+03 -0.69967195720E+03  0.13564850440E+04  0.89772645341E+03 0.  0.
         23    2    4    4    0    0  0.28482073126E+03  0.34044236680E+03  0.11941336639E+03  0.46793153961E+03  0.87615749856E+02 0.  0.
         23    2    4    4    0    0  0.32232528628E+03  0.79047508006E+02 -0.81908532359E+03  0.88855350436E+03  0.92111150721E+02 0.  0.
          1    1    3    3  502    0 -0.34947186578E+03 -0.24296848145E+03  0.26595705166E+02  0.42646406587E+03  0.00000000000E+00 0. -1.
         -1    1    3    3    0  502 -0.25767415176E+03 -0.17652139336E+03  0.98847212780E+02  0.32760729887E+03  0.00000000000E+00 0.  1.
         11    1    5    5    0    0  0.21202934011E+03  0.29602321813E+03  0.74934162710E+02  0.37175437520E+03  0.00000000000E+00 0. -1.
        -11    1    5    5    0    0  0.72791391148E+02  0.44419148669E+02  0.44479203684E+02  0.96177164411E+02  0.00000000000E+00 0.  1.
          3    1    6    6  503    0  0.25036576902E+03  0.23290810970E+02 -0.64090584138E+03  0.68846625022E+03  0.00000000000E+00 0. -1.
         -3    1    6    6    0  503  0.71959517257E+02  0.55756697036E+02 -0.17817948221E+03  0.20008725414E+03  0.00000000000E+00 0.  1.
<mgrwt>
<rscale>  0 0.20309381E+04</rscale>
<asrwt>0</asrwt>
<pdfrwt beam="1">  1        2 0.20652196E+00 0.20309381E+04</pdfrwt>
<pdfrwt beam="2">  1       -2 0.11817903E+00 0.20309381E+04</pdfrwt>
<totfact> 0.79849252E+00</totfact>
</mgrwt>
</event>
<event>
12    2  0.3555611E-008  0.2279228E+04  0.7818608E-02  0.8486157E-01
         -1   -1    0    0    0  501 -0.00000000000E+00  0.00000000000E+00  0.55182697967E+03  0.55182697967E+03  0.00000000000E+00 0.  1.
          1   -1    0    0  501    0  0.00000000000E+00 -0.00000000000E+00 -0.23534911651E+04  0.23534911651E+04  0.00000000000E+00 0. -1.
         23    2    1    2    0    0 -0.58853709967E+03 -0.12978982397E+03 -0.17447696369E+04  0.18486627080E+04  0.10055548608E+03 0.  0.
        254    2    1    2    0    0  0.58853709967E+03  0.12978982397E+03 -0.56894548525E+02  0.10566554368E+04  0.86606143341E+03 0.  0.
         23    2    4    4    0    0  0.74606582470E+03  0.27982263557E+03 -0.12350252738E+03  0.81155884454E+03  0.91978050170E+02 0.  0.
         23    2    4    4    0    0 -0.15752872504E+03 -0.15003281160E+03  0.66607978855E+02  0.24509659229E+03  0.91162343859E+02 0.  0.
          4    1    3    3  502    0 -0.54950357044E+03 -0.11142075345E+03 -0.16777561704E+04  0.17689642522E+04  0.00000000000E+00 0. -1.
         -4    1    3    3    0  502 -0.39033529227E+02 -0.18369070521E+02 -0.67013466511E+02  0.79698455754E+02  0.00000000000E+00 0.  1.
         11    1    5    5    0    0  0.60001354377E+03  0.22593908237E+03 -0.13591010560E+03  0.65539017269E+03  0.00000000000E+00 0. -1.
        -11    1    5    5    0    0  0.14605228093E+03  0.53883553201E+02  0.12407578217E+02  0.15616867185E+03  0.00000000000E+00 0.  1.
          1    1    6    6  503    0 -0.16588959947E+03 -0.14744070494E+03  0.73670531717E+02  0.23384924188E+03  0.00000000000E+00 0. -1.
         -1    1    6    6    0  503  0.83608744347E+01 -0.25921066568E+01 -0.70625528627E+01  0.11247350407E+02  0.00000000000E+00 0.  1.
<mgrwt>
<rscale>  0 0.22792279E+04</rscale>
<asrwt>0</asrwt>
<pdfrwt beam="1">  1        1 0.36207556E+00 0.22792279E+04</pdfrwt>
<pdfrwt beam="2">  1       -1 0.84896460E-01 0.22792279E+04</pdfrwt>
<totfact> 0.21255060E+00</totfact>
</mgrwt>
</event>
<event>
12    2  0.3555611E-008  0.1414800E+04  0.7818608E-02  0.8943175E-01
         -1   -1    0    0    0  501 -0.00000000000E+00  0.00000000000E+00  0.70510231192E+03  0.70510231192E+03  0.00000000000E+00 0.  1.
          1   -1    0    0  501    0  0.00000000000E+00 -0.00000000000E+00 -0.70970489590E+03  0.70970489590E+03  0.00000000000E+00 0. -1.
         23    2    1    2    0    0 -0.32054693007E+03  0.13179456975E+03 -0.20153187925E+03  0.41041824904E+03  0.87794634241E+02 0.  0.
        254    2    1    2    0    0  0.32054693007E+03 -0.13179456975E+03  0.19692929527E+03  0.10043889588E+04  0.92189798254E+03 0.  0.
         23    2    4    4    0    0 -0.94062420409E+02  0.29826644278E+03  0.23062609153E+03  0.39883367059E+03  0.89829242868E+02 0.  0.
         23    2    4    4    0    0  0.41460935048E+03 -0.43006101253E+03 -0.33696796264E+02  0.60555528820E+03  0.93318513636E+02 0.  0.
          1    1    3    3  502    0 -0.12346678314E+03  0.45018573497E+02 -0.12642697348E+03  0.18235815891E+03  0.00000000000E+00 0.  1.
         -1    1    3    3    0  502 -0.19708014693E+03  0.86775996250E+02 -0.75104905764E+02  0.22806009013E+03  0.00000000000E+00 0. -1.
         11    1    5    5    0    0 -0.22532406104E+02  0.31449978321E+02 -0.44751993536E+00  0.38691222975E+02  0.00000000000E+00 0. -1.
        -11    1    5    5    0    0 -0.71530014304E+02  0.26681646446E+03  0.23107361147E+03  0.36014244761E+03  0.00000000000E+00 0.  1.
          4    1    6    6  503    0  0.19738257979E+03 -0.19738298990E+03 -0.62121875534E+02  0.28597037421E+03  0.00000000000E+00 0.  1.
         -4    1    6    6    0  503  0.21722677069E+03 -0.23267802263E+03  0.28425079270E+02  0.31958491399E+03  0.00000000000E+00 0. -1.
<mgrwt>
<rscale>  0 0.14147997E+04</rscale>
<asrwt>0</asrwt>
<pdfrwt beam="1">  1        1 0.10918537E+00 0.14147997E+04</pdfrwt>
<pdfrwt beam="2">  1       -1 0.10847728E+00 0.14147997E+04</pdfrwt>
<totfact> 0.20501294E+01</totfact>
</mgrwt>
</event>
<event>
12    2  0.3555611E-008  0.1295216E+04  0.7818608E-02  0.9033367E-01
         -1   -1    0    0    0  501 -0.00000000000E+00  0.00000000000E+00  0.63459478269E+03  0.63459478269E+03  0.00000000000E+00 0.  1.
          1   -1    0    0  501    0  0.00000000000E+00 -0.00000000000E+00 -0.66088856041E+03  0.66088856041E+03  0.00000000000E+00 0. -1.
         23    2    1    2    0    0 -0.15529705682E+03  0.28295038957E+03 -0.10213734290E+02  0.33662302654E+03  0.95040216834E+02 0.  0.
        254    2    1    2    0    0  0.15529705682E+03 -0.28295038957E+03 -0.16080043427E+02  0.95886031656E+03  0.90276045553E+03 0.  0.
         23    2    4    4    0    0 -0.33139511233E+03  0.64923893657E+02 -0.46339086678E+02  0.35291205584E+03  0.91442745790E+02 0.  0.
         23    2    4    4    0    0  0.48669216915E+03 -0.34787428323E+03  0.30259043251E+02  0.60594826072E+03  0.91498090329E+02 0.  0.
          4    1    3    3  502    0 -0.13270907113E+03  0.26328408721E+03  0.18118738924E+02  0.29539549224E+03  0.00000000000E+00 0. -1.
         -4    1    3    3    0  502 -0.22587985682E+02  0.19666302363E+02 -0.28332473214E+02  0.41227534297E+02  0.00000000000E+00 0.  1.
         11    1    5    5    0    0 -0.16688804487E+03  0.74273805592E+02 -0.36793756629E+01  0.18270674734E+03  0.00000000000E+00 0. -1.
        -11    1    5    5    0    0 -0.16450706746E+03 -0.93499119350E+01 -0.42659711015E+02  0.17020530850E+03  0.00000000000E+00 0.  1.
          1    1    6    6  503    0  0.42156598131E+03 -0.28675653494E+03 -0.51396440850E+01  0.50987606619E+03  0.00000000000E+00 0. -1.
         -1    1    6    6    0  503  0.65126187840E+02 -0.61117748286E+02  0.35398687336E+02  0.96072194537E+02  0.00000000000E+00 0.  1.
<mgrwt>
<rscale>  0 0.12952165E+04</rscale>
<asrwt>0</asrwt>
<pdfrwt beam="1">  1        1 0.10167516E+00 0.12952165E+04</pdfrwt>
<pdfrwt beam="2">  1       -1 0.97629966E-01 0.12952165E+04</pdfrwt>
<totfact> 0.29413795E+01</totfact>
</mgrwt>
</event>
<event>
12    2  0.3555611E-008  0.2908306E+04  0.7818608E-02  0.8270410E-01
         -1   -1    0    0    0  501 -0.00000000000E+00  0.00000000000E+00  0.14502926781E+04  0.14502926781E+04  0.00000000000E+00 0.  1.
          1   -1    0    0  501    0  0.00000000000E+00 -0.00000000000E+00 -0.14580236209E+04  0.14580236209E+04  0.00000000000E+00 0. -1.
         23    2    1    2    0    0  0.29797160263E+03 -0.15148459282E+03 -0.12750266075E+04  0.13217669740E+04  0.98185670877E+02 0.  0.
        254    2    1    2    0    0 -0.29797160263E+03  0.15148459282E+03  0.12672956647E+04  0.15865493250E+04  0.89407259267E+03 0.  0.
         23    2    4    4    0    0 -0.40279528002E+03 -0.67544323280E+02  0.12589460161E+04  0.13266395148E+04  0.90670048324E+02 0.  0.
         23    2    4    4    0    0  0.10482367739E+03  0.21902891610E+03  0.83496485906E+01  0.25990981012E+03  0.92313180723E+02 0.  0.
          4    1    3    3  502    0  0.23815599658E+03 -0.73255576289E+02 -0.87373753805E+03  0.90857137505E+03  0.00000000000E+00 0. -1.
         -4    1    3    3    0  502  0.59815606048E+02 -0.78229016534E+02 -0.40128906946E+03  0.41319559899E+03  0.00000000000E+00 0.  1.
         11    1    5    5    0    0 -0.17057970527E+03 -0.53383325847E+02  0.43007570089E+03  0.46573847149E+03  0.00000000000E+00 0.  1.
        -11    1    5    5    0    0 -0.23221557475E+03 -0.14160997433E+02  0.82887031521E+03  0.86090104335E+03  0.00000000000E+00 0. -1.
          3    1    6    6  503    0  0.63142551196E+02  0.44902100106E+02  0.21422495247E+02  0.80387210849E+02  0.00000000000E+00 0. -1.
         -3    1    6    6    0  503  0.41681126196E+02  0.17412681600E+03 -0.13072846656E+02  0.17952259927E+03  0.00000000000E+00 0.  1.
<mgrwt>
<rscale>  0 0.29083060E+04</rscale>
<asrwt>0</asrwt>
<pdfrwt beam="1">  1        1 0.22431133E+00 0.29083060E+04</pdfrwt>
<pdfrwt beam="2">  1       -1 0.22312195E+00 0.29083060E+04</pdfrwt>
<totfact> 0.62945699E-01</totfact>
</mgrwt>
</event>
<event>
12    2  0.3555611E-008  0.1296964E+04  0.7818608E-02  0.9031976E-01
         -2   -1    0    0    0  501 -0.00000000000E+00  0.00000000000E+00  0.18703366831E+03  0.18703366831E+03  0.00000000000E+00 0.  1.
          2   -1    0    0  501    0  0.00000000000E+00 -0.00000000000E+00 -0.22484118119E+04  0.22484118119E+04  0.00000000000E+00 0. -1.
         23    2    1    2    0    0  0.37151295242E+02 -0.31224430319E+03 -0.69407826482E+03  0.76707974146E+03  0.88260797907E+02 0.  0.
        254    2    1    2    0    0 -0.37151295242E+02  0.31224430319E+03 -0.13672998788E+04  0.16683657388E+04  0.90280593495E+03 0.  0.
         23    2    4    4    0    0 -0.35507384577E+03  0.42080502916E+03 -0.56579972616E+03  0.79474558474E+03  0.91306658180E+02 0.  0.
         23    2    4    4    0    0  0.31792255052E+03 -0.10856072597E+03 -0.80150015262E+03  0.87362015403E+03  0.89159965939E+02 0.  0.
          3    1    3    3  502    0  0.44619956110E+02 -0.29220898690E+03 -0.57963797743E+03  0.65065906387E+03  0.00000000000E+00 0. -1.
         -3    1    3    3    0  502 -0.74686608679E+01 -0.20035316292E+02 -0.11444028738E+03  0.11642067759E+03  0.00000000000E+00 0.  1.
         11    1    5    5    0    0 -0.21202068293E+03  0.18197234660E+03 -0.27012198765E+03  0.38862912028E+03  0.00000000000E+00 0. -1.
        -11    1    5    5    0    0 -0.14305316284E+03  0.23883268256E+03 -0.29567773852E+03  0.40611646446E+03  0.00000000000E+00 0.  1.
          1    1    6    6  503    0  0.30072852879E+03 -0.95900597342E+02 -0.67285332685E+03  0.74321340950E+03  0.00000000000E+00 0. -1.
         -1    1    6    6    0  503  0.17194021733E+02 -0.12660128626E+02 -0.12864682576E+03  0.13040674453E+03  0.00000000000E+00 0.  1.
<mgrwt>
<rscale>  0 0.12969637E+04</rscale>
<asrwt>0</asrwt>
<pdfrwt beam="1">  1        2 0.34590949E+00 0.12969637E+04</pdfrwt>
<pdfrwt beam="2">  1       -2 0.28774412E-01 0.12969637E+04</pdfrwt>
<totfact> 0.52818788E+01</totfact>
</mgrwt>
</event>
<event>
12    2  0.3555611E-008  0.1274255E+04  0.7818608E-02  0.9050234E-01
         -2   -1    0    0    0  501 -0.00000000000E+00  0.00000000000E+00  0.71181115231E+03  0.71181115231E+03  0.00000000000E+00 0.  1.
          2   -1    0    0  501    0  0.00000000000E+00 -0.00000000000E+00 -0.57027933862E+03  0.57027933862E+03  0.00000000000E+00 0. -1.
         23    2    1    2    0    0 -0.34682543248E+03 -0.22790154660E+03  0.55269461754E+02  0.42949939080E+03  0.95854148236E+02 0.  0.
        254    2    1    2    0    0  0.34682543248E+03  0.22790154660E+03  0.86262351940E+02  0.85259110013E+03  0.73975901151E+03 0.  0.
         23    2    4    4    0    0  0.11154400143E+02  0.22910636301E+03 -0.26168929006E+03  0.36056622896E+03  0.94406433682E+02 0.  0.
         23    2    4    4    0    0  0.33567103234E+03 -0.12048164071E+01  0.34795164200E+03  0.49202487118E+03  0.91332552555E+02 0.  0.
          1    1    3    3  502    0 -0.20385370504E+03 -0.14676801152E+03  0.79192641531E+02  0.26337930202E+03  0.00000000000E+00 0. -1.
         -1    1    3    3    0  502 -0.14297172744E+03 -0.81133535086E+02 -0.23923179777E+02  0.16612008877E+03  0.00000000000E+00 0.  1.
         11    1    5    5    0    0 -0.13086797805E+02  0.20574370124E+03 -0.18574489081E+03  0.27749396271E+03  0.00000000000E+00 0.  1.
        -11    1    5    5    0    0  0.24241197948E+02  0.23362661767E+02 -0.75944399248E+02  0.83072266250E+02  0.00000000000E+00 0. -1.
          1    1    6    6  503    0  0.86697494173E+02  0.28727940239E+02  0.13524890147E+03  0.16319931187E+03  0.00000000000E+00 0. -1.
         -1    1    6    6    0  503  0.24897353816E+03 -0.29932756646E+02  0.21270274053E+03  0.32882555931E+03  0.00000000000E+00 0.  1.
<mgrwt>
<rscale>  0 0.12742546E+04</rscale>
<asrwt>0</asrwt>
<pdfrwt beam="1">  1        2 0.87735283E-01 0.12742546E+04</pdfrwt>
<pdfrwt beam="2">  1       -2 0.10950941E+00 0.12742546E+04</pdfrwt>
<totfact> 0.34386207E+01</totfact>
</mgrwt>
</event>
<event>
12    2  0.3555611E-008  0.1417363E+04  0.7818608E-02  0.8941346E-01
          2   -1    0    0  501    0  0.00000000000E+00  0.00000000000E+00  0.35912944846E+03  0.35912944846E+03  0.00000000000E+00 0. -1.
         -2   -1    0    0    0  501 -0.00000000000E+00 -0.00000000000E+00 -0.13984631789E+04  0.13984631789E+04  0.00000000000E+00 0.  1.
         23    2    1    2    0    0  0.20068009758E+03  0.15486084729E+03  0.94703110387E+02  0.28602858751E+03  0.92678423408E+02 0.  0.
        254    2    1    2    0    0 -0.20068009758E+03 -0.15486084729E+03 -0.11340368408E+04  0.14715640399E+04  0.90288802376E+03 0.  0.
         23    2    4    4    0    0 -0.28313199434E+03 -0.82245892429E+02 -0.12496730134E+04  0.12878501497E+04  0.99735924538E+02 0.  0.
         23    2    4    4    0    0  0.82451896757E+02 -0.72614954857E+02  0.11563617258E+03  0.18371389014E+03  0.91147254876E+02 0.  0.
          4    1    3    3  502    0  0.21067326004E+03  0.14846757228E+03  0.93221518923E+02  0.27407315466E+03  0.00000000000E+00 0. -1.
         -4    1    3    3    0  502 -0.99931624590E+01  0.63932750032E+01  0.14815914633E+01  0.11955432843E+02  0.00000000000E+00 0.  1.
         11    1    5    5    0    0 -0.13611376926E+03 -0.91024700289E+02 -0.68219783367E+03  0.70157418603E+03  0.00000000000E+00 0. -1.
        -11    1    5    5    0    0 -0.14701822508E+03  0.87788078599E+01 -0.56747517975E+03  0.58627596370E+03  0.00000000000E+00 0.  1.
          1    1    6    6  503    0  0.16920056010E+02  0.20194268868E+02  0.37483536858E+02  0.45816070607E+02  0.00000000000E+00 0. -1.
         -1    1    6    6    0  503  0.65531840747E+02 -0.92809223725E+02  0.78152635724E+02  0.13789781953E+03  0.00000000000E+00 0.  1.
<mgrwt>
<rscale>  0 0.14173628E+04</rscale>
<asrwt>0</asrwt>
<pdfrwt beam="1">  1        2 0.55250685E-01 0.14173628E+04</pdfrwt>
<pdfrwt beam="2">  1       -2 0.21514818E+00 0.14173628E+04</pdfrwt>
<totfact> 0.92557316E+00</totfact>
</mgrwt>
</event>
<event>
12    2  0.3555611E-008  0.3120272E+04  0.7818608E-02  0.8210196E-01
          2   -1    0    0  501    0  0.00000000000E+00  0.00000000000E+00  0.17885857544E+04  0.17885857544E+04  0.00000000000E+00 0. -1.
         -2   -1    0    0    0  501 -0.00000000000E+00 -0.00000000000E+00 -0.13608651347E+04  0.13608651347E+04  0.00000000000E+00 0.  1.
         23    2    1    2    0    0  0.41864770357E+03  0.84282379414E+03  0.12800966586E+04  0.15913744690E+04  0.90594688657E+02 0.  0.
        254    2    1    2    0    0 -0.41864770357E+03 -0.84282379414E+03 -0.85237603888E+03  0.15580764201E+04  0.90301681680E+03 0.  0.
         23    2    4    4    0    0 -0.20009576626E+03 -0.97452585412E+03 -0.80434106005E+03  0.12825725162E+04  0.91042641000E+02 0.  0.
         23    2    4    4    0    0 -0.21855193731E+03  0.13170205998E+03 -0.48034978825E+02  0.27550390383E+03  0.92112213778E+02 0.  0.
          1    1    3    3  502    0  0.28297907650E+03  0.65605515138E+03  0.95761335565E+03  0.11947840216E+04  0.00000000000E+00 0. -1.
         -1    1    3    3    0  502  0.13566862708E+03  0.18676864276E+03  0.32248330293E+03  0.39659044738E+03  0.00000000000E+00 0.  1.
         11    1    5    5    0    0 -0.12897849647E+03 -0.77138424774E+03 -0.59928229770E+03  0.98529608877E+03  0.00000000000E+00 0.  1.
        -11    1    5    5    0    0 -0.71117269786E+02 -0.20314160638E+03 -0.20505876235E+03  0.29727642746E+03  0.00000000000E+00 0. -1.
          1    1    6    6  503    0 -0.10050515974E+03  0.50403723854E+02  0.24179775844E+02  0.11500645230E+03  0.00000000000E+00 0. -1.
         -1    1    6    6    0  503 -0.11804677758E+03  0.81298336130E+02 -0.72214754669E+02  0.16049745153E+03  0.00000000000E+00 0.  1.
<mgrwt>
<rscale>  0 0.31202718E+04</rscale>
<asrwt>0</asrwt>
<pdfrwt beam="1">  1        2 0.27516704E+00 0.31202718E+04</pdfrwt>
<pdfrwt beam="2">  1       -2 0.20936387E+00 0.31202718E+04</pdfrwt>
<totfact> 0.85794788E-01</totfact>
</mgrwt>
</event>
<event>
12    2  0.3555611E-008  0.2048731E+04  0.7818608E-02  0.8584170E-01
         -2   -1    0    0    0  501 -0.00000000000E+00  0.00000000000E+00  0.15527606915E+04  0.15527606915E+04  0.00000000000E+00 0.  1.
          2   -1    0    0  501    0  0.00000000000E+00 -0.00000000000E+00 -0.67578011256E+03  0.67578011256E+03  0.00000000000E+00 0. -1.
         23    2    1    2    0    0 -0.68455539735E+03 -0.27674564026E+03 -0.38387023419E+02  0.74415290949E+03  0.84176883354E+02 0.  0.
        254    2    1    2    0    0  0.68455539735E+03  0.27674564026E+03  0.91536760231E+03  0.14843878945E+04  0.90570708984E+03 0.  0.
         23    2    4    4    0    0  0.64309972356E+03 -0.14950946224E+03  0.77790571702E+03  0.10243577796E+04  0.90781178378E+02 0.  0.
         23    2    4    4    0    0  0.41455673795E+02  0.42625510250E+03  0.13746188530E+03  0.46003011491E+03  0.96539895482E+02 0.  0.
          3    1    3    3  502    0 -0.29890615642E+03 -0.13119778773E+03  0.23751370860E+02  0.32729478680E+03  0.00000000000E+00 0. -1.
         -3    1    3    3    0  502 -0.38564924093E+03 -0.14554785253E+03 -0.62138394279E+02  0.41685812269E+03  0.00000000000E+00 0.  1.
         11    1    5    5    0    0  0.61402410794E+03 -0.15119246240E+03  0.71183166801E+03  0.95214972005E+03  0.00000000000E+00 0. -1.
        -11    1    5    5    0    0  0.29075615621E+02  0.16830001609E+01  0.66074049011E+02  0.72208059564E+02  0.00000000000E+00 0.  1.
          3    1    6    6  503    0  0.13717719084E+02  0.40002099635E+03  0.13201197868E+03  0.42146427590E+03  0.00000000000E+00 0. -1.
         -3    1    6    6    0  503  0.27737954711E+02  0.26234106142E+02  0.54499066154E+01  0.38565839013E+02  0.00000000000E+00 0.  1.
<mgrwt>
<rscale>  0 0.20487311E+04</rscale>
<asrwt>0</asrwt>
<pdfrwt beam="1">  1        2 0.10396617E+00 0.20487311E+04</pdfrwt>
<pdfrwt beam="2">  1       -2 0.23888626E+00 0.20487311E+04</pdfrwt>
<totfact> 0.29822654E+00</totfact>
</mgrwt>
</event>
<event>
12    2  0.3555611E-008  0.1695036E+04  0.7818608E-02  0.8764201E-01
          1   -1    0    0  501    0  0.00000000000E+00  0.00000000000E+00  0.14267024444E+04  0.14267024444E+04  0.00000000000E+00 0. -1.
         -1   -1    0    0    0  501 -0.00000000000E+00 -0.00000000000E+00 -0.50345917246E+03  0.50345917246E+03  0.00000000000E+00 0.  1.
         23    2    1    2    0    0  0.16080631606E+03 -0.39161901218E+03 -0.16743897055E+03  0.46473188524E+03  0.93358418530E+02 0.  0.
        254    2    1    2    0    0 -0.16080631606E+03  0.39161901218E+03  0.10906822425E+04  0.14654297317E+04  0.88242417369E+03 0.  0.
         23    2    4    4    0    0 -0.46053361036E+03  0.42249933028E+02  0.34507776467E+03  0.58420649939E+03  0.91336231298E+02 0.  0.
         23    2    4    4    0    0  0.29972729429E+03  0.34936907915E+03  0.74560447786E+03  0.88122323228E+03  0.93451288403E+02 0.  0.
          3    1    3    3  502    0  0.33425243463E+02 -0.18214665660E+03 -0.44443740213E+02  0.19044657376E+03  0.00000000000E+00 0. -1.
         -3    1    3    3    0  502  0.12738107260E+03 -0.20947235558E+03 -0.12299523033E+03  0.27428531148E+03  0.00000000000E+00 0.  1.
         11    1    5    5    0    0 -0.13368388691E+02  0.62587153801E+01  0.37443276972E+02  0.40247786583E+02  0.00000000000E+00 0. -1.
        -11    1    5    5    0    0 -0.44716522167E+03  0.35991217648E+02  0.30763448770E+03  0.54395871280E+03  0.00000000000E+00 0.  1.
          1    1    6    6  503    0  0.94087644349E+00  0.65142847923E+00  0.35836262433E+02  0.35854529877E+02  0.00000000000E+00 0. -1.
         -1    1    6    6    0  503  0.29878641785E+03  0.34871765067E+03  0.70976821542E+03  0.84536870241E+03  0.00000000000E+00 0.  1.
<mgrwt>
<rscale>  0 0.16950356E+04</rscale>
<asrwt>0</asrwt>
<pdfrwt beam="1">  1        1 0.21949268E+00 0.16950356E+04</pdfrwt>
<pdfrwt beam="2">  1       -1 0.77455258E-01 0.16950356E+04</pdfrwt>
<totfact> 0.11703628E+01</totfact>
</mgrwt>
</event>
<event>
12    2  0.3555611E-008  0.1481251E+04  0.7818608E-02  0.8897017E-01
         -1   -1    0    0    0  501 -0.00000000000E+00  0.00000000000E+00  0.91957376092E+03  0.91957376092E+03  0.00000000000E+00 0.  1.
          1   -1    0    0  501    0  0.00000000000E+00 -0.00000000000E+00 -0.59650079199E+03  0.59650079199E+03  0.00000000000E+00 0. -1.
         23    2    1    2    0    0  0.14071498168E+03 -0.21837040590E+03 -0.28869252611E+03  0.39871113136E+03  0.90226666780E+02 0.  0.
        254    2    1    2    0    0 -0.14071498168E+03  0.21837040590E+03  0.61176549505E+03  0.11173634215E+04  0.89819689080E+03 0.  0.
         23    2    4    4    0    0 -0.21018407362E+03  0.51936673436E+03  0.54742380170E+03  0.78867979402E+03  0.91781530044E+02 0.  0.
         23    2    4    4    0    0  0.69469091943E+02 -0.30099632846E+03  0.64341693347E+02  0.32868362753E+03  0.92023524277E+02 0.  0.
          1    1    3    3  502    0  0.92220997297E+02 -0.20423196271E+03 -0.22695146354E+03  0.31893945152E+03  0.00000000000E+00 0. -1.
         -1    1    3    3    0  502  0.48493984383E+02 -0.14138443191E+02 -0.61741062574E+02  0.79771679843E+02  0.00000000000E+00 0.  1.
         11    1    5    5    0    0 -0.83462013508E+02  0.10427658710E+03  0.12037127128E+03  0.17980199461E+03  0.00000000000E+00 0.  1.
        -11    1    5    5    0    0 -0.12672206012E+03  0.41509014726E+03  0.42705253042E+03  0.60887779941E+03  0.00000000000E+00 0. -1.
          2    1    6    6  503    0  0.18512561738E+02 -0.22685512194E+03  0.71128187225E+02  0.23846421180E+03  0.00000000000E+00 0. -1.
         -2    1    6    6    0  503  0.50956530205E+02 -0.74141206523E+02 -0.67864938776E+01  0.90219415728E+02  0.00000000000E+00 0.  1.
<mgrwt>
<rscale>  0 0.14812515E+04</rscale>
<asrwt>0</asrwt>
<pdfrwt beam="1">  1        1 0.91769352E-01 0.14812515E+04</pdfrwt>
<pdfrwt beam="2">  1       -1 0.14147289E+00 0.14812515E+04</pdfrwt>
<totfact> 0.13648025E+01</totfact>
</mgrwt>
</event>
<event>
12    2  0.3555611E-008  0.1211739E+04  0.7818608E-02  0.9102643E-01
          1   -1    0    0  501    0  0.00000000000E+00  0.00000000000E+00  0.63067806862E+03  0.63067806862E+03  0.00000000000E+00 0. -1.
         -1   -1    0    0    0  501 -0.00000000000E+00 -0.00000000000E+00 -0.58203665717E+03  0.58203665717E+03  0.00000000000E+00 0.  1.
         23    2    1    2    0    0  0.12173052150E+03 -0.19184526399E+03  0.14386031610E+03  0.28517935406E+03  0.94913372378E+02 0.  0.
        254    2    1    2    0    0 -0.12173052150E+03  0.19184526399E+03 -0.95218904655E+02  0.92753537173E+03  0.89422161729E+03 0.  0.
         23    2    4    4    0    0  0.15081763742E+03  0.31010068258E+03  0.27025839063E+03  0.44731276093E+03  0.90225912529E+02 0.  0.
         23    2    4    4    0    0 -0.27254815892E+03 -0.11825541860E+03 -0.36547729529E+03  0.48022261079E+03  0.93665679891E+02 0.  0.
          3    1    3    3  502    0  0.12712064221E+03 -0.19347331668E+03  0.12017222009E+03  0.26083125661E+03  0.00000000000E+00 0. -1.
         -3    1    3    3    0  502 -0.53901207164E+01  0.16280526920E+01  0.23688096010E+02  0.24348097451E+02  0.00000000000E+00 0.  1.
         11    1    5    5    0    0  0.13518391707E+03  0.20139435164E+03  0.15364928975E+03  0.28712798635E+03  0.00000000000E+00 0. -1.
        -11    1    5    5    0    0  0.15633720356E+02  0.10870633094E+03  0.11660910088E+03  0.16018477458E+03  0.00000000000E+00 0.  1.
          1    1    6    6  503    0  0.17235576564E+01 -0.12530030393E+02 -0.38596812626E+02  0.40616329937E+02  0.00000000000E+00 0. -1.
         -1    1    6    6    0  503 -0.27427171658E+03 -0.10572538820E+03 -0.32688048266E+03  0.43960628086E+03  0.00000000000E+00 0.  1.
<mgrwt>
<rscale>  0 0.12117388E+04</rscale>
<asrwt>0</asrwt>
<pdfrwt beam="1">  1        1 0.97027395E-01 0.12117388E+04</pdfrwt>
<pdfrwt beam="2">  1       -1 0.89544101E-01 0.12117388E+04</pdfrwt>
<totfact> 0.38490117E+01</totfact>
</mgrwt>
</event>
<event>
12    2  0.3555611E-008  0.1248359E+04  0.7818608E-02  0.9071550E-01
          2   -1    0    0  501    0  0.00000000000E+00  0.00000000000E+00  0.11493474990E+04  0.11493474990E+04  0.00000000000E+00 0. -1.
         -2   -1    0    0    0  501 -0.00000000000E+00 -0.00000000000E+00 -0.33897490009E+03  0.33897490009E+03  0.00000000000E+00 0.  1.
         23    2    1    2    0    0  0.16145116768E+03 -0.21609075073E+03  0.82721745389E+02  0.29636153247E+03  0.90694976005E+02 0.  0.
        254    2    1    2    0    0 -0.16145116768E+03  0.21609075073E+03  0.72765085349E+03  0.11919608666E+04  0.90472827457E+03 0.  0.
         23    2    4    4    0    0  0.34741164220E+03  0.18714710158E+03  0.19841372948E+03  0.45147355284E+03  0.93495850748E+02 0.  0.
         23    2    4    4    0    0 -0.50886280988E+03  0.28943649155E+02  0.52923712402E+03  0.74048731375E+03  0.91926243650E+02 0.  0.
          4    1    3    3  502    0  0.10974787327E+03 -0.19435678552E+03  0.88226556529E+02  0.24000641875E+03  0.00000000000E+00 0. -1.
         -4    1    3    3    0  502  0.51703294412E+02 -0.21733965209E+02 -0.55048111404E+01  0.56355113721E+02  0.00000000000E+00 0.  1.
         11    1    5    5    0    0  0.13225002345E+03  0.59069822295E+02  0.25234092895E+02  0.14702405264E+03  0.00000000000E+00 0.  1.
        -11    1    5    5    0    0  0.21516161875E+03  0.12807727928E+03  0.17317963658E+03  0.30444950021E+03  0.00000000000E+00 0. -1.
          2    1    6    6  503    0 -0.46248189592E+03  0.17498122519E+02  0.51079154819E+03  0.68927766107E+03  0.00000000000E+00 0. -1.
         -2    1    6    6    0  503 -0.46380913961E+02  0.11445526635E+02  0.18445575834E+02  0.51209652681E+02  0.00000000000E+00 0.  1.
<mgrwt>
<rscale>  0 0.12483588E+04</rscale>
<asrwt>0</asrwt>
<pdfrwt beam="1">  1        2 0.17682269E+00 0.12483588E+04</pdfrwt>
<pdfrwt beam="2">  1       -2 0.52149985E-01 0.12483588E+04</pdfrwt>
<totfact> 0.69367986E+01</totfact>
</mgrwt>
</event>
<event>
12    2  0.3555611E-008  0.5029797E+04  0.7818608E-02  0.7823927E-01
         -2   -1    0    0    0  501 -0.00000000000E+00  0.00000000000E+00  0.38928691763E+04  0.38928691763E+04  0.00000000000E+00 0.  1.
          2   -1    0    0  501    0  0.00000000000E+00 -0.00000000000E+00 -0.16246925189E+04  0.16246925189E+04  0.00000000000E+00 0. -1.
         23    2    1    2    0    0 -0.23045120640E+04 -0.10607529193E+03  0.25689000980E+03  0.23223783633E+04  0.73627201621E+02 0.  0.
        254    2    1    2    0    0  0.23045120640E+04  0.10607529193E+03  0.20112866477E+04  0.31951833319E+04  0.91754821382E+03 0.  0.
         23    2    4    4    0    0  0.22577582972E+04  0.26317273478E+03  0.17329641064E+04  0.28597846409E+04  0.92039019714E+02 0.  0.
         23    2    4    4    0    0  0.46753766728E+02 -0.15709744284E+03  0.27832254127E+03  0.33539869098E+03  0.90351113342E+02 0.  0.
          1    1    3    3  502    0 -0.19747743211E+04 -0.68918545383E+02  0.23361311507E+03  0.19897382925E+04  0.00000000000E+00 0. -1.
         -1    1    3    3    0  502 -0.32973774286E+03 -0.37156746550E+02  0.23276894731E+02  0.33264007081E+03  0.00000000000E+00 0.  1.
         11    1    5    5    0    0  0.97873224765E+03  0.10283698889E+03  0.69485065443E+03  0.12047031547E+04  0.00000000000E+00 0. -1.
        -11    1    5    5    0    0  0.12790260496E+04  0.16033574589E+03  0.10381134520E+04  0.16550814862E+04  0.00000000000E+00 0.  1.
          1    1    6    6  503    0  0.52936222788E+02 -0.11532578797E+03  0.26010903527E+03  0.28941145673E+03  0.00000000000E+00 0. -1.
         -1    1    6    6    0  503 -0.61824560602E+01 -0.41771654870E+02  0.18213505995E+02  0.45987234252E+02  0.00000000000E+00 0.  1.
<mgrwt>
<rscale>  0 0.50297974E+04</rscale>
<asrwt>0</asrwt>
<pdfrwt beam="1">  1        2 0.24995270E+00 0.50297974E+04</pdfrwt>
<pdfrwt beam="2">  1       -2 0.59890295E+00 0.50297974E+04</pdfrwt>
<totfact> 0.40668176E-03</totfact>
</mgrwt>
</event>
<event>
12    2  0.3555611E-008  0.2016791E+04  0.7818608E-02  0.8598811E-01
         -1   -1    0    0    0  501 -0.00000000000E+00  0.00000000000E+00  0.53188223434E+03  0.53188223434E+03  0.00000000000E+00 0.  1.
          1   -1    0    0  501    0  0.00000000000E+00 -0.00000000000E+00 -0.19118161686E+04  0.19118161686E+04  0.00000000000E+00 0. -1.
         23    2    1    2    0    0  0.28459991857E+01  0.78524352097E+03 -0.35097826796E+03  0.86636267723E+03  0.10384149931E+03 0.  0.
        254    2    1    2    0    0 -0.28459991857E+01 -0.78524352097E+03 -0.10289556663E+04  0.15773357257E+04  0.90145590102E+03 0.  0.
         23    2    4    4    0    0  0.16362991614E+03  0.14282019947E+03 -0.30988662168E+03  0.38789915075E+03  0.85227190631E+02 0.  0.
         23    2    4    4    0    0 -0.16647591532E+03 -0.92806372043E+03 -0.71906904465E+03  0.11894365750E+04  0.93180337961E+02 0.  0.
          3    1    3    3  502    0  0.11869274963E+02  0.36306180686E+03 -0.21796344216E+03  0.42363051992E+03  0.00000000000E+00 0. -1.
         -3    1    3    3    0  502 -0.90232757776E+01  0.42218171411E+03 -0.13301482580E+03  0.44273215731E+03  0.00000000000E+00 0.  1.
         11    1    5    5    0    0  0.12121491364E+03  0.49831177058E+02 -0.17004951624E+03  0.21469289571E+03  0.00000000000E+00 0. -1.
        -11    1    5    5    0    0  0.42415002498E+02  0.92989022409E+02 -0.13983710544E+03  0.17320625504E+03  0.00000000000E+00 0.  1.
          1    1    6    6  503    0 -0.66353521305E+02 -0.17696478156E+03 -0.12519274520E+03  0.22669924383E+03  0.00000000000E+00 0. -1.
         -1    1    6    6    0  503 -0.10012239402E+03 -0.75109893888E+03 -0.59387629946E+03  0.96273733117E+03  0.00000000000E+00 0.  1.
<mgrwt>
<rscale>  0 0.20167906E+04</rscale>
<asrwt>0</asrwt>
<pdfrwt beam="1">  1        1 0.29412557E+00 0.20167906E+04</pdfrwt>
<pdfrwt beam="2">  1       -1 0.81828035E-01 0.20167906E+04</pdfrwt>
<totfact> 0.47084646E+00</totfact>
</mgrwt>
</event>
<event>
12    2  0.3555611E-008  0.2165051E+04  0.7818608E-02  0.8533117E-01
          1   -1    0    0  501    0  0.00000000000E+00  0.00000000000E+00  0.18558986370E+04  0.18558986370E+04  0.00000000000E+00 0. -1.
         -1   -1    0    0    0  501 -0.00000000000E+00 -0.00000000000E+00 -0.63142561690E+03  0.63142561690E+03  0.00000000000E+00 0.  1.
         23    2    1    2    0    0  0.73439808151E+03  0.43263819360E+03  0.19532453923E+03  0.87919431196E+03  0.91184504479E+02 0.  0.
        254    2    1    2    0    0 -0.73439808151E+03 -0.43263819360E+03  0.10291484809E+04  0.16081299419E+04  0.89466136936E+03 0.  0.
         23    2    4    4    0    0 -0.70219470629E+01 -0.49203953565E+03  0.41588711820E+03  0.65059553142E+03  0.90334035858E+02 0.  0.
         23    2    4    4    0    0 -0.72737613445E+03  0.59401342054E+02  0.61326136266E+03  0.95753441052E+03  0.90432781611E+02 0.  0.
          2    1    3    3  502    0  0.17868806826E+02  0.25912231239E+02 -0.33728721105E+01  0.31656188202E+02  0.00000000000E+00 0. -1.
         -2    1    3    3    0  502  0.71652927469E+03  0.40672596236E+03  0.19869741134E+03  0.84753812376E+03  0.00000000000E+00 0.  1.
         11    1    5    5    0    0  0.15148622765E+02 -0.42703885554E+03  0.38547794981E+03  0.57548667639E+03  0.00000000000E+00 0.  1.
        -11    1    5    5    0    0 -0.22170569828E+02 -0.65000680118E+02  0.30409168385E+02  0.75108855032E+02  0.00000000000E+00 0. -1.
          2    1    6    6  503    0 -0.94308194223E+02  0.64253609304E+01  0.42996069886E+02  0.10384595701E+03  0.00000000000E+00 0. -1.
         -2    1    6    6    0  503 -0.63306794023E+03  0.52975981124E+02  0.57026529277E+03  0.85368845351E+03  0.00000000000E+00 0.  1.
<mgrwt>
<rscale>  0 0.21650514E+04</rscale>
<asrwt>0</asrwt>
<pdfrwt beam="1">  1        1 0.28552286E+00 0.21650514E+04</pdfrwt>
<pdfrwt beam="2">  1       -1 0.97142404E-01 0.21650514E+04</pdfrwt>
<totfact> 0.34752218E+00</totfact>
</mgrwt>
</event>
<event>
12    2  0.3555611E-008  0.1516902E+04  0.7818608E-02  0.8873290E-01
          2   -1    0    0  501    0  0.00000000000E+00  0.00000000000E+00  0.16400949622E+04  0.16400949622E+04  0.00000000000E+00 0. -1.
         -2   -1    0    0    0  501 -0.00000000000E+00 -0.00000000000E+00 -0.35074062082E+03  0.35074062082E+03  0.00000000000E+00 0.  1.
         23    2    1    2    0    0  0.14758947759E+03 -0.43311117624E+02 -0.15563021798E+03  0.23675326065E+03  0.90403732638E+02 0.  0.
        254    2    1    2    0    0 -0.14758947759E+03  0.43311117624E+02  0.14449845593E+04  0.17540823223E+04  0.98242857757E+03 0.  0.
         23    2    4    4    0    0 -0.50791733951E+03 -0.88976521756E+02  0.47683339804E+03  0.70811877894E+03  0.90361885786E+02 0.  0.
         23    2    4    4    0    0  0.36032786192E+03  0.13228763938E+03  0.96815116128E+03  0.10459635434E+04  0.96885888542E+02 0.  0.
          1    1    3    3  502    0  0.15100123885E+02 -0.37349038652E+02 -0.13819768544E+02  0.42590496970E+02  0.00000000000E+00 0. -1.
         -1    1    3    3    0  502  0.13248935370E+03 -0.59620789729E+01 -0.14181044943E+03  0.19416276368E+03  0.00000000000E+00 0.  1.
         11    1    5    5    0    0 -0.34501161350E+03 -0.33182613518E+02  0.27244905790E+03  0.44086572609E+03  0.00000000000E+00 0. -1.
        -11    1    5    5    0    0 -0.16290572601E+03 -0.55793908238E+02  0.20438434014E+03  0.26725305285E+03  0.00000000000E+00 0.  1.
          4    1    6    6  503    0  0.70403780490E+02 -0.45959571092E+00  0.25940973652E+03  0.26879418695E+03  0.00000000000E+00 0.  1.
         -4    1    6    6    0  503  0.28992408143E+03  0.13274723509E+03  0.70874142476E+03  0.77716935644E+03  0.00000000000E+00 0. -1.
<mgrwt>
<rscale>  0 0.15169020E+04</rscale>
<asrwt>0</asrwt>
<pdfrwt beam="1">  1        2 0.25232230E+00 0.15169020E+04</pdfrwt>
<pdfrwt beam="2">  1       -2 0.53960096E-01 0.15169020E+04</pdfrwt>
<totfact> 0.33053610E+01</totfact>
</mgrwt>
</event>
<event>
12    2  0.3555611E-008  0.1906284E+04  0.7818608E-02  0.8651735E-01
         -2   -1    0    0    0  501 -0.00000000000E+00  0.00000000000E+00  0.14294459537E+04  0.14294459537E+04  0.00000000000E+00 0.  1.
          2   -1    0    0  501    0  0.00000000000E+00 -0.00000000000E+00 -0.63554655704E+03  0.63554655704E+03  0.00000000000E+00 0. -1.
         23    2    1    2    0    0  0.58244083196E+03  0.32723387218E+03 -0.32529957532E+02  0.67508965800E+03  0.91479606268E+02 0.  0.
        254    2    1    2    0    0 -0.58244083196E+03 -0.32723387218E+03  0.82642935419E+03  0.13899028527E+04  0.89583767098E+03 0.  0.
         23    2    4    4    0    0 -0.80000581072E+03 -0.14280534318E+03  0.60146767906E+03  0.10154227104E+04  0.94431184282E+02 0.  0.
         23    2    4    4    0    0  0.21756497875E+03 -0.18442852900E+03  0.22496167513E+03  0.37448014236E+03  0.90990216284E+02 0.  0.
          3    1    3    3  502    0  0.54996048117E+01  0.12406324620E+02  0.93925345470E+01  0.16504007055E+02  0.00000000000E+00 0. -1.
         -3    1    3    3    0  502  0.57694122715E+03  0.31482754756E+03 -0.41922492079E+02  0.65858565094E+03  0.00000000000E+00 0.  1.
         11    1    5    5    0    0 -0.77214398476E+03 -0.15047093340E+03  0.59352448178E+03  0.98545377643E+03  0.00000000000E+00 0.  1.
        -11    1    5    5    0    0 -0.27861825952E+02  0.76655902172E+01  0.79431972841E+01  0.29968933946E+02  0.00000000000E+00 0. -1.
          1    1    6    6  503    0  0.75623602191E+02 -0.10603027144E+03  0.14076393577E+03  0.19177026173E+03  0.00000000000E+00 0. -1.
         -1    1    6    6    0  503  0.14194137656E+03 -0.78398257562E+02  0.84197739357E+02  0.18270988064E+03  0.00000000000E+00 0.  1.
<mgrwt>
<rscale>  0 0.19062838E+04</rscale>
<asrwt>0</asrwt>
<pdfrwt beam="1">  1        2 0.97776394E-01 0.19062838E+04</pdfrwt>
<pdfrwt beam="2">  1       -2 0.21991476E+00 0.19062838E+04</pdfrwt>
<totfact> 0.42797579E+00</totfact>
</mgrwt>
</event>
<event>
12    2  0.3555611E-008  0.1921944E+04  0.7818608E-02  0.8644010E-01
          2   -1    0    0  501    0  0.00000000000E+00  0.00000000000E+00  0.65175758205E+03  0.65175758205E+03  0.00000000000E+00 0. -1.
         -2   -1    0    0    0  501 -0.00000000000E+00 -0.00000000000E+00 -0.14168872412E+04  0.14168872412E+04  0.00000000000E+00 0.  1.
         23    2    1    2    0    0  0.30054173771E+03 -0.24346243297E+03 -0.98205156625E+03  0.10594863161E+04  0.92123193670E+02 0.  0.
        254    2    1    2    0    0 -0.30054173771E+03  0.24346243297E+03  0.21692190709E+03  0.10091585072E+04  0.90650233671E+03 0.  0.
         23    2    4    4    0    0  0.10962761421E+03 -0.10527551851E+01 -0.27988522317E+03  0.31403981214E+03  0.90917233608E+02 0.  0.
         23    2    4    4    0    0 -0.41016935192E+03  0.24451518815E+03  0.49680713026E+03  0.69511869505E+03  0.91356997696E+02 0.  0.
          2    1    3    3  502    0  0.43971092759E+02 -0.52399365073E+01 -0.15928145153E+03  0.16532239635E+03  0.00000000000E+00 0. -1.
         -2    1    3    3    0  502  0.25657064495E+03 -0.23822249646E+03 -0.82277011472E+03  0.89416391973E+03  0.00000000000E+00 0.  1.
         11    1    5    5    0    0  0.82930185953E+02 -0.36725354930E+02 -0.13645242798E+03  0.16384575838E+03  0.00000000000E+00 0. -1.
        -11    1    5    5    0    0  0.26697428255E+02  0.35672599745E+02 -0.14343279520E+03  0.15019405376E+03  0.00000000000E+00 0.  1.
          3    1    6    6  503    0 -0.36825486723E+03  0.23624451891E+03  0.41604189653E+03  0.60374993137E+03  0.00000000000E+00 0. -1.
         -3    1    6    6    0  503 -0.41914484691E+02  0.82706692421E+01  0.80765233732E+02  0.91368763681E+02  0.00000000000E+00 0.  1.
<mgrwt>
<rscale>  0 0.19219438E+04</rscale>
<asrwt>0</asrwt>
<pdfrwt beam="1">  1        2 0.10027040E+00 0.19219438E+04</pdfrwt>
<pdfrwt beam="2">  1       -2 0.21798265E+00 0.19219438E+04</pdfrwt>
<totfact> 0.42621112E+00</totfact>
</mgrwt>
</event>
<event>
12    2  0.3555611E-008  0.2023716E+04  0.7818608E-02  0.8595612E-01
         -2   -1    0    0    0  501 -0.00000000000E+00  0.00000000000E+00  0.30661797082E+03  0.30661797082E+03  0.00000000000E+00 0.  1.
          2   -1    0    0  501    0  0.00000000000E+00 -0.00000000000E+00 -0.33391946805E+04  0.33391946805E+04  0.00000000000E+00 0. -1.
         23    2    1    2    0    0  0.43625087067E+03 -0.46127293429E+03 -0.32361955139E+03  0.72152368728E+03  0.11304545633E+03 0.  0.
        254    2    1    2    0    0 -0.43625087067E+03  0.46127293429E+03 -0.27089571583E+04  0.29242889640E+04  0.89996084233E+03 0.  0.
         23    2    4    4    0    0  0.58570062141E+02  0.23958987790E+03 -0.14047064590E+03  0.29755875023E+03  0.89305350929E+02 0.  0.
         23    2    4    4    0    0 -0.49482093281E+03  0.22168305639E+03 -0.25684865124E+04  0.26267302138E+04  0.92722806410E+02 0.  0.
          4    1    3    3  502    0  0.80106921261E+02 -0.10228310706E+03 -0.11843786501E+03  0.17580239104E+03  0.00000000000E+00 0. -1.
         -4    1    3    3    0  502  0.35614394941E+03 -0.35898982723E+03 -0.20518168638E+03  0.54572129625E+03  0.00000000000E+00 0.  1.
         11    1    5    5    0    0  0.50377962158E+01  0.16437937797E+03 -0.59894628786E+02  0.17502378653E+03  0.00000000000E+00 0.  1.
        -11    1    5    5    0    0  0.53532265926E+02  0.75210499931E+02 -0.80576017113E+02  0.12253496370E+03  0.00000000000E+00 0. -1.
          1    1    6    6  503    0 -0.63866864861E+02  0.53461563412E+01 -0.21487548436E+03  0.22422986330E+03  0.00000000000E+00 0. -1.
         -1    1    6    6    0  503 -0.43095406795E+03  0.21633690005E+03 -0.23536110280E+04  0.24025003505E+04  0.00000000000E+00 0.  1.
<mgrwt>
<rscale>  0 0.20237165E+04</rscale>
<asrwt>0</asrwt>
<pdfrwt beam="1">  1        2 0.51372226E+00 0.20237165E+04</pdfrwt>
<pdfrwt beam="2">  1       -2 0.47171996E-01 0.20237165E+04</pdfrwt>
<totfact> 0.41584632E+00</totfact>
</mgrwt>
</event>
<event>
12    2  0.3555611E-008  0.2796483E+04  0.7818608E-02  0.8304361E-01
         -2   -1    0    0    0  501 -0.00000000000E+00  0.00000000000E+00  0.65495284414E+03  0.65495284414E+03  0.00000000000E+00 0.  1.
          2   -1    0    0  501    0  0.00000000000E+00 -0.00000000000E+00 -0.29850697730E+04  0.29850697730E+04  0.00000000000E+00 0. -1.
         23    2    1    2    0    0 -0.11396616796E+04  0.32150632747E+02 -0.17370304957E+04  0.20793326357E+04  0.80541046202E+02 0.  0.
        254    2    1    2    0    0  0.11396616796E+04 -0.32150632747E+02 -0.59308643321E+03  0.15606899814E+04  0.88551639949E+03 0.  0.
         23    2    4    4    0    0 -0.98199362486E+02 -0.12366301037E+03 -0.16456587429E+03  0.24448830209E+03  0.88073537184E+02 0.  0.
         23    2    4    4    0    0  0.12378610420E+04  0.91512377627E+02 -0.42852055892E+03  0.13162016793E+04  0.89902817205E+02 0.  0.
          3    1    3    3  502    0 -0.11266773616E+04  0.40673357572E+02 -0.17145774164E+04  0.20520311684E+04  0.00000000000E+00 0. -1.
         -3    1    3    3    0  502 -0.12984317912E+02 -0.85227248253E+01 -0.22453079264E+02  0.27301467333E+02  0.00000000000E+00 0.  1.
         11    1    5    5    0    0  0.60481333502E+01 -0.40451027128E+02 -0.13750671121E+02  0.43150277740E+02  0.00000000000E+00 0. -1.
        -11    1    5    5    0    0 -0.10424749584E+03 -0.83211983246E+02 -0.15081520317E+03  0.20133802435E+03  0.00000000000E+00 0.  1.
          2    1    6    6  503    0  0.20931693685E+03 -0.16780514039E+02 -0.82708210144E+02  0.22568964027E+03  0.00000000000E+00 0. -1.
         -2    1    6    6    0  503  0.10285441052E+04  0.10829289167E+03 -0.34581234878E+03  0.10905120390E+04  0.00000000000E+00 0.  1.
<mgrwt>
<rscale>  0 0.27964835E+04</rscale>
<asrwt>0</asrwt>
<pdfrwt beam="1">  1        2 0.45924151E+00 0.27964835E+04</pdfrwt>
<pdfrwt beam="2">  1       -2 0.10076198E+00 0.27964835E+04</pdfrwt>
<totfact> 0.12556831E+00</totfact>
</mgrwt>
</event>
<event>
12    2  0.3555611E-008  0.2114870E+04  0.7818608E-02  0.8554721E-01
         -1   -1    0    0    0  501 -0.00000000000E+00  0.00000000000E+00  0.44067473478E+03  0.44067473478E+03  0.00000000000E+00 0.  1.
          1   -1    0    0  501    0  0.00000000000E+00 -0.00000000000E+00 -0.25374011676E+04  0.25374011676E+04  0.00000000000E+00 0. -1.
         23    2    1    2    0    0  0.16895640914E+03 -0.24710322590E+03  0.27866538869E+03  0.41917060716E+03  0.91887575973E+02 0.  0.
        254    2    1    2    0    0 -0.16895640914E+03  0.24710322590E+03 -0.23753918215E+04  0.25589052952E+04  0.90327389633E+03 0.  0.
         23    2    4    4    0    0  0.14940389874E+03  0.50203659004E+03 -0.12728498507E+04  0.13793837677E+04  0.90501786911E+02 0.  0.
         23    2    4    4    0    0 -0.31836030788E+03 -0.25493336414E+03 -0.11025419709E+04  0.11795215276E+04  0.96581213149E+02 0.  0.
          3    1    3    3  502    0  0.69171624993E+02 -0.64784487493E+02  0.14094034415E+03  0.16984087887E+03  0.00000000000E+00 0. -1.
         -3    1    3    3    0  502  0.99784784147E+02 -0.18231873840E+03  0.13772504454E+03  0.24932972830E+03  0.00000000000E+00 0.  1.
         11    1    5    5    0    0  0.10745601892E+03  0.22098168791E+03 -0.64496065587E+03  0.69018399722E+03  0.00000000000E+00 0.  1.
        -11    1    5    5    0    0  0.41947879824E+02  0.28105490213E+03 -0.62788919480E+03  0.68919977044E+03  0.00000000000E+00 0. -1.
          1    1    6    6  503    0 -0.81708024992E+02 -0.46982458762E+02 -0.15969365918E+03  0.18543359340E+03  0.00000000000E+00 0.  1.
         -1    1    6    6    0  503 -0.23665228289E+03 -0.20795090538E+03 -0.94284831169E+03  0.99408793419E+03  0.00000000000E+00 0. -1.
<mgrwt>
<rscale>  0 0.21148698E+04</rscale>
<asrwt>0</asrwt>
<pdfrwt beam="1">  1        1 0.39036941E+00 0.21148698E+04</pdfrwt>
<pdfrwt beam="2">  1       -1 0.67796114E-01 0.21148698E+04</pdfrwt>
<totfact> 0.25825983E+00</totfact>
</mgrwt>
</event>
<event>
12    2  0.3555611E-008  0.1194710E+04  0.7818608E-02  0.9117499E-01
          1   -1    0    0  501    0  0.00000000000E+00  0.00000000000E+00  0.16994818444E+04  0.16994818444E+04  0.00000000000E+00 0. -1.
         -1   -1    0    0    0  501 -0.00000000000E+00 -0.00000000000E+00 -0.20996585226E+03  0.20996585226E+03  0.00000000000E+00 0.  1.
         23    2    1    2    0    0 -0.65054817609E+02 -0.85514166862E+02 -0.27874323811E+02  0.14449013369E+03  0.92496587926E+02 0.  0.
        254    2    1    2    0    0  0.65054817609E+02  0.85514166862E+02  0.15173903160E+04  0.17649575630E+04  0.89501789152E+03 0.  0.
         23    2    4    4    0    0  0.44906096612E+03  0.46932681993E+02  0.54010348157E+03  0.71014220632E+03  0.93443857267E+02 0.  0.
         23    2    4    4    0    0 -0.38400614851E+03  0.38581484869E+02  0.97728683438E+03  0.10548153567E+04  0.92717996752E+02 0.  0.
          2    1    3    3  502    0 -0.26855878028E+02  0.11473657457E+02  0.13710361689E+02  0.32262315752E+02  0.00000000000E+00 0. -1.
         -2    1    3    3    0  502 -0.38198939581E+02 -0.96987824318E+02 -0.41584685499E+02  0.11222781794E+03  0.00000000000E+00 0.  1.
         11    1    5    5    0    0  0.37518073872E+03  0.28223129922E+02  0.49438795867E+03  0.62127013886E+03  0.00000000000E+00 0. -1.
        -11    1    5    5    0    0  0.73880227401E+02  0.18709552071E+02  0.45715522901E+02  0.88872067455E+02  0.00000000000E+00 0.  1.
          2    1    6    6  503    0 -0.27017497516E+03 -0.12361751261E+02  0.62123452479E+03  0.67755417856E+03  0.00000000000E+00 0. -1.
         -2    1    6    6    0  503 -0.11383117335E+03  0.50943236129E+02  0.35605230960E+03  0.37726117810E+03  0.00000000000E+00 0.  1.
<mgrwt>
<rscale>  0 0.11947103E+04</rscale>
<asrwt>0</asrwt>
<pdfrwt beam="1">  1        1 0.26145874E+00 0.11947103E+04</pdfrwt>
<pdfrwt beam="2">  1       -1 0.32302440E-01 0.11947103E+04</pdfrwt>
<totfact> 0.42302713E+01</totfact>
</mgrwt>
</event>
<event>
12    2  0.3555611E-008  0.2068994E+04  0.7818608E-02  0.8575026E-01
         -1   -1    0    0    0  501 -0.00000000000E+00  0.00000000000E+00  0.87168248282E+03  0.87168248282E+03  0.00000000000E+00 0. -1.
          1   -1    0    0  501    0  0.00000000000E+00 -0.00000000000E+00 -0.12277222408E+04  0.12277222408E+04  0.00000000000E+00 0.  1.
         23    2    1    2    0    0 -0.78552539450E+03  0.12697195468E+03 -0.37464110101E+03  0.88440655677E+03  0.92989141308E+02 0.  0.
        254    2    1    2    0    0  0.78552539450E+03 -0.12697195468E+03  0.18601342986E+02  0.12149981669E+04  0.91798829672E+03 0.  0.
         23    2    4    4    0    0  0.25905635863E+03 -0.42823905941E+03  0.24142070107E+03  0.56234355832E+03  0.86298515234E+02 0.  0.
         23    2    4    4    0    0  0.52646903587E+03  0.30126710473E+03 -0.22281935808E+03  0.65265460857E+03  0.91531730224E+02 0.  0.
          2    1    3    3  502    0 -0.15666948052E+03  0.16319658597E+02 -0.11541703370E+03  0.19527608418E+03  0.00000000000E+00 0. -1.
         -2    1    3    3    0  502 -0.62885591399E+03  0.11065229608E+03 -0.25922406732E+03  0.68913047259E+03  0.00000000000E+00 0.  1.
         11    1    5    5    0    0  0.25755548922E+03 -0.40471559200E+03  0.24473655384E+03  0.53854017605E+03  0.00000000000E+00 0. -1.
        -11    1    5    5    0    0  0.15008694102E+01 -0.23523467407E+02 -0.33158527731E+01  0.23803382269E+02  0.00000000000E+00 0.  1.
          2    1    6    6  503    0  0.51574680730E+03  0.30804176744E+03 -0.21743651869E+03  0.63887646646E+03  0.00000000000E+00 0. -1.
         -2    1    6    6    0  503  0.10722228567E+02 -0.67746627143E+01 -0.53828393874E+01  0.13778142118E+02  0.00000000000E+00 0.  1.
<mgrwt>
<rscale>  0 0.20689939E+04</rscale>
<asrwt>0</asrwt>
<pdfrwt beam="1">  1        1 0.18888035E+00 0.20689939E+04</pdfrwt>
<pdfrwt beam="2">  1       -1 0.13410500E+00 0.20689939E+04</pdfrwt>
<totfact> 0.44073722E+00</totfact>
</mgrwt>
</event>
<event>
12    2  0.3555611E-008  0.2086775E+04  0.7818608E-02  0.8567092E-01
         -2   -1    0    0    0  501 -0.00000000000E+00  0.00000000000E+00  0.58084356390E+03  0.58084356390E+03  0.00000000000E+00 0.  1.
          2   -1    0    0  501    0  0.00000000000E+00 -0.00000000000E+00 -0.18742693258E+04  0.18742693258E+04  0.00000000000E+00 0. -1.
         23    2    1    2    0    0  0.81909314156E+03 -0.14166412285E+03 -0.74441144182E+03  0.11195744751E+04  0.91193817836E+02 0.  0.
        254    2    1    2    0    0 -0.81909314156E+03  0.14166412285E+03 -0.54901432004E+03  0.13355384145E+04  0.88953012023E+03 0.  0.
         23    2    4    4    0    0 -0.75646796453E+02 -0.31727930768E+03 -0.12815929133E+03  0.36183200789E+03  0.90049992139E+02 0.  0.
         23    2    4    4    0    0 -0.74344634511E+03  0.45894343054E+03 -0.42085502871E+03  0.97370640663E+03  0.87428088353E+02 0.  0.
          1    1    3    3  502    0  0.52855485763E+03 -0.11757413771E+03 -0.43610345846E+03  0.69525545080E+03  0.00000000000E+00 0. -1.
         -1    1    3    3    0  502  0.29053828393E+03 -0.24089985139E+02 -0.30830798335E+03  0.42431902434E+03  0.00000000000E+00 0.  1.
         11    1    5    5    0    0 -0.88506027654E+01 -0.15972803067E+03 -0.99307915285E+02  0.18829083618E+03  0.00000000000E+00 0. -1.
        -11    1    5    5    0    0 -0.66796193687E+02 -0.15755127702E+03 -0.28851376041E+02  0.17354117171E+03  0.00000000000E+00 0.  1.
          1    1    6    6  503    0 -0.50444702324E+03  0.33518576417E+03 -0.32950759451E+03  0.68948643974E+03  0.00000000000E+00 0. -1.
         -1    1    6    6    0  503 -0.23899932187E+03  0.12375766637E+03 -0.91347434196E+02  0.28421996689E+03  0.00000000000E+00 0.  1.
<mgrwt>
<rscale>  0 0.20867748E+04</rscale>
<asrwt>0</asrwt>
<pdfrwt beam="1">  1        2 0.28834912E+00 0.20867748E+04</pdfrwt>
<pdfrwt beam="2">  1       -2 0.89360550E-01 0.20867748E+04</pdfrwt>
<totfact> 0.77772943E+00</totfact>
</mgrwt>
</event>
<event>
12    2  0.3555611E-008  0.2159764E+04  0.7818608E-02  0.8535364E-01
          2   -1    0    0  501    0  0.00000000000E+00  0.00000000000E+00  0.19556320470E+04  0.19556320470E+04  0.00000000000E+00 0. -1.
         -2   -1    0    0    0  501 -0.00000000000E+00 -0.00000000000E+00 -0.59630086038E+03  0.59630086038E+03  0.00000000000E+00 0.  1.
         23    2    1    2    0    0  0.29393573537E+03  0.21734975263E+03  0.15300896016E+04  0.15757662819E+04  0.90697600498E+02 0.  0.
        254    2    1    2    0    0 -0.29393573537E+03 -0.21734975263E+03 -0.17075841492E+03  0.97616662554E+03  0.88887778297E+03 0.  0.
         23    2    4    4    0    0 -0.14817936755E+03 -0.52610271890E+03  0.55346000898E+02  0.55677356849E+03  0.90512048703E+02 0.  0.
         23    2    4    4    0    0 -0.14575636783E+03  0.30875296626E+03 -0.22610441582E+03  0.41939305705E+03  0.90520807034E+02 0.  0.
          4    1    3    3  502    0  0.25882317881E+03  0.21760951729E+03  0.13123892618E+04  0.13552523435E+04  0.00000000000E+00 0. -1.
         -4    1    3    3    0  502  0.35112556565E+02 -0.25976465488E+00  0.21770033974E+03  0.22051393840E+03  0.00000000000E+00 0.  1.
         11    1    5    5    0    0 -0.95181985444E+02 -0.31856781483E+03  0.77620785087E+02  0.34142356286E+03  0.00000000000E+00 0. -1.
        -11    1    5    5    0    0 -0.52997382103E+02 -0.20753490406E+03 -0.22274784188E+02  0.21535000563E+03  0.00000000000E+00 0.  1.
          1    1    6    6  503    0  0.13702997058E+01  0.93583890705E+01  0.75584120919E+01  0.12107301955E+02  0.00000000000E+00 0. -1.
         -1    1    6    6    0  503 -0.14712666753E+03  0.29939457719E+03 -0.23366282791E+03  0.40728575509E+03  0.00000000000E+00 0.  1.
<mgrwt>
<rscale>  0 0.21597639E+04</rscale>
<asrwt>0</asrwt>
<pdfrwt beam="1">  1        2 0.30086647E+00 0.21597639E+04</pdfrwt>
<pdfrwt beam="2">  1       -2 0.91738595E-01 0.21597639E+04</pdfrwt>
<totfact> 0.65563460E+00</totfact>
</mgrwt>
</event>
<event>
12    2  0.3555611E-008  0.1601311E+04  0.7818608E-02  0.8819743E-01
          2   -1    0    0  501    0  0.00000000000E+00  0.00000000000E+00  0.10091647412E+04  0.10091647412E+04  0.00000000000E+00 0. -1.
         -2   -1    0    0    0  501 -0.00000000000E+00 -0.00000000000E+00 -0.63522779495E+03  0.63522779495E+03  0.00000000000E+00 0.  1.
         23    2    1    2    0    0  0.39645592073E+02  0.40878009649E+03 -0.16213750808E+03  0.44958063661E+03  0.84624092503E+02 0.  0.
        254    2    1    2    0    0 -0.39645592073E+02 -0.40878009649E+03  0.53607445431E+03  0.11948118995E+04  0.98566054726E+03 0.  0.
         23    2    4    4    0    0 -0.18012225989E+03  0.22119176294E+03  0.44612509930E+03  0.53722433555E+03  0.90623164711E+02 0.  0.
         23    2    4    4    0    0  0.14047666781E+03 -0.62997185943E+03  0.89949355017E+02  0.65758756398E+03  0.87933383610E+02 0.  0.
          4    1    3    3  502    0  0.56671256091E+01  0.15554049630E+03 -0.19243008685E+02  0.15682874636E+03  0.00000000000E+00 0. -1.
         -4    1    3    3    0  502  0.33978466464E+02  0.25323960019E+03 -0.14289449940E+03  0.29275189025E+03  0.00000000000E+00 0.  1.
         11    1    5    5    0    0 -0.23951892140E+02  0.68963129460E+02  0.17255217468E+03  0.18736023951E+03  0.00000000000E+00 0. -1.
        -11    1    5    5    0    0 -0.15617036775E+03  0.15222863348E+03  0.27357292462E+03  0.34986409604E+03  0.00000000000E+00 0.  1.
          1    1    6    6  503    0  0.37803490751E+02 -0.11295057160E+03 -0.15230907203E+02  0.12007879110E+03  0.00000000000E+00 0. -1.
         -1    1    6    6    0  503  0.10267317706E+03 -0.51702128783E+03  0.10518026222E+03  0.53750877287E+03  0.00000000000E+00 0.  1.
<mgrwt>
<rscale>  0 0.16013113E+04</rscale>
<asrwt>0</asrwt>
<pdfrwt beam="1">  1        2 0.15525611E+00 0.16013113E+04</pdfrwt>
<pdfrwt beam="2">  1       -2 0.97727353E-01 0.16013113E+04</pdfrwt>
<totfact> 0.20783295E+01</totfact>
</mgrwt>
</event>
<event>
12    2  0.3555611E-008  0.3360451E+04  0.7818608E-02  0.8147682E-01
          1   -1    0    0  501    0  0.00000000000E+00  0.00000000000E+00  0.17906640803E+04  0.17906640803E+04  0.00000000000E+00 0. -1.
         -1   -1    0    0    0  501 -0.00000000000E+00 -0.00000000000E+00 -0.15765982317E+04  0.15765982317E+04  0.00000000000E+00 0.  1.
         23    2    1    2    0    0  0.16856784667E+03 -0.12771981517E+04  0.97304405282E+03  0.16185253951E+04  0.11471481248E+03 0.  0.
        254    2    1    2    0    0 -0.16856784667E+03  0.12771981517E+04 -0.75897820414E+03  0.17487369169E+04  0.90685315918E+03 0.  0.
         23    2    4    4    0    0 -0.33506666365E+03  0.33913909000E+03 -0.61076456639E+03  0.78009735978E+03  0.90738876531E+02 0.  0.
         23    2    4    4    0    0  0.16649881698E+03  0.93805906174E+03 -0.14821363775E+03  0.96863955709E+03  0.92836683380E+02 0.  0.
          1    1    3    3  502    0  0.10720885930E+03 -0.10122590574E+04  0.71777247582E+03  0.12455358147E+04  0.00000000000E+00 0. -1.
         -1    1    3    3    0  502  0.61358987373E+02 -0.26493909436E+03  0.25527157700E+03  0.37298958039E+03  0.00000000000E+00 0.  1.
         11    1    5    5    0    0 -0.25962824587E+03  0.22404029310E+03 -0.38395964777E+03  0.51480665312E+03  0.00000000000E+00 0. -1.
        -11    1    5    5    0    0 -0.75438417784E+02  0.11509879691E+03 -0.22680491862E+03  0.26529070666E+03  0.00000000000E+00 0.  1.
          2    1    6    6  503    0  0.10197527233E+03  0.46071883900E+03 -0.11578815549E+03  0.48586798796E+03  0.00000000000E+00 0. -1.
         -2    1    6    6    0  503  0.64523544645E+02  0.47734022274E+03 -0.32425482267E+02  0.48277156913E+03  0.00000000000E+00 0.  1.
<mgrwt>
<rscale>  0 0.33604511E+04</rscale>
<asrwt>0</asrwt>
<pdfrwt beam="1">  1        1 0.27548678E+00 0.33604511E+04</pdfrwt>
<pdfrwt beam="2">  1       -1 0.24255357E+00 0.33604511E+04</pdfrwt>
<totfact> 0.26618503E-01</totfact>
</mgrwt>
</event>
<event>
12    2  0.3555611E-008  0.2576668E+04  0.7818608E-02  0.8376170E-01
          1   -1    0    0  501    0  0.00000000000E+00  0.00000000000E+00  0.11523280761E+04  0.11523280761E+04  0.00000000000E+00 0. -1.
         -1   -1    0    0    0  501 -0.00000000000E+00 -0.00000000000E+00 -0.14403923587E+04  0.14403923587E+04  0.00000000000E+00 0.  1.
         23    2    1    2    0    0 -0.57365828879E+03 -0.83967690257E+03 -0.64519996199E+03  0.12079480132E+04  0.93350300907E+02 0.  0.
        254    2    1    2    0    0  0.57365828879E+03  0.83967690257E+03  0.35713567942E+03  0.13847724215E+04  0.86942948702E+03 0.  0.
         23    2    4    4    0    0  0.12749416470E+03 -0.49576737052E+02  0.34918330069E+03  0.38568518081E+03  0.90063679315E+02 0.  0.
         23    2    4    4    0    0  0.44616412409E+03  0.88925363962E+03  0.79523787332E+01  0.99908724071E+03  0.90981388330E+02 0.  0.
          4    1    3    3  502    0 -0.44620007092E+03 -0.69350575152E+03 -0.55532090385E+03  0.99419617628E+03  0.00000000000E+00 0.  1.
         -4    1    3    3    0  502 -0.12745821787E+03 -0.14617115105E+03 -0.89879058143E+02  0.21375183694E+03  0.00000000000E+00 0. -1.
         11    1    5    5    0    0  0.64225504925E+01  0.80797181158E+01  0.11780062534E+03  0.11825192738E+03  0.00000000000E+00 0.  1.
        -11    1    5    5    0    0  0.12107161421E+03 -0.57656455168E+02  0.23138267535E+03  0.26743325343E+03  0.00000000000E+00 0. -1.
          4    1    6    6  503    0  0.39511219158E+03  0.81436719404E+03  0.30580425079E+02  0.90567253081E+03  0.00000000000E+00 0. -1.
         -4    1    6    6    0  503  0.51051932512E+02  0.74886445573E+02 -0.22628046346E+02  0.93414709898E+02  0.00000000000E+00 0.  1.
<mgrwt>
<rscale>  0 0.25766680E+04</rscale>
<asrwt>0</asrwt>
<pdfrwt beam="1">  1        1 0.17728124E+00 0.25766680E+04</pdfrwt>
<pdfrwt beam="2">  1       -1 0.22159882E+00 0.25766680E+04</pdfrwt>
<totfact> 0.10978506E+00</totfact>
</mgrwt>
</event>
<event>
12    2  0.3555611E-008  0.2157061E+04  0.7818608E-02  0.8536516E-01
          2   -1    0    0  501    0  0.00000000000E+00  0.00000000000E+00  0.26218863140E+04  0.26218863140E+04  0.00000000000E+00 0. -1.
         -2   -1    0    0    0  501 -0.00000000000E+00 -0.00000000000E+00 -0.44366071363E+03  0.44366071363E+03  0.00000000000E+00 0.  1.
         23    2    1    2    0    0 -0.19852309530E+03 -0.48321948795E+03  0.19130939317E+04  0.19851569005E+04  0.89482038923E+02 0.  0.
        254    2    1    2    0    0  0.19852309530E+03  0.48321948795E+03  0.26513166865E+03  0.10803901271E+04  0.90776402886E+03 0.  0.
         23    2    4    4    0    0 -0.32242783632E+03  0.21201980773E+03 -0.59335071015E+02  0.40325701573E+03  0.10091313876E+03 0.  0.
         23    2    4    4    0    0  0.52095093163E+03  0.27119968021E+03  0.32446673967E+03  0.67713311136E+03  0.91057375542E+02 0.  0.
          2    1    3    3  502    0  0.41276936192E+01 -0.60226344935E+00  0.42612018233E+02  0.42815705924E+02  0.00000000000E+00 0.  1.
         -2    1    3    3    0  502 -0.20265078892E+03 -0.48261722450E+03  0.18704819134E+04  0.19423411946E+04  0.00000000000E+00 0. -1.
         11    1    5    5    0    0  0.56397258738E+01  0.14982891625E+02 -0.47109612720E+01  0.16687920945E+02  0.00000000000E+00 0. -1.
        -11    1    5    5    0    0 -0.32806756220E+03  0.19703691611E+03 -0.54624109743E+02  0.38656909478E+03  0.00000000000E+00 0.  1.
          1    1    6    6  503    0  0.33426207711E+03  0.21133988707E+03  0.24740065493E+03  0.46647911863E+03  0.00000000000E+00 0. -1.
         -1    1    6    6    0  503  0.18668885452E+03  0.59859793147E+02  0.77066084741E+02  0.21065399273E+03  0.00000000000E+00 0.  1.
<mgrwt>
<rscale>  0 0.21570609E+04</rscale>
<asrwt>0</asrwt>
<pdfrwt beam="1">  1        2 0.40336711E+00 0.21570609E+04</pdfrwt>
<pdfrwt beam="2">  1       -2 0.68255496E-01 0.21570609E+04</pdfrwt>
<totfact> 0.53245417E+00</totfact>
</mgrwt>
</event>
<event>
12    2  0.3555611E-008  0.1860142E+04  0.7818608E-02  0.8674954E-01
         -2   -1    0    0    0  501 -0.00000000000E+00  0.00000000000E+00  0.58229035529E+03  0.58229035529E+03  0.00000000000E+00 0.  1.
          2   -1    0    0  501    0  0.00000000000E+00 -0.00000000000E+00 -0.14855687904E+04  0.14855687904E+04  0.00000000000E+00 0. -1.
         23    2    1    2    0    0 -0.43845720972E+03  0.34700542677E+03 -0.83325672701E+03  0.10075539821E+04  0.90502832910E+02 0.  0.
        254    2    1    2    0    0  0.43845720972E+03 -0.34700542677E+03 -0.70021708142E+02  0.10603051636E+04  0.89815728548E+03 0.  0.
         23    2    4    4    0    0  0.12196810695E+03 -0.52235183698E+03  0.22140426761E+03  0.58705403307E+03  0.88797113289E+02 0.  0.
         23    2    4    4    0    0  0.31648910277E+03  0.17534641021E+03 -0.29142597575E+03  0.47325113057E+03  0.90143316435E+02 0.  0.
          4    1    3    3  502    0 -0.30645448738E+02  0.36117454937E+02 -0.12068261321E+03  0.12964531311E+03  0.00000000000E+00 0. -1.
         -4    1    3    3    0  502 -0.40781176098E+03  0.31088797183E+03 -0.71257411380E+03  0.87790866898E+03  0.00000000000E+00 0.  1.
         11    1    5    5    0    0  0.97095935301E+02 -0.34049809275E+03  0.18661436432E+03  0.40023929441E+03  0.00000000000E+00 0. -1.
        -11    1    5    5    0    0  0.24872171646E+02 -0.18185374423E+03  0.34789903287E+02  0.18681473867E+03  0.00000000000E+00 0.  1.
          4    1    6    6  503    0  0.25442256512E+03  0.14738091550E+03 -0.27638130612E+03  0.40353265329E+03  0.00000000000E+00 0. -1.
         -4    1    6    6    0  503  0.62066537654E+02  0.27965494702E+02 -0.15044669629E+02  0.69718477282E+02  0.00000000000E+00 0.  1.
<mgrwt>
<rscale>  0 0.18601423E+04</rscale>
<asrwt>0</asrwt>
<pdfrwt beam="1">  1        2 0.22854904E+00 0.18601423E+04</pdfrwt>
<pdfrwt beam="2">  1       -2 0.89583134E-01 0.18601423E+04</pdfrwt>
<totfact> 0.12982236E+01</totfact>
</mgrwt>
</event>
<event>
12    2  0.3555611E-008  0.3187751E+04  0.7818608E-02  0.8192060E-01
          2   -1    0    0  501    0  0.00000000000E+00  0.00000000000E+00  0.10520004257E+04  0.10520004257E+04  0.00000000000E+00 0.  1.
         -2   -1    0    0    0  501 -0.00000000000E+00 -0.00000000000E+00 -0.24148644171E+04  0.24148644171E+04  0.00000000000E+00 0. -1.
         23    2    1    2    0    0 -0.12717455600E+04  0.12476295102E+03 -0.13844300973E+04  0.18863142272E+04  0.92909128994E+02 0.  0.
        254    2    1    2    0    0  0.12717455600E+04 -0.12476295102E+03  0.21566105891E+02  0.15805506156E+04  0.92993149658E+03 0.  0.
         23    2    4    4    0    0  0.12201986342E+04  0.96908349045E+02  0.24121177733E+03  0.12509377175E+04  0.91575741086E+02 0.  0.
         23    2    4    4    0    0  0.51546925758E+02 -0.22167130006E+03 -0.21964567144E+03  0.32961289816E+03  0.92764167802E+02 0.  0.
          1    1    3    3  502    0 -0.32294041021E+03  0.57809442211E+02 -0.40195791378E+03  0.51884738084E+03  0.00000000000E+00 0. -1.
         -1    1    3    3    0  502 -0.94880514977E+03  0.66953508806E+02 -0.98247218350E+03  0.13674668464E+04  0.00000000000E+00 0.  1.
         11    1    5    5    0    0  0.12170828937E+04  0.90666545353E+02  0.24049387171E+03  0.12439246339E+04  0.00000000000E+00 0. -1.
        -11    1    5    5    0    0  0.31157405711E+01  0.62418036915E+01  0.71790562275E+00  0.70130835666E+01  0.00000000000E+00 0.  1.
          3    1    6    6  503    0 -0.66254450931E+01 -0.13916282455E+03 -0.16080182636E+03  0.21276140538E+03  0.00000000000E+00 0. -1.
         -3    1    6    6    0  503  0.58172370851E+02 -0.82508475514E+02 -0.58843845079E+02  0.11685149278E+03  0.00000000000E+00 0.  1.
<mgrwt>
<rscale>  0 0.31877506E+04</rscale>
<asrwt>0</asrwt>
<pdfrwt beam="1">  1        2 0.16184622E+00 0.31877506E+04</pdfrwt>
<pdfrwt beam="2">  1       -2 0.37151760E+00 0.31877506E+04</pdfrwt>
<totfact> 0.22322606E-01</totfact>
</mgrwt>
</event>
<event>
12    2  0.3555611E-008  0.1885121E+04  0.7818608E-02  0.8662298E-01
         -2   -1    0    0    0  501 -0.00000000000E+00  0.00000000000E+00  0.60676567111E+03  0.60676567111E+03  0.00000000000E+00 0.  1.
          2   -1    0    0  501    0  0.00000000000E+00 -0.00000000000E+00 -0.14641898834E+04  0.14641898834E+04  0.00000000000E+00 0. -1.
         23    2    1    2    0    0 -0.63794412206E+03  0.18723782085E+03 -0.65417590892E+03  0.93723362894E+03  0.91815309147E+02 0.  0.
        254    2    1    2    0    0  0.63794412206E+03 -0.18723782085E+03 -0.20324830338E+03  0.11337219256E+04  0.89553605582E+03 0.  0.
         23    2    4    4    0    0 -0.34076373365E+02 -0.77882506466E+00  0.26999495799E+03  0.28624239591E+03  0.88744724284E+02 0.  0.
         23    2    4    4    0    0  0.67202049542E+03 -0.18645899578E+03 -0.47324326137E+03  0.84747952967E+03  0.88791133521E+02 0.  0.
          2    1    3    3  502    0 -0.57057643926E+03  0.19565034243E+03 -0.58345229554E+03  0.83919789722E+03  0.00000000000E+00 0. -1.
         -2    1    3    3    0  502 -0.67367682796E+02 -0.84125215878E+01 -0.70723613379E+02  0.98035731722E+02  0.00000000000E+00 0.  1.
         11    1    5    5    0    0  0.28041663619E+01  0.37596525151E+02  0.72698023026E+02  0.81892396499E+02  0.00000000000E+00 0.  1.
        -11    1    5    5    0    0 -0.36880539727E+02 -0.38375350216E+02  0.19729693496E+03  0.20434999941E+03  0.00000000000E+00 0. -1.
          3    1    6    6  503    0  0.50478982143E+03 -0.10098327330E+03 -0.33337520369E+03  0.61331020841E+03  0.00000000000E+00 0. -1.
         -3    1    6    6    0  503  0.16723067400E+03 -0.85475722477E+02 -0.13986805768E+03  0.23416932126E+03  0.00000000000E+00 0.  1.
<mgrwt>
<rscale>  0 0.18851209E+04</rscale>
<asrwt>0</asrwt>
<pdfrwt beam="1">  1        2 0.22525998E+00 0.18851209E+04</pdfrwt>
<pdfrwt beam="2">  1       -2 0.93348565E-01 0.18851209E+04</pdfrwt>
<totfact> 0.12110613E+01</totfact>
</mgrwt>
</event>
<event>
12    2  0.3555611E-008  0.3472421E+04  0.7818608E-02  0.8120357E-01
         -1   -1    0    0    0  501 -0.00000000000E+00  0.00000000000E+00  0.19317980573E+04  0.19317980573E+04  0.00000000000E+00 0.  1.
          1   -1    0    0  501    0  0.00000000000E+00 -0.00000000000E+00 -0.15604256803E+04  0.15604256803E+04  0.00000000000E+00 0. -1.
         23    2    1    2    0    0  0.73916517501E+03 -0.83046340312E+03  0.13566823902E+04  0.17566640584E+04  0.96160731523E+02 0.  0.
        254    2    1    2    0    0 -0.73916517501E+03  0.83046340312E+03 -0.98531001323E+03  0.17355596792E+04  0.89738339519E+03 0.  0.
         23    2    4    4    0    0 -0.77723591950E+03  0.96589571194E+03 -0.94602040467E+03  0.15625629955E+04  0.97970954369E+02 0.  0.
         23    2    4    4    0    0  0.38070744486E+02 -0.13543230882E+03 -0.39289608566E+02  0.17299668370E+03  0.92697828310E+02 0.  0.
          4    1    3    3  502    0  0.35982532330E+03 -0.34821858404E+03  0.56264720116E+03  0.75319474144E+03  0.00000000000E+00 0. -1.
         -4    1    3    3    0  502  0.37933985171E+03 -0.48224481908E+03  0.79403518904E+03  0.10034693169E+04  0.00000000000E+00 0.  1.
         11    1    5    5    0    0 -0.71940583668E+03  0.92039736352E+03 -0.90902507391E+03  0.14802035838E+04  0.00000000000E+00 0.  1.
        -11    1    5    5    0    0 -0.57830082820E+02  0.45498348417E+02 -0.36995330761E+02  0.82359411640E+02  0.00000000000E+00 0. -1.
          4    1    6    6  503    0  0.60778590917E+02 -0.67646558790E+02 -0.44645836778E+02  0.10130816735E+03  0.00000000000E+00 0. -1.
         -4    1    6    6    0  503 -0.22707846431E+02 -0.67785750029E+02  0.53562282120E+01  0.71688516355E+02  0.00000000000E+00 0.  1.
<mgrwt>
<rscale>  0 0.34724212E+04</rscale>
<asrwt>0</asrwt>
<pdfrwt beam="1">  1        1 0.24006549E+00 0.34724212E+04</pdfrwt>
<pdfrwt beam="2">  1       -1 0.29719970E+00 0.34724212E+04</pdfrwt>
<totfact> 0.16727992E-01</totfact>
</mgrwt>
</event>
<event>
12    2  0.3555611E-008  0.1440047E+04  0.7818608E-02  0.8925330E-01
          2   -1    0    0  501    0  0.00000000000E+00  0.00000000000E+00  0.15241226789E+04  0.15241226789E+04  0.00000000000E+00 0. -1.
         -2   -1    0    0    0  501 -0.00000000000E+00 -0.00000000000E+00 -0.34015238606E+03  0.34015238606E+03  0.00000000000E+00 0.  1.
         23    2    1    2    0    0  0.20286669840E+03 -0.11637317317E+03 -0.10477248897E+03  0.27196297305E+03  0.91043788987E+02 0.  0.
        254    2    1    2    0    0 -0.20286669840E+03  0.11637317317E+03  0.12887427818E+04  0.15923120919E+04  0.90548452644E+03 0.  0.
         23    2    4    4    0    0 -0.19366501836E+03  0.18899286436E+03 -0.12616494527E+02  0.28551075448E+03  0.90181887727E+02 0.  0.
         23    2    4    4    0    0 -0.92016800358E+01 -0.72619691184E+02  0.13013592763E+04  0.13068013374E+04  0.93997228334E+02 0.  0.
          3    1    3    3  502    0 -0.88944730229E+01 -0.91352459804E+01 -0.65834336426E+00  0.12767058607E+02  0.00000000000E+00 0. -1.
         -3    1    3    3    0  502  0.21176117142E+03 -0.10723792719E+03 -0.10411414560E+03  0.25919591444E+03  0.00000000000E+00 0.  1.
         11    1    5    5    0    0  0.69055095300E+01  0.30323183366E+01 -0.93038843236E+01  0.11976780864E+02  0.00000000000E+00 0.  1.
        -11    1    5    5    0    0 -0.20057052789E+03  0.18596054602E+03 -0.33126102038E+01  0.27353397362E+03  0.00000000000E+00 0. -1.
          2    1    6    6  503    0 -0.49970377306E+02 -0.53516593770E+02  0.72581199219E+03  0.72949579329E+03  0.00000000000E+00 0. -1.
         -2    1    6    6    0  503  0.40768697270E+02 -0.19103097414E+02  0.57554728414E+03  0.57730554414E+03  0.00000000000E+00 0.  1.
<mgrwt>
<rscale>  0 0.14400472E+04</rscale>
<asrwt>0</asrwt>
<pdfrwt beam="1">  1        2 0.23448041E+00 0.14400472E+04</pdfrwt>
<pdfrwt beam="2">  1       -2 0.52331137E-01 0.14400472E+04</pdfrwt>
<totfact> 0.41138229E+01</totfact>
</mgrwt>
</event>
<event>
12    2  0.3555611E-008  0.3956474E+04  0.7818608E-02  0.8013385E-01
          2   -1    0    0  501    0  0.00000000000E+00  0.00000000000E+00  0.30600762708E+04  0.30600762708E+04  0.00000000000E+00 0. -1.
         -2   -1    0    0    0  501 -0.00000000000E+00 -0.00000000000E+00 -0.12788637981E+04  0.12788637981E+04  0.00000000000E+00 0.  1.
         23    2    1    2    0    0  0.74228920771E+03 -0.95209964617E+03 -0.72726224100E+03  0.14122679828E+04  0.90019353685E+02 0.  0.
        254    2    1    2    0    0 -0.74228920771E+03  0.95209964617E+03  0.25084747137E+04  0.29266720861E+04  0.90303771031E+03 0.  0.
         23    2    4    4    0    0 -0.90422245433E+03  0.92224364229E+03  0.23390987752E+04  0.26735286315E+04  0.90667969357E+02 0.  0.
         23    2    4    4    0    0  0.16193324663E+03  0.29856003884E+02  0.16937593842E+03  0.25314345454E+03  0.90992542166E+02 0.  0.
          3    1    3    3  502    0  0.25727983440E+03 -0.38954499067E+03 -0.25272880866E+03  0.53085785637E+03  0.00000000000E+00 0. -1.
         -3    1    3    3    0  502  0.48500937331E+03 -0.56255465550E+03 -0.47453343234E+03  0.88141012646E+03  0.00000000000E+00 0.  1.
         11    1    5    5    0    0 -0.75907488003E+02  0.50015830253E+02  0.13926085040E+03  0.16630428276E+03  0.00000000000E+00 0.  1.
        -11    1    5    5    0    0 -0.82831496633E+03  0.87222781203E+03  0.21998379249E+04  0.25072243488E+04  0.00000000000E+00 0. -1.
          2    1    6    6  503    0  0.13548034286E+03  0.23028833027E+02  0.17764921416E+03  0.22459851679E+03  0.00000000000E+00 0. -1.
         -2    1    6    6    0  503  0.26452903765E+02  0.68271708578E+01 -0.82732757432E+01  0.28544937748E+02  0.00000000000E+00 0.  1.
<mgrwt>
<rscale>  0 0.39564736E+04</rscale>
<asrwt>0</asrwt>
<pdfrwt beam="1">  1        2 0.47078096E+00 0.39564736E+04</pdfrwt>
<pdfrwt beam="2">  1       -2 0.19674828E+00 0.39564736E+04</pdfrwt>
<totfact> 0.17638326E-01</totfact>
</mgrwt>
</event>
<event>
12    2  0.3555611E-008  0.2228201E+04  0.7818608E-02  0.8506781E-01
          2   -1    0    0  501    0  0.00000000000E+00  0.00000000000E+00  0.16328087882E+04  0.16328087882E+04  0.00000000000E+00 0. -1.
         -2   -1    0    0    0  501 -0.00000000000E+00 -0.00000000000E+00 -0.76017452411E+03  0.76017452411E+03  0.00000000000E+00 0.  1.
         23    2    1    2    0    0  0.28097656974E+03 -0.67739407563E+03  0.10051894552E+04  0.12474745462E+04  0.89310336476E+02 0.  0.
        254    2    1    2    0    0 -0.28097656974E+03  0.67739407563E+03 -0.13255519109E+03  0.11455087661E+04  0.86994763524E+03 0.  0.
         23    2    4    4    0    0 -0.26439802444E+03  0.58315077374E+03  0.28386932071E+03  0.70637586772E+03  0.91727504096E+02 0.  0.
         23    2    4    4    0    0 -0.16578545299E+02  0.94243301890E+02 -0.41642451181E+03  0.43913289837E+03  0.10134929840E+03 0.  0.
          3    1    3    3  502    0  0.25788128218E+03 -0.62938470572E+03  0.88642355831E+03  0.11173068460E+04  0.00000000000E+00 0. -1.
         -3    1    3    3    0  502  0.23095287557E+02 -0.48009369913E+02  0.11876589690E+03  0.13016770019E+03  0.00000000000E+00 0.  1.
         11    1    5    5    0    0 -0.23380028120E+03  0.56036251781E+03  0.27791925535E+03  0.66776330788E+03  0.00000000000E+00 0.  1.
        -11    1    5    5    0    0 -0.30597743234E+02  0.22788255936E+02  0.59500653689E+01  0.38612559842E+02  0.00000000000E+00 0. -1.
          1    1    6    6  503    0 -0.13750262048E+02 -0.16239181303E+02 -0.27271797434E+02  0.34590918621E+02  0.00000000000E+00 0. -1.
         -1    1    6    6    0  503 -0.28282832512E+01  0.11048248319E+03 -0.38915271437E+03  0.40454197975E+03  0.00000000000E+00 0.  1.
<mgrwt>
<rscale>  0 0.22282007E+04</rscale>
<asrwt>0</asrwt>
<pdfrwt beam="1">  1        2 0.25120135E+00 0.22282007E+04</pdfrwt>
<pdfrwt beam="2">  1       -2 0.11694993E+00 0.22282007E+04</pdfrwt>
<totfact> 0.55174011E+00</totfact>
</mgrwt>
</event>
<event>
12    2  0.3555611E-008  0.1291974E+04  0.7818608E-02  0.9035954E-01
         -1   -1    0    0    0  501 -0.00000000000E+00  0.00000000000E+00  0.69910630653E+03  0.69910630653E+03  0.00000000000E+00 0.  1.
          1   -1    0    0  501    0  0.00000000000E+00 -0.00000000000E+00 -0.59690372321E+03  0.59690372321E+03  0.00000000000E+00 0. -1.
         23    2    1    2    0    0  0.27121718052E+01 -0.16885267048E+03 -0.24523462989E+03  0.31199181139E+03  0.93168055004E+02 0.  0.
        254    2    1    2    0    0 -0.27121718052E+01  0.16885267048E+03  0.34743721321E+03  0.98401821834E+03  0.90501969961E+03 0.  0.
         23    2    4    4    0    0 -0.43924848183E+03  0.15076812296E+03  0.15483116012E+03  0.49788849234E+03  0.90829548977E+02 0.  0.
         23    2    4    4    0    0  0.43653631002E+03  0.18084547523E+02  0.19260605310E+03  0.48612972600E+03  0.91290842830E+02 0.  0.
          1    1    3    3  502    0  0.40264575691E+02 -0.12396622666E+03 -0.19667987476E+03  0.23594879644E+03  0.00000000000E+00 0. -1.
         -1    1    3    3    0  502 -0.37552403885E+02 -0.44886443829E+02 -0.48554755133E+02  0.76043014954E+02  0.00000000000E+00 0.  1.
         11    1    5    5    0    0 -0.11709595618E+03  0.29652334562E+02  0.82291343196E+02  0.14615946450E+03  0.00000000000E+00 0.  1.
        -11    1    5    5    0    0 -0.32215252565E+03  0.12111578840E+03  0.72539816921E+02  0.35172902784E+03  0.00000000000E+00 0. -1.
          3    1    6    6  503    0  0.39390114349E+03 -0.77490743839E+01  0.15371360900E+03  0.42290191840E+03  0.00000000000E+00 0. -1.
         -3    1    6    6    0  503  0.42635166535E+02  0.25833621907E+02  0.38892444092E+02  0.63227807599E+02  0.00000000000E+00 0.  1.
<mgrwt>
<rscale>  0 0.12919739E+04</rscale>
<asrwt>0</asrwt>
<pdfrwt beam="1">  1        1 0.91831343E-01 0.12919739E+04</pdfrwt>
<pdfrwt beam="2">  1       -1 0.10755482E+00 0.12919739E+04</pdfrwt>
<totfact> 0.27313282E+01</totfact>
</mgrwt>
</event>
<event>
12    2  0.3555611E-008  0.1599902E+04  0.7818608E-02  0.8820608E-01
          2   -1    0    0  501    0  0.00000000000E+00  0.00000000000E+00  0.15103326463E+04  0.15103326463E+04  0.00000000000E+00 0. -1.
         -2   -1    0    0    0  501 -0.00000000000E+00 -0.00000000000E+00 -0.42369560099E+03  0.42369560099E+03  0.00000000000E+00 0.  1.
         23    2    1    2    0    0 -0.52886327788E+03 -0.99195303464E+02  0.31091737175E+03  0.62807489590E+03  0.90952668356E+02 0.  0.
        254    2    1    2    0    0  0.52886327788E+03  0.99195303464E+02  0.77571967354E+03  0.13059533514E+04  0.90235085699E+03 0.  0.
         23    2    4    4    0    0  0.29031894221E+03  0.49330139395E+03  0.45344481807E+03  0.73663923378E+03  0.96921639637E+02 0.  0.
         23    2    4    4    0    0  0.23854433567E+03 -0.39410609049E+03  0.32227485547E+03  0.56931411759E+03  0.89635212811E+02 0.  0.
          1    1    3    3  502    0 -0.70798122895E+02  0.38073580901E+01  0.72876164599E+02  0.10167499962E+03  0.00000000000E+00 0. -1.
         -1    1    3    3    0  502 -0.45806515499E+03 -0.10300266155E+03  0.23804120715E+03  0.52639989628E+03  0.00000000000E+00 0.  1.
         11    1    5    5    0    0  0.56118547743E+02  0.18382761740E+03  0.14042270545E+03  0.23803449440E+03  0.00000000000E+00 0. -1.
        -11    1    5    5    0    0  0.23420039447E+03  0.30947377655E+03  0.31302211261E+03  0.49860473938E+03  0.00000000000E+00 0.  1.
          3    1    6    6  503    0  0.24013102172E+03 -0.34785119751E+03  0.29682422377E+03  0.51649586931E+03  0.00000000000E+00 0. -1.
         -3    1    6    6    0  503 -0.15866860458E+01 -0.46254892974E+02  0.25450631703E+02  0.52818248274E+02  0.00000000000E+00 0.  1.
<mgrwt>
<rscale>  0 0.15999016E+04</rscale>
<asrwt>0</asrwt>
<pdfrwt beam="1">  1        2 0.23235887E+00 0.15999016E+04</pdfrwt>
<pdfrwt beam="2">  1       -2 0.65183939E-01 0.15999016E+04</pdfrwt>
<totfact> 0.26058233E+01</totfact>
</mgrwt>
</event>
<event>
12    2  0.3555611E-008  0.1431419E+04  0.7818608E-02  0.8931385E-01
         -2   -1    0    0    0  501 -0.00000000000E+00  0.00000000000E+00  0.15776840521E+04  0.15776840521E+04  0.00000000000E+00 0.  1.
          2   -1    0    0  501    0  0.00000000000E+00 -0.00000000000E+00 -0.32467857599E+03  0.32467857599E+03  0.00000000000E+00 0. -1.
         23    2    1    2    0    0  0.20174442689E+03  0.15834494864E+03 -0.72177470550E+02  0.28077341692E+03  0.88601285836E+02 0.  0.
        254    2    1    2    0    0 -0.20174442689E+03 -0.15834494864E+03  0.13251829466E+04  0.16215892112E+04  0.89870339442E+03 0.  0.
         23    2    4    4    0    0 -0.14889044302E+03 -0.37329946889E+03  0.17751842666E+03  0.44912737699E+03  0.93175916754E+02 0.  0.
         23    2    4    4    0    0 -0.52853983864E+02  0.21495452025E+03  0.11476645200E+04  0.11724618342E+04  0.92379179346E+02 0.  0.
          2    1    3    3  502    0  0.16789017306E+03  0.14510349807E+03 -0.90997465829E+02  0.23983885037E+03  0.00000000000E+00 0. -1.
         -2    1    3    3    0  502  0.33854253832E+02  0.13241450567E+02  0.18819995280E+02  0.40934566542E+02  0.00000000000E+00 0.  1.
         11    1    5    5    0    0 -0.88366704457E+02 -0.22694471350E+03  0.15618728346E+03  0.28932169804E+03  0.00000000000E+00 0.  1.
        -11    1    5    5    0    0 -0.60523738567E+02 -0.14635475538E+03  0.21331143199E+02  0.15980567895E+03  0.00000000000E+00 0. -1.
          3    1    6    6  503    0 -0.45759887628E+02  0.18989419786E+03  0.11074903085E+04  0.11245837262E+04  0.00000000000E+00 0. -1.
         -3    1    6    6    0  503 -0.70940962363E+01  0.25060322384E+02  0.40174211472E+02  0.47878108012E+02  0.00000000000E+00 0.  1.
<mgrwt>
<rscale>  0 0.14314192E+04</rscale>
<asrwt>0</asrwt>
<pdfrwt beam="1">  1        2 0.49950551E-01 0.14314192E+04</pdfrwt>
<pdfrwt beam="2">  1       -2 0.24272062E+00 0.14314192E+04</pdfrwt>
<totfact> 0.69592083E+00</totfact>
</mgrwt>
</event>
<event>
12    2  0.3555611E-008  0.1596089E+04  0.7818608E-02  0.8822954E-01
          2   -1    0    0  501    0  0.00000000000E+00  0.00000000000E+00  0.20857903034E+04  0.20857903034E+04  0.00000000000E+00 0.  1.
         -2   -1    0    0    0  501 -0.00000000000E+00 -0.00000000000E+00 -0.30533985631E+03  0.30533985631E+03  0.00000000000E+00 0. -1.
         23    2    1    2    0    0 -0.15421899493E+03  0.31761478192E+03 -0.51481889188E+01  0.35757173027E+03  0.56288456647E+02 0.  0.
        254    2    1    2    0    0  0.15421899493E+03 -0.31761478192E+03  0.17855986361E+04  0.20335584295E+04  0.90682674691E+03 0.  0.
         23    2    4    4    0    0  0.30552236898E+03 -0.57518789765E+03  0.11315455393E+04  0.13086997771E+04  0.90081982348E+02 0.  0.
         23    2    4    4    0    0 -0.15130337405E+03  0.25757311574E+03  0.65405309679E+03  0.72485865239E+03  0.91640556448E+02 0.  0.
          2    1    3    3  502    0 -0.15615492798E+03  0.31891260112E+03 -0.43810086604E+01  0.35511801126E+03  0.00000000000E+00 0. -1.
         -2    1    3    3    0  502  0.19359330423E+01 -0.12978192066E+01 -0.76718025840E+00  0.24537190112E+01  0.00000000000E+00 0.  1.
         11    1    5    5    0    0  0.20858442415E+03 -0.36987586054E+03  0.65148870499E+03  0.77765875996E+03  0.00000000000E+00 0.  1.
        -11    1    5    5    0    0  0.96937944831E+02 -0.20531203711E+03  0.48005683429E+03  0.53104101713E+03  0.00000000000E+00 0. -1.
          2    1    6    6  503    0 -0.10127469015E+03  0.10497825489E+03  0.38259399015E+03  0.40945715059E+03  0.00000000000E+00 0.  1.
         -2    1    6    6    0  503 -0.50028683901E+02  0.15259486084E+03  0.27145910663E+03  0.31540150181E+03  0.00000000000E+00 0. -1.
<mgrwt>
<rscale>  0 0.15960889E+04</rscale>
<asrwt>0</asrwt>
<pdfrwt beam="1">  1        2 0.32089081E+00 0.15960889E+04</pdfrwt>
<pdfrwt beam="2">  1       -2 0.46975364E-01 0.15960889E+04</pdfrwt>
<totfact> 0.24668428E+01</totfact>
</mgrwt>
</event>
<event>
12    2  0.3555611E-008  0.4379915E+04  0.7818608E-02  0.7932004E-01
         -2   -1    0    0    0  501 -0.00000000000E+00  0.00000000000E+00  0.15202523464E+04  0.15202523464E+04  0.00000000000E+00 0.  1.
          2   -1    0    0  501    0  0.00000000000E+00 -0.00000000000E+00 -0.31546823156E+04  0.31546823156E+04  0.00000000000E+00 0. -1.
         23    2    1    2    0    0 -0.17255710200E+04  0.11474694275E+04 -0.10935356620E+04  0.23448990132E+04  0.91922280429E+02 0.  0.
        254    2    1    2    0    0  0.17255710200E+04 -0.11474694275E+04 -0.54089430726E+03  0.23300356489E+04  0.91772438199E+03 0.  0.
         23    2    4    4    0    0  0.64606674757E+03  0.46126466826E+02 -0.13558204636E+03  0.66802212038E+03  0.91329999254E+02 0.  0.
         23    2    4    4    0    0  0.10795042725E+04 -0.11935958943E+04 -0.40531226090E+03  0.16620135285E+04  0.89500318092E+02 0.  0.
          2    1    3    3  502    0 -0.15632150463E+04  0.10492245746E+04 -0.96401928934E+03  0.21151469640E+04  0.00000000000E+00 0. -1.
         -2    1    3    3    0  502 -0.16235597373E+03  0.98244852918E+02 -0.12951637263E+03  0.22975204919E+03  0.00000000000E+00 0.  1.
         11    1    5    5    0    0  0.22684216662E+03  0.28550069749E+02 -0.90967052327E+02  0.24606397471E+03  0.00000000000E+00 0. -1.
        -11    1    5    5    0    0  0.41922458095E+03  0.17576397077E+02 -0.44614994030E+02  0.42195814567E+03  0.00000000000E+00 0.  1.
          4    1    6    6  503    0  0.88156607883E+03 -0.92086688042E+03 -0.32479557649E+03  0.13155404704E+04  0.00000000000E+00 0. -1.
         -4    1    6    6    0  503  0.19793819364E+03 -0.27272901390E+03 -0.80516684414E+02  0.34647305811E+03  0.00000000000E+00 0.  1.
<mgrwt>
<rscale>  0 0.43799147E+04</rscale>
<asrwt>0</asrwt>
<pdfrwt beam="1">  1        2 0.48533574E+00 0.43799147E+04</pdfrwt>
<pdfrwt beam="2">  1       -2 0.23388498E+00 0.43799147E+04</pdfrwt>
<totfact> 0.85768514E-02</totfact>
</mgrwt>
</event>
<event>
12    2  0.3555611E-008  0.1442708E+04  0.7818608E-02  0.8923472E-01
          2   -1    0    0  501    0  0.00000000000E+00  0.00000000000E+00  0.29829160566E+04  0.29829160566E+04  0.00000000000E+00 0. -1.
         -2   -1    0    0    0  501 -0.00000000000E+00 -0.00000000000E+00 -0.17444385095E+03  0.17444385095E+03  0.00000000000E+00 0.  1.
         23    2    1    2    0    0  0.35717275915E+03 -0.18091323642E+03  0.49059528347E+03  0.63944083990E+03  0.88875624192E+02 0.  0.
        254    2    1    2    0    0 -0.35717275915E+03  0.18091323642E+03  0.23178769222E+04  0.25179190676E+04  0.89836575282E+03 0.  0.
         23    2    4    4    0    0 -0.64902069603E+03  0.17536979370E+03  0.15900290322E+04  0.17282908898E+04  0.82550882086E+02 0.  0.
         23    2    4    4    0    0  0.29184793688E+03  0.55434427249E+01  0.72784788992E+03  0.78962817778E+03  0.92434626981E+02 0.  0.
          1    1    3    3  502    0  0.82202732365E+02 -0.26691833004E+01  0.90791779249E+02  0.12250535061E+03  0.00000000000E+00 0. -1.
         -1    1    3    3    0  502  0.27497002679E+03 -0.17824405312E+03  0.39980350422E+03  0.51693548929E+03  0.00000000000E+00 0.  1.
         11    1    5    5    0    0 -0.13823212565E+03  0.65401437066E+02  0.41711563521E+03  0.44426447266E+03  0.00000000000E+00 0. -1.
        -11    1    5    5    0    0 -0.51078857038E+03  0.10996835663E+03  0.11729133970E+04  0.12840264172E+04  0.00000000000E+00 0.  1.
          4    1    6    6  503    0  0.14045696116E+03  0.41873977557E+02  0.29018409112E+03  0.32509751563E+03  0.00000000000E+00 0.  1.
         -4    1    6    6    0  503  0.15139097572E+03 -0.36330534832E+02  0.43766379880E+03  0.46453066215E+03  0.00000000000E+00 0. -1.
<mgrwt>
<rscale>  0 0.14427077E+04</rscale>
<asrwt>0</asrwt>
<pdfrwt beam="1">  1        2 0.45891012E+00 0.14427077E+04</pdfrwt>
<pdfrwt beam="2">  1       -2 0.26837518E-01 0.14427077E+04</pdfrwt>
<totfact> 0.22002740E+01</totfact>
</mgrwt>
</event>
<event>
12    2  0.3555611E-008  0.1657770E+04  0.7818608E-02  0.8785823E-01
         -1   -1    0    0    0  501 -0.00000000000E+00  0.00000000000E+00  0.12334220369E+04  0.12334220369E+04  0.00000000000E+00 0.  1.
          1   -1    0    0  501    0  0.00000000000E+00 -0.00000000000E+00 -0.55702770369E+03  0.55702770369E+03  0.00000000000E+00 0. -1.
         23    2    1    2    0    0 -0.53016981075E+03  0.17162810374E+03  0.75587572355E+02  0.56852586041E+03  0.83498135531E+02 0.  0.
        254    2    1    2    0    0  0.53016981075E+03 -0.17162810374E+03  0.60080676083E+03  0.12219238801E+04  0.90641765804E+03 0.  0.
         23    2    4    4    0    0  0.75799221778E+03 -0.14184476890E+03  0.29958502456E+03  0.83214776626E+03  0.89702716042E+02 0.  0.
         23    2    4    4    0    0 -0.22782240703E+03 -0.29783334837E+02  0.30122173627E+03  0.38977611389E+03  0.91655814772E+02 0.  0.
          4    1    3    3  502    0 -0.19230704055E+03  0.52895911928E+02 -0.12142495795E+02  0.19981845647E+03  0.00000000000E+00 0. -1.
         -4    1    3    3    0  502 -0.33786277020E+03  0.11873219181E+03  0.87730068150E+02  0.36870740393E+03  0.00000000000E+00 0.  1.
         11    1    5    5    0    0  0.18300232472E+03 -0.10010150758E+01  0.91913255343E+02  0.20478989085E+03  0.00000000000E+00 0. -1.
        -11    1    5    5    0    0  0.57498989305E+03 -0.14084375382E+03  0.20767176922E+03  0.62735787541E+03  0.00000000000E+00 0.  1.
          3    1    6    6  503    0 -0.10858285964E+03 -0.20308528791E+02  0.73903100682E+02  0.13290726857E+03  0.00000000000E+00 0. -1.
         -3    1    6    6    0  503 -0.11923954739E+03 -0.94748060469E+01  0.22731863558E+03  0.25686884532E+03  0.00000000000E+00 0.  1.
<mgrwt>
<rscale>  0 0.16577699E+04</rscale>
<asrwt>0</asrwt>
<pdfrwt beam="1">  1        1 0.85696570E-01 0.16577699E+04</pdfrwt>
<pdfrwt beam="2">  1       -1 0.18975724E+00 0.16577699E+04</pdfrwt>
<totfact> 0.64531023E+00</totfact>
</mgrwt>
</event>
<event>
12    2  0.3555611E-008  0.1522611E+04  0.7818608E-02  0.8869554E-01
          3   -1    0    0  501    0  0.00000000000E+00  0.00000000000E+00  0.12923334624E+04  0.12923334624E+04  0.00000000000E+00 0. -1.
         -3   -1    0    0    0  501 -0.00000000000E+00 -0.00000000000E+00 -0.44848047324E+03  0.44848047324E+03  0.00000000000E+00 0.  1.
         23    2    1    2    0    0 -0.35328703864E+03  0.33563956972E+03  0.27822835590E+03  0.56836227085E+03  0.90327185678E+02 0.  0.
        254    2    1    2    0    0  0.35328703864E+03 -0.33563956972E+03  0.56562463328E+03  0.11724516648E+04  0.90401660833E+03 0.  0.
         23    2    4    4    0    0  0.39976054489E+03 -0.60821859234E+03  0.40045872747E+03  0.83576250037E+03  0.91615584404E+02 0.  0.
         23    2    4    4    0    0 -0.46473506253E+02  0.27257902262E+03  0.16516590581E+03  0.33668916445E+03  0.98085201005E+02 0.  0.
          4    1    3    3  502    0 -0.61137465578E+01 -0.59653721907E+01  0.43847137715E+01  0.96015247334E+01  0.00000000000E+00 0. -1.
         -4    1    3    3    0  502 -0.34717329208E+03  0.34160494191E+03  0.27384364213E+03  0.55876074612E+03  0.00000000000E+00 0.  1.
         11    1    5    5    0    0  0.58572395927E+02 -0.40599510596E+02  0.36410157050E+02  0.80029653015E+02  0.00000000000E+00 0. -1.
        -11    1    5    5    0    0  0.34118814896E+03 -0.56761908174E+03  0.36404857042E+03  0.75573284736E+03  0.00000000000E+00 0.  1.
          3    1    6    6  503    0 -0.70630202400E+02  0.12328936217E+03  0.76216711255E+02  0.16123857910E+03  0.00000000000E+00 0. -1.
         -3    1    6    6    0  503  0.24156696146E+02  0.14928966046E+03  0.88949194556E+02  0.17545058535E+03  0.00000000000E+00 0.  1.
<mgrwt>
<rscale>  0 0.15226113E+04</rscale>
<asrwt>0</asrwt>
<pdfrwt beam="1">  1        3 0.19882053E+00 0.15226113E+04</pdfrwt>
<pdfrwt beam="2">  1       -3 0.68996997E-01 0.15226113E+04</pdfrwt>
<totfact> 0.76247649E-01</totfact>
</mgrwt>
</event>
<event>
12    2  0.3555611E-008  0.1498677E+04  0.7818608E-02  0.8885333E-01
          2   -1    0    0  501    0  0.00000000000E+00  0.00000000000E+00  0.90005928385E+03  0.90005928385E+03  0.00000000000E+00 0. -1.
         -2   -1    0    0    0  501 -0.00000000000E+00 -0.00000000000E+00 -0.62385683294E+03  0.62385683294E+03  0.00000000000E+00 0.  1.
         23    2    1    2    0    0 -0.10204700457E+03 -0.20851182971E+03  0.49795739906E+03  0.55717203283E+03  0.92673235675E+02 0.  0.
        254    2    1    2    0    0  0.10204700457E+03  0.20851182971E+03 -0.22175494815E+03  0.96674408397E+03  0.91188162202E+03 0.  0.
         23    2    4    4    0    0  0.26727802063E+03  0.46790641897E+03 -0.31763744377E+03  0.63208207466E+03  0.90885896608E+02 0.  0.
         23    2    4    4    0    0 -0.16523101606E+03 -0.25939458926E+03  0.95882495617E+02  0.33466200931E+03  0.90655203388E+02 0.  0.
          4    1    3    3  502    0 -0.66227329515E+02 -0.47194690225E+02  0.12345045531E+03  0.14782899876E+03  0.00000000000E+00 0.  1.
         -4    1    3    3    0  502 -0.35819675054E+02 -0.16131713948E+03  0.37450694376E+03  0.40934303406E+03  0.00000000000E+00 0. -1.
         11    1    5    5    0    0  0.26365481558E+03  0.42426654659E+03 -0.30925014998E+03  0.58749605922E+03  0.00000000000E+00 0. -1.
        -11    1    5    5    0    0  0.36232050452E+01  0.43639872373E+02 -0.83872937859E+01  0.44586015437E+02  0.00000000000E+00 0.  1.
          1    1    6    6  503    0  0.37671475951E+01 -0.45092175226E+02 -0.41260176576E+00  0.45251142614E+02  0.00000000000E+00 0.  1.
         -1    1    6    6    0  503 -0.16899816365E+03 -0.21430241403E+03  0.96295097383E+02  0.28941086669E+03  0.00000000000E+00 0. -1.
<mgrwt>
<rscale>  0 0.14986769E+04</rscale>
<asrwt>0</asrwt>
<pdfrwt beam="1">  1        2 0.13847066E+00 0.14986769E+04</pdfrwt>
<pdfrwt beam="2">  1       -2 0.95977975E-01 0.14986769E+04</pdfrwt>
<totfact> 0.25784615E+01</totfact>
</mgrwt>
</event>
<event>
12    2  0.3555611E-008  0.1576742E+04  0.7818608E-02  0.8834965E-01
         -1   -1    0    0    0  501 -0.00000000000E+00  0.00000000000E+00  0.17614454347E+03  0.17614454347E+03  0.00000000000E+00 0.  1.
          1   -1    0    0  501    0  0.00000000000E+00 -0.00000000000E+00 -0.35285151693E+04  0.35285151693E+04  0.00000000000E+00 0. -1.
         23    2    1    2    0    0  0.19730872375E+03  0.47168824612E+03 -0.84556368574E+03  0.99142636546E+03  0.80794538718E+02 0.  0.
        254    2    1    2    0    0 -0.19730872375E+03 -0.47168824612E+03 -0.25068069401E+04  0.27132333473E+04  0.90340114462E+03 0.  0.
         23    2    4    4    0    0  0.48137837636E+02 -0.68708168215E+03 -0.15728341033E+04  0.17191383160E+04  0.85034955694E+02 0.  0.
         23    2    4    4    0    0 -0.24544656139E+03  0.21539343603E+03 -0.93397283683E+03  0.99409503135E+03  0.96339631697E+02 0.  0.
          1    1    3    3  502    0  0.17803130168E+03  0.41364787109E+03 -0.78708644582E+03  0.90681022206E+03  0.00000000000E+00 0. -1.
         -1    1    3    3    0  502  0.19277422071E+02  0.58040375027E+02 -0.58477239920E+02  0.84616143398E+02  0.00000000000E+00 0.  1.
         11    1    5    5    0    0  0.28432366353E+02 -0.64002131998E+03 -0.14893997670E+04  0.16213412212E+04  0.00000000000E+00 0.  1.
        -11    1    5    5    0    0  0.19705471283E+02 -0.47060362166E+02 -0.83434336261E+02  0.97797094809E+02  0.00000000000E+00 0. -1.
          2    1    6    6  503    0 -0.59818630246E+02  0.44562353775E+02 -0.11435983979E+03  0.13653660628E+03  0.00000000000E+00 0. -1.
         -2    1    6    6    0  503 -0.18562793114E+03  0.17083108225E+03 -0.81961299704E+03  0.85755842507E+03  0.00000000000E+00 0.  1.
<mgrwt>
<rscale>  0 0.15767418E+04</rscale>
<asrwt>0</asrwt>
<pdfrwt beam="1">  1        1 0.54284845E+00 0.15767418E+04</pdfrwt>
<pdfrwt beam="2">  1       -1 0.27099162E-01 0.15767418E+04</pdfrwt>
<totfact> 0.28088128E+00</totfact>
</mgrwt>
</event>
<event>
12    2  0.3555611E-008  0.2526934E+04  0.7818608E-02  0.8393453E-01
          2   -1    0    0  501    0  0.00000000000E+00  0.00000000000E+00  0.25191439275E+04  0.25191439275E+04  0.00000000000E+00 0. -1.
         -2   -1    0    0    0  501 -0.00000000000E+00 -0.00000000000E+00 -0.63368691663E+03  0.63368691663E+03  0.00000000000E+00 0.  1.
         23    2    1    2    0    0 -0.95040972669E+03 -0.20724332643E+03  0.17870055040E+03  0.99301266454E+03  0.88948413710E+02 0.  0.
        254    2    1    2    0    0  0.95040972669E+03  0.20724332643E+03  0.17067564605E+04  0.21598181796E+04  0.89753468380E+03 0.  0.
         23    2    4    4    0    0  0.75970147095E+03 -0.77592488619E+02  0.16245082803E+04  0.17973560286E+04  0.91074813999E+02 0.  0.
         23    2    4    4    0    0  0.19070825574E+03  0.28483581505E+03  0.82248180234E+02  0.36246215099E+03  0.84338410037E+02 0.  0.
          1    1    3    3  502    0 -0.19255606054E+03 -0.87150931546E+01  0.49467487165E+02  0.19899955172E+03  0.00000000000E+00 0. -1.
         -1    1    3    3    0  502 -0.75785366615E+03 -0.19852823328E+03  0.12923306324E+03  0.79401311282E+03  0.00000000000E+00 0.  1.
         11    1    5    5    0    0  0.68505410811E+03 -0.92958968767E+02  0.14945344810E+04  0.16466857065E+04  0.00000000000E+00 0.  1.
        -11    1    5    5    0    0  0.74647362838E+02  0.15366480148E+02  0.12997379923E+03  0.15067032215E+03  0.00000000000E+00 0. -1.
          3    1    6    6  503    0 -0.17715863677E+00  0.22584591182E+02  0.23913314442E+02  0.32892882994E+02  0.00000000000E+00 0. -1.
         -3    1    6    6    0  503  0.19088541437E+03  0.26225122387E+03  0.58334865791E+02  0.32956926800E+03  0.00000000000E+00 0.  1.
<mgrwt>
<rscale>  0 0.25269338E+04</rscale>
<asrwt>0</asrwt>
<pdfrwt beam="1">  1        2 0.38756060E+00 0.25269338E+04</pdfrwt>
<pdfrwt beam="2">  1       -2 0.97490296E-01 0.25269338E+04</pdfrwt>
<totfact> 0.26479775E+00</totfact>
</mgrwt>
</event>
<event>
12    2  0.3555611E-008  0.1821794E+04  0.7818608E-02  0.8694795E-01
          1   -1    0    0  501    0  0.00000000000E+00  0.00000000000E+00  0.74790243633E+03  0.74790243633E+03  0.00000000000E+00 0.  1.
         -1   -1    0    0    0  501 -0.00000000000E+00 -0.00000000000E+00 -0.11094134033E+04  0.11094134033E+04  0.00000000000E+00 0. -1.
         23    2    1    2    0    0  0.50774660003E+03  0.44979839306E+03 -0.22491934752E+03  0.72081533571E+03  0.94131987470E+02 0.  0.
        254    2    1    2    0    0 -0.50774660003E+03 -0.44979839306E+03 -0.13659161943E+03  0.11365005039E+04  0.90158245359E+03 0.  0.
         23    2    4    4    0    0  0.14960566147E+03 -0.38119147147E+03 -0.20579836582E+03  0.46569865028E+03  0.82664827065E+02 0.  0.
         23    2    4    4    0    0 -0.65735226150E+03 -0.68606921587E+02  0.69206746394E+02  0.67080185362E+03  0.91469381110E+02 0.  0.
          3    1    3    3  502    0  0.32253044853E+03  0.27713751621E+03 -0.92975859050E+02  0.43528795467E+03  0.00000000000E+00 0. -1.
         -3    1    3    3    0  502  0.18521615151E+03  0.17266087685E+03 -0.13194348847E+03  0.28552738104E+03  0.00000000000E+00 0.  1.
         11    1    5    5    0    0  0.15947362241E+03 -0.35230270066E+03 -0.19656580969E+03  0.43380542491E+03  0.00000000000E+00 0.  1.
        -11    1    5    5    0    0 -0.98679609457E+01 -0.28888770808E+02 -0.92325561304E+01  0.31893225374E+02  0.00000000000E+00 0. -1.
          4    1    6    6  503    0 -0.20257099185E+03  0.20390650284E+02  0.29066753510E+02  0.20565909053E+03  0.00000000000E+00 0. -1.
         -4    1    6    6    0  503 -0.45478126965E+03 -0.88997571870E+02  0.40139992884E+02  0.46514276309E+03  0.00000000000E+00 0.  1.
<mgrwt>
<rscale>  0 0.18217936E+04</rscale>
<asrwt>0</asrwt>
<pdfrwt beam="1">  1        1 0.11506191E+00 0.18217936E+04</pdfrwt>
<pdfrwt beam="2">  1       -1 0.17067898E+00 0.18217936E+04</pdfrwt>
<totfact> 0.56358298E+00</totfact>
</mgrwt>
</event>
<event>
12    2  0.3555611E-008  0.1131934E+04  0.7818608E-02  0.9174614E-01
          2   -1    0    0  501    0  0.00000000000E+00  0.00000000000E+00  0.12354109398E+04  0.12354109398E+04  0.00000000000E+00 0.  1.
         -2   -1    0    0    0  501 -0.00000000000E+00 -0.00000000000E+00 -0.25928101029E+03  0.25928101029E+03  0.00000000000E+00 0. -1.
         23    2    1    2    0    0  0.23167153748E+01  0.18030736806E+03  0.19106468576E+03  0.27679823050E+03  0.87151776329E+02 0.  0.
        254    2    1    2    0    0 -0.23167153748E+01 -0.18030736806E+03  0.78506524371E+03  0.12178937195E+04  0.91346678159E+03 0.  0.
         23    2    4    4    0    0 -0.22884047738E+03 -0.47966531773E+03  0.52496358336E+03  0.75237442249E+03  0.89631058495E+02 0.  0.
         23    2    4    4    0    0  0.22652376200E+03  0.29935794967E+03  0.26010166035E+03  0.46551929704E+03  0.90150681744E+02 0.  0.
          2    1    3    3  502    0 -0.15752254706E+02  0.11733181580E+03  0.17155791655E+03  0.20843945705E+03  0.00000000000E+00 0.  1.
         -2    1    3    3    0  502  0.18068970081E+02  0.62975552256E+02  0.19506769212E+02  0.68358773445E+02  0.00000000000E+00 0. -1.
         11    1    5    5    0    0 -0.85008632202E+02 -0.22701700145E+03  0.18424841641E+03  0.30448426141E+03  0.00000000000E+00 0. -1.
        -11    1    5    5    0    0 -0.14383184518E+03 -0.25264831629E+03  0.34071516695E+03  0.44789016109E+03  0.00000000000E+00 0.  1.
          3    1    6    6  503    0  0.54427633095E+02  0.12101511206E+03  0.12935037039E+03  0.18530661864E+03  0.00000000000E+00 0. -1.
         -3    1    6    6    0  503  0.17209612891E+03  0.17834283761E+03  0.13075128996E+03  0.28021267841E+03  0.00000000000E+00 0.  1.
<mgrwt>
<rscale>  0 0.11319339E+04</rscale>
<asrwt>0</asrwt>
<pdfrwt beam="1">  1        2 0.19006322E+00 0.11319339E+04</pdfrwt>
<pdfrwt beam="2">  1       -2 0.39889387E-01 0.11319339E+04</pdfrwt>
<totfact> 0.10624226E+02</totfact>
</mgrwt>
</event>
<event>
12    2  0.3555611E-008  0.1180488E+04  0.7818608E-02  0.9130109E-01
          2   -1    0    0  501    0  0.00000000000E+00  0.00000000000E+00  0.47761136666E+03  0.47761136666E+03  0.00000000000E+00 0. -1.
         -2   -1    0    0    0  501 -0.00000000000E+00 -0.00000000000E+00 -0.72943850498E+03  0.72943850498E+03  0.00000000000E+00 0.  1.
         23    2    1    2    0    0 -0.15505635389E+03 -0.12510820548E+03 -0.28999282216E+02  0.22409685320E+03  0.98406835563E+02 0.  0.
        254    2    1    2    0    0  0.15505635389E+03  0.12510820548E+03 -0.22282785610E+03  0.98295301844E+03  0.93640260949E+03 0.  0.
         23    2    4    4    0    0 -0.23196617401E+03  0.39853309848E+03 -0.15949286426E+03  0.49613320480E+03  0.89851247537E+02 0.  0.
         23    2    4    4    0    0  0.38702252790E+03 -0.27342489300E+03 -0.63334991842E+02  0.48681981364E+03  0.91840081372E+02 0.  0.
          4    1    3    3  502    0 -0.38021053851E-01  0.95218508587E+00  0.18661972392E+02  0.18686286833E+02  0.00000000000E+00 0. -1.
         -4    1    3    3    0  502 -0.15501833283E+03 -0.12606039056E+03 -0.47661254608E+02  0.20541056637E+03  0.00000000000E+00 0.  1.
         11    1    5    5    0    0 -0.88202237708E+02  0.11819639352E+03 -0.11132902580E+02  0.14789849120E+03  0.00000000000E+00 0. -1.
        -11    1    5    5    0    0 -0.14376393631E+03  0.28033670496E+03 -0.14835996168E+03  0.34823471360E+03  0.00000000000E+00 0.  1.
          3    1    6    6  503    0  0.24825454074E+03 -0.11987749721E+03 -0.39176159945E+02  0.27845233496E+03  0.00000000000E+00 0. -1.
         -3    1    6    6    0  503  0.13876798716E+03 -0.15354739579E+03 -0.24158831896E+02  0.20836747869E+03  0.00000000000E+00 0.  1.
<mgrwt>
<rscale>  0 0.11804882E+04</rscale>
<asrwt>0</asrwt>
<pdfrwt beam="1">  1        2 0.73478672E-01 0.11804882E+04</pdfrwt>
<pdfrwt beam="2">  1       -2 0.11222131E+00 0.11804882E+04</pdfrwt>
<totfact> 0.40153586E+01</totfact>
</mgrwt>
</event>
<event>
12    2  0.3555611E-008  0.1648814E+04  0.7818608E-02  0.8791109E-01
         -2   -1    0    0    0  501 -0.00000000000E+00  0.00000000000E+00  0.17658266792E+03  0.17658266792E+03  0.00000000000E+00 0. -1.
          2   -1    0    0  501    0  0.00000000000E+00 -0.00000000000E+00 -0.38488871841E+04  0.38488871841E+04  0.00000000000E+00 0.  1.
         23    2    1    2    0    0 -0.10293200646E+03 -0.59691711706E+02 -0.27648724107E+04  0.27688568732E+04  0.88830393763E+02 0.  0.
        254    2    1    2    0    0  0.10293200646E+03  0.59691711706E+02 -0.90743210555E+03  0.12566129788E+04  0.86109526415E+03 0.  0.
         23    2    4    4    0    0 -0.43331584539E+01  0.14480317033E+03 -0.10349660605E+04  0.10488212553E+04  0.88794959480E+02 0.  0.
         23    2    4    4    0    0  0.10726516492E+03 -0.85111458621E+02  0.12753395492E+03  0.20779172352E+03  0.90347743262E+02 0.  0.
          1    1    3    3  502    0 -0.44054717314E+02 -0.22251550319E+02 -0.20485262506E+04  0.20491207258E+04  0.00000000000E+00 0. -1.
         -1    1    3    3    0  502 -0.58877289151E+02 -0.37440161387E+02 -0.71634616010E+03  0.71973614746E+03  0.00000000000E+00 0.  1.
         11    1    5    5    0    0 -0.20449106140E+02  0.15119988417E+03 -0.92913405989E+03  0.94157828786E+03  0.00000000000E+00 0. -1.
        -11    1    5    5    0    0  0.16115947686E+02 -0.63967138401E+01 -0.10583200058E+03  0.10724296744E+03  0.00000000000E+00 0.  1.
          1    1    6    6  503    0  0.11932449305E+03 -0.86035026545E+02  0.10045229042E+03  0.17813203834E+03  0.00000000000E+00 0. -1.
         -1    1    6    6    0  503 -0.12059328129E+02  0.92356792357E+00  0.27081664504E+02  0.29659685180E+02  0.00000000000E+00 0.  1.
<mgrwt>
<rscale>  0 0.16488138E+04</rscale>
<asrwt>0</asrwt>
<pdfrwt beam="1">  1        2 0.59213654E+00 0.16488138E+04</pdfrwt>
<pdfrwt beam="2">  1       -2 0.27166562E-01 0.16488138E+04</pdfrwt>
<totfact> 0.53907649E+00</totfact>
</mgrwt>
</event>
<event>
12    2  0.3555611E-008  0.2355420E+04  0.7818608E-02  0.8456385E-01
         -2   -1    0    0    0  501 -0.00000000000E+00  0.00000000000E+00  0.10427302709E+04  0.10427302709E+04  0.00000000000E+00 0.  1.
          2   -1    0    0  501    0  0.00000000000E+00 -0.00000000000E+00 -0.13301631535E+04  0.13301631535E+04  0.00000000000E+00 0. -1.
         23    2    1    2    0    0  0.14727366785E+03 -0.81988539183E+03  0.44958820831E+03  0.95098705398E+03  0.91352234908E+02 0.  0.
        254    2    1    2    0    0 -0.14727366785E+03  0.81988539183E+03 -0.73702109090E+03  0.14219063705E+04  0.88584200001E+03 0.  0.
         23    2    4    4    0    0 -0.47764565189E+03  0.69989066245E+03 -0.53857057316E+03  0.10080269885E+04  0.89821150148E+02 0.  0.
         23    2    4    4    0    0  0.33037198404E+03  0.11999472938E+03 -0.19845051773E+03  0.41387938202E+03  0.91483069205E+02 0.  0.
          4    1    3    3  502    0  0.49284829060E+02 -0.34887731454E+03  0.14145613203E+03  0.37967645734E+03  0.00000000000E+00 0. -1.
         -4    1    3    3    0  502  0.97988838790E+02 -0.47100807729E+03  0.30813207628E+03  0.57131059664E+03  0.00000000000E+00 0.  1.
         11    1    5    5    0    0  0.15549740509E+01 -0.35643690005E+00 -0.60340827057E+01  0.62414057441E+01  0.00000000000E+00 0.  1.
        -11    1    5    5    0    0 -0.47920062594E+03  0.70024709935E+03 -0.53253649046E+03  0.10017855827E+04  0.00000000000E+00 0. -1.
          1    1    6    6  503    0  0.20817482838E+03  0.29552716203E+02 -0.12955365839E+03  0.24697018566E+03  0.00000000000E+00 0. -1.
         -1    1    6    6    0  503  0.12219715567E+03  0.90442013173E+02 -0.68896859347E+02  0.16690919635E+03  0.00000000000E+00 0.  1.
<mgrwt>
<rscale>  0 0.23554205E+04</rscale>
<asrwt>0</asrwt>
<pdfrwt beam="1">  1        2 0.20464049E+00 0.23554205E+04</pdfrwt>
<pdfrwt beam="2">  1       -2 0.16042004E+00 0.23554205E+04</pdfrwt>
<totfact> 0.35840146E+00</totfact>
</mgrwt>
</event>
<event>
12    2  0.3555611E-008  0.1570820E+04  0.7818608E-02  0.8838678E-01
          2   -1    0    0  501    0  0.00000000000E+00  0.00000000000E+00  0.18186037438E+04  0.18186037438E+04  0.00000000000E+00 0. -1.
         -2   -1    0    0    0  501 -0.00000000000E+00 -0.00000000000E+00 -0.33919895062E+03  0.33919895062E+03  0.00000000000E+00 0.  1.
         23    2    1    2    0    0 -0.34814284576E+03 -0.39576380959E+03  0.61285438809E+03  0.81308814021E+03  0.87689159580E+02 0.  0.
        254    2    1    2    0    0  0.34814284576E+03  0.39576380959E+03  0.86655040509E+03  0.13447145542E+04  0.88290157645E+03 0.  0.
         23    2    4    4    0    0  0.14550525496E+03 -0.22800223962E+03  0.53054339477E+03  0.60215691707E+03  0.89218039350E+02 0.  0.
         23    2    4    4    0    0  0.20263759080E+03  0.62376604922E+03  0.33600701032E+03  0.74255763714E+03  0.91351278737E+02 0.  0.
          4    1    3    3  502    0 -0.31819048671E+03 -0.37377069769E+03  0.53061412119E+03  0.72284235203E+03  0.00000000000E+00 0. -1.
         -4    1    3    3    0  502 -0.29952359049E+02 -0.21993111907E+02  0.82240266903E+02  0.90245788180E+02  0.00000000000E+00 0.  1.
         11    1    5    5    0    0  0.75618397900E+02 -0.17608716653E+03  0.41829583690E+03  0.46010459624E+03  0.00000000000E+00 0.  1.
        -11    1    5    5    0    0  0.69886857057E+02 -0.51915073093E+02  0.11224755787E+03  0.14205232083E+03  0.00000000000E+00 0. -1.
          3    1    6    6  503    0  0.52336496912E+02  0.29925439946E+03  0.17210344294E+03  0.34915884577E+03  0.00000000000E+00 0. -1.
         -3    1    6    6    0  503  0.15030109389E+03  0.32451164975E+03  0.16390356737E+03  0.39339879137E+03  0.00000000000E+00 0.  1.
<mgrwt>
<rscale>  0 0.15708195E+04</rscale>
<asrwt>0</asrwt>
<pdfrwt beam="1">  1        2 0.27978519E+00 0.15708195E+04</pdfrwt>
<pdfrwt beam="2">  1       -2 0.52184455E-01 0.15708195E+04</pdfrwt>
<totfact> 0.28069654E+01</totfact>
</mgrwt>
</event>
<event>
12    2  0.3555611E-008  0.2011911E+04  0.7818608E-02  0.8601072E-01
         -2   -1    0    0    0  501 -0.00000000000E+00  0.00000000000E+00  0.80210933353E+03  0.80210933353E+03  0.00000000000E+00 0.  1.
          2   -1    0    0  501    0  0.00000000000E+00 -0.00000000000E+00 -0.12616065409E+04  0.12616065409E+04  0.00000000000E+00 0. -1.
         23    2    1    2    0    0 -0.12575747899E+03  0.67785902919E+03  0.22232122107E+03  0.72958112378E+03  0.86914232759E+02 0.  0.
        254    2    1    2    0    0  0.12575747899E+03 -0.67785902919E+03 -0.68181842848E+03  0.13341347507E+04  0.91636857030E+03 0.  0.
         23    2    4    4    0    0  0.31809857683E+03 -0.82309898524E+03 -0.56014175278E+03  0.10492475926E+04  0.92103654878E+02 0.  0.
         23    2    4    4    0    0 -0.19234109784E+03  0.14523995605E+03 -0.12167667570E+03  0.28488715812E+03  0.90916097057E+02 0.  0.
          1    1    3    3  502    0 -0.40800646466E+02  0.81419107844E+02  0.44914038895E+02  0.10154326548E+03  0.00000000000E+00 0. -1.
         -1    1    3    3    0  502 -0.84956832522E+02  0.59643992135E+03  0.17740718217E+03  0.62803785830E+03  0.00000000000E+00 0.  1.
         11    1    5    5    0    0  0.15388476683E+03 -0.28918547614E+03 -0.18265537503E+03  0.37506232429E+03  0.00000000000E+00 0. -1.
        -11    1    5    5    0    0  0.16421380999E+03 -0.53391350910E+03 -0.37748637775E+03  0.67418526829E+03  0.00000000000E+00 0.  1.
          4    1    6    6  503    0 -0.14513315535E+03  0.15028383888E+03 -0.88108654690E+02  0.22674214438E+03  0.00000000000E+00 0. -1.
         -4    1    6    6    0  503 -0.47207942492E+02 -0.50438828298E+01 -0.33568021009E+02  0.58145013740E+02  0.00000000000E+00 0.  1.
<mgrwt>
<rscale>  0 0.20119109E+04</rscale>
<asrwt>0</asrwt>
<pdfrwt beam="1">  1        2 0.19409331E+00 0.20119109E+04</pdfrwt>
<pdfrwt beam="2">  1       -2 0.12340144E+00 0.20119109E+04</pdfrwt>
<totfact> 0.80041918E+00</totfact>
</mgrwt>
</event>
<event>
12    2  0.3555611E-008  0.2716091E+04  0.7818608E-02  0.8329803E-01
         -1   -1    0    0    0  501 -0.00000000000E+00  0.00000000000E+00  0.86712115988E+03  0.86712115988E+03  0.00000000000E+00 0.  1.
          1   -1    0    0  501    0  0.00000000000E+00 -0.00000000000E+00 -0.21269083343E+04  0.21269083343E+04  0.00000000000E+00 0. -1.
         23    2    1    2    0    0  0.10024415893E+04 -0.28418770942E+03 -0.12344415895E+04  0.16179786194E+04  0.91416523068E+02 0.  0.
        254    2    1    2    0    0 -0.10024415893E+04  0.28418770942E+03 -0.25345584849E+02  0.13760508748E+04  0.89845523935E+03 0.  0.
         23    2    4    4    0    0 -0.99053300629E+03  0.17371619338E+03 -0.31119878183E+03  0.10562067095E+04  0.85994063759E+02 0.  0.
         23    2    4    4    0    0 -0.11908583008E+02  0.11047151604E+03  0.28585319698E+03  0.31984416525E+03  0.90788047750E+02 0.  0.
          2    1    3    3  502    0  0.87402491182E+03 -0.21553966299E+03 -0.10537802674E+04  0.13859400221E+04  0.00000000000E+00 0. -1.
         -2    1    3    3    0  502  0.12841667748E+03 -0.68648046421E+02 -0.18066132211E+03  0.23203859730E+03  0.00000000000E+00 0.  1.
         11    1    5    5    0    0 -0.31910624751E+02  0.19152800191E+02 -0.21159346561E+02  0.42811630126E+02  0.00000000000E+00 0. -1.
        -11    1    5    5    0    0 -0.95862238154E+03  0.15456339319E+03 -0.29003943527E+03  0.10133950794E+04  0.00000000000E+00 0.  1.
          1    1    6    6  503    0 -0.41595770079E+02  0.18600364486E+02  0.72002795241E+02  0.85209061549E+02  0.00000000000E+00 0. -1.
         -1    1    6    6    0  503  0.29687187072E+02  0.91871151553E+02  0.21385040174E+03  0.23463510370E+03  0.00000000000E+00 0.  1.
<mgrwt>
<rscale>  0 0.27160907E+04</rscale>
<asrwt>0</asrwt>
<pdfrwt beam="1">  1        1 0.32721667E+00 0.27160907E+04</pdfrwt>
<pdfrwt beam="2">  1       -1 0.13340326E+00 0.27160907E+04</pdfrwt>
<totfact> 0.10115152E+00</totfact>
</mgrwt>
</event>
<event>
12    2  0.3555611E-008  0.2771920E+04  0.7818608E-02  0.8312039E-01
          1   -1    0    0  501    0  0.00000000000E+00  0.00000000000E+00  0.26877251094E+04  0.26877251094E+04  0.00000000000E+00 0. -1.
         -1   -1    0    0    0  501 -0.00000000000E+00 -0.00000000000E+00 -0.71468821372E+03  0.71468821372E+03  0.00000000000E+00 0.  1.
         23    2    1    2    0    0  0.28093030602E+03  0.97903017018E+03  0.19280656032E+02  0.10227618942E+04  0.90819808552E+02 0.  0.
        254    2    1    2    0    0 -0.28093030602E+03 -0.97903017018E+03  0.19537562396E+04  0.23796514289E+04  0.89897473166E+03 0.  0.
         23    2    4    4    0    0 -0.34427771512E+03 -0.12166014913E+03  0.11080468171E+04  0.11701632222E+04  0.90475856296E+02 0.  0.
         23    2    4    4    0    0  0.63347409095E+02 -0.85737002105E+03  0.84570942254E+03  0.12094882067E+04  0.92417788661E+02 0.  0.
          3    1    3    3  502    0  0.56486927105E+02  0.13465376229E+03 -0.24058964111E+02  0.14799068344E+03  0.00000000000E+00 0. -1.
         -3    1    3    3    0  502  0.22444337892E+03  0.84437640789E+03  0.43339620144E+02  0.87477121078E+03  0.00000000000E+00 0.  1.
         11    1    5    5    0    0 -0.76356952919E+02 -0.60567422866E+02  0.22124141862E+03  0.24175723833E+03  0.00000000000E+00 0.  1.
        -11    1    5    5    0    0 -0.26792076220E+03 -0.61092726265E+02  0.88680539848E+03  0.92840598382E+03  0.00000000000E+00 0. -1.
          3    1    6    6  503    0  0.76893755144E+02 -0.68239136103E+03  0.63547379229E+03  0.93562682725E+03  0.00000000000E+00 0. -1.
         -3    1    6    6    0  503 -0.13546346048E+02 -0.17497866002E+03  0.21023563025E+03  0.27386137949E+03  0.00000000000E+00 0.  1.
<mgrwt>
<rscale>  0 0.27719202E+04</rscale>
<asrwt>0</asrwt>
<pdfrwt beam="1">  1        1 0.41349616E+00 0.27719202E+04</pdfrwt>
<pdfrwt beam="2">  1       -1 0.10995203E+00 0.27719202E+04</pdfrwt>
<totfact> 0.66339604E-01</totfact>
</mgrwt>
</event>
<event>
12    2  0.3555611E-008  0.2224440E+04  0.7818608E-02  0.8508324E-01
          2   -1    0    0  501    0  0.00000000000E+00  0.00000000000E+00  0.15307489811E+04  0.15307489811E+04  0.00000000000E+00 0. -1.
         -2   -1    0    0    0  501 -0.00000000000E+00 -0.00000000000E+00 -0.80812294355E+03  0.80812294355E+03  0.00000000000E+00 0.  1.
         23    2    1    2    0    0  0.65224166048E+02 -0.87252476586E+03  0.63168696423E+03  0.10837943014E+04  0.10013994249E+03 0.  0.
        254    2    1    2    0    0 -0.65224166048E+02  0.87252476586E+03  0.90939073322E+02  0.12550776233E+04  0.89520738741E+03 0.  0.
         23    2    4    4    0    0  0.15330879649E+03 -0.88024446815E+02 -0.13384513278E+03  0.23955697567E+03  0.90670473168E+02 0.  0.
         23    2    4    4    0    0 -0.21853296254E+03  0.96054921267E+03  0.22478420610E+03  0.10155206476E+04  0.10169956092E+03 0.  0.
          1    1    3    3  502    0  0.44627212940E+02 -0.75824192161E+03  0.58463844931E+03  0.95850118218E+03  0.00000000000E+00 0. -1.
         -1    1    3    3    0  502  0.20596953107E+02 -0.11428284424E+03  0.47048514915E+02  0.12529311921E+03  0.00000000000E+00 0.  1.
         11    1    5    5    0    0  0.16541140002E+03 -0.84452467215E+02 -0.12171408820E+03  0.22205285349E+03  0.00000000000E+00 0. -1.
        -11    1    5    5    0    0 -0.12102603537E+02 -0.35719796003E+01 -0.12131044573E+02  0.17504122173E+02  0.00000000000E+00 0.  1.
          1    1    6    6  503    0 -0.32899192847E+02  0.70203670006E+02 -0.42075482284E+01  0.77644160337E+02  0.00000000000E+00 0. -1.
         -1    1    6    6    0  503 -0.18563376969E+03  0.89034554266E+03  0.22899175433E+03  0.93787648725E+03  0.00000000000E+00 0.  1.
<mgrwt>
<rscale>  0 0.22244400E+04</rscale>
<asrwt>0</asrwt>
<pdfrwt beam="1">  1        2 0.23549984E+00 0.22244400E+04</pdfrwt>
<pdfrwt beam="2">  1       -2 0.12432661E+00 0.22244400E+04</pdfrwt>
<totfact> 0.54083971E+00</totfact>
</mgrwt>
</event>
<event>
12    2  0.3555611E-008  0.1097468E+04  0.7818608E-02  0.9207663E-01
         -2   -1    0    0    0  501 -0.00000000000E+00  0.00000000000E+00  0.14489967480E+03  0.14489967480E+03  0.00000000000E+00 0. -1.
          2   -1    0    0  501    0  0.00000000000E+00 -0.00000000000E+00 -0.20780524833E+04  0.20780524833E+04  0.00000000000E+00 0.  1.
         23    2    1    2    0    0 -0.10595245260E+03 -0.10913410222E+03 -0.35850307726E+03  0.40023250686E+03  0.92333247878E+02 0.  0.
        254    2    1    2    0    0  0.10595245260E+03  0.10913410222E+03 -0.15746497313E+04  0.18227196513E+04  0.90534467275E+03 0.  0.
         23    2    4    4    0    0 -0.17792512929E+03 -0.12974533663E+03 -0.13663625527E+04  0.13869665720E+04  0.90765866703E+02 0.  0.
         23    2    4    4    0    0  0.28387758188E+03  0.23887943884E+03 -0.20828717859E+03  0.43575307924E+03  0.94060244030E+02 0.  0.
          3    1    3    3  502    0 -0.34750210786E+02 -0.84546925849E+02 -0.12484434443E+03  0.15473160684E+03  0.00000000000E+00 0. -1.
         -3    1    3    3    0  502 -0.71202241811E+02 -0.24587176367E+02 -0.23365873283E+03  0.24550090001E+03  0.00000000000E+00 0.  1.
         11    1    5    5    0    0 -0.45693784537E+02 -0.87819292430E+02 -0.61218370711E+03  0.62013630866E+03  0.00000000000E+00 0.  1.
        -11    1    5    5    0    0 -0.13223134475E+03 -0.41926044197E+02 -0.75417884559E+03  0.76683026339E+03  0.00000000000E+00 0. -1.
          3    1    6    6  503    0  0.12361132193E+03  0.46328586460E+02 -0.64893540076E+02  0.14709611952E+03  0.00000000000E+00 0. -1.
         -3    1    6    6    0  503  0.16026625995E+03  0.19255085238E+03 -0.14339363851E+03  0.28865695972E+03  0.00000000000E+00 0.  1.
<mgrwt>
<rscale>  0 0.10974682E+04</rscale>
<asrwt>0</asrwt>
<pdfrwt beam="1">  1        2 0.31970039E+00 0.10974682E+04</pdfrwt>
<pdfrwt beam="2">  1       -2 0.22292257E-01 0.10974682E+04</pdfrwt>
<totfact> 0.10616548E+02</totfact>
</mgrwt>
</event>
<event>
12    2  0.3555611E-008  0.2776095E+04  0.7818608E-02  0.8310729E-01
          2   -1    0    0  501    0  0.00000000000E+00  0.00000000000E+00  0.15727627167E+04  0.15727627167E+04  0.00000000000E+00 0. -1.
         -2   -1    0    0    0  501 -0.00000000000E+00 -0.00000000000E+00 -0.12250262054E+04  0.12250262054E+04  0.00000000000E+00 0.  1.
         23    2    1    2    0    0  0.12137441460E+04 -0.18958499309E+03 -0.24019352485E+02  0.12319369824E+04  0.89299932050E+02 0.  0.
        254    2    1    2    0    0 -0.12137441460E+04  0.18958499309E+03  0.37175586371E+03  0.15658519396E+04  0.89697968381E+03 0.  0.
         23    2    4    4    0    0 -0.37574412502E+03  0.40499909402E+03 -0.11049287709E+03  0.57055083350E+03  0.90064777130E+02 0.  0.
         23    2    4    4    0    0 -0.83800002096E+03 -0.21541410093E+03  0.48224874081E+03  0.99530110615E+03  0.97021512411E+02 0.  0.
          1    1    3    3  502    0  0.15474356568E+02 -0.99508736578E+01 -0.82802773915E+01  0.20175197433E+02  0.00000000000E+00 0. -1.
         -1    1    3    3    0  502  0.11982697894E+04 -0.17963411943E+03 -0.15739075094E+02  0.12117617850E+04  0.00000000000E+00 0.  1.
         11    1    5    5    0    0 -0.35124536359E+03  0.38723238492E+03 -0.82395323080E+02  0.52925533974E+03  0.00000000000E+00 0. -1.
        -11    1    5    5    0    0 -0.24498761432E+02  0.17766709095E+02 -0.28097554013E+02  0.41295493765E+02  0.00000000000E+00 0.  1.
          1    1    6    6  503    0 -0.70784863245E+03 -0.19662549735E+03  0.37079039832E+03  0.82291967540E+03  0.00000000000E+00 0. -1.
         -1    1    6    6    0  503 -0.13015138851E+03 -0.18788603572E+02  0.11145834249E+03  0.17238143075E+03  0.00000000000E+00 0.  1.
<mgrwt>
<rscale>  0 0.27760948E+04</rscale>
<asrwt>0</asrwt>
<pdfrwt beam="1">  1        2 0.24196349E+00 0.27760948E+04</pdfrwt>
<pdfrwt beam="2">  1       -2 0.18846557E+00 0.27760948E+04</pdfrwt>
<totfact> 0.15987630E+00</totfact>
</mgrwt>
</event>
<event>
12    2  0.3555611E-008  0.1530003E+04  0.7818608E-02  0.8864743E-01
         -2   -1    0    0    0  501 -0.00000000000E+00  0.00000000000E+00  0.72681181237E+03  0.72681181237E+03  0.00000000000E+00 0. -1.
          2   -1    0    0  501    0  0.00000000000E+00 -0.00000000000E+00 -0.80519799859E+03  0.80519799859E+03  0.00000000000E+00 0.  1.
         23    2    1    2    0    0  0.19532385144E+03 -0.45653666230E+03 -0.15590075491E+02  0.50541345118E+03  0.92857822576E+02 0.  0.
        254    2    1    2    0    0 -0.19532385144E+03  0.45653666230E+03 -0.62796110729E+02  0.10265963598E+04  0.89631445565E+03 0.  0.
         23    2    4    4    0    0  0.31134782276E+02  0.50688630931E+02  0.36965018846E+03  0.38527889382E+03  0.90883729141E+02 0.  0.
         23    2    4    4    0    0 -0.22645863371E+03  0.40584803137E+03 -0.43244629919E+03  0.64131746595E+03  0.91006335512E+02 0.  0.
          1    1    3    3  502    0  0.18012078011E+03 -0.33203622962E+03  0.78000457049E+01  0.37782587778E+03  0.00000000000E+00 0. -1.
         -1    1    3    3    0  502  0.15203071322E+02 -0.12450043268E+03 -0.23390121196E+02  0.12758757340E+03  0.00000000000E+00 0.  1.
         11    1    5    5    0    0  0.55396560892E+02  0.20542486967E+02  0.29845558080E+03  0.30424744278E+03  0.00000000000E+00 0.  1.
        -11    1    5    5    0    0 -0.24261778617E+02  0.30146143964E+02  0.71194607663E+02  0.81031451041E+02  0.00000000000E+00 0. -1.
          2    1    6    6  503    0 -0.73496193082E+02  0.18071229005E+03 -0.13001329515E+03  0.23443992639E+03  0.00000000000E+00 0. -1.
         -2    1    6    6    0  503 -0.15296244063E+03  0.22513574132E+03 -0.30243300404E+03  0.40687753956E+03  0.00000000000E+00 0.  1.
<mgrwt>
<rscale>  0 0.15300032E+04</rscale>
<asrwt>0</asrwt>
<pdfrwt beam="1">  1        2 0.12387662E+00 0.15300032E+04</pdfrwt>
<pdfrwt beam="2">  1       -2 0.11181720E+00 0.15300032E+04</pdfrwt>
<totfact> 0.20787670E+01</totfact>
</mgrwt>
</event>
<event>
12    2  0.3555611E-008  0.1258620E+04  0.7818608E-02  0.9063039E-01
          1   -1    0    0  501    0  0.00000000000E+00  0.00000000000E+00  0.60386212795E+03  0.60386212795E+03  0.00000000000E+00 0. -1.
         -1   -1    0    0    0  501 -0.00000000000E+00 -0.00000000000E+00 -0.65583057494E+03  0.65583057494E+03  0.00000000000E+00 0.  1.
         23    2    1    2    0    0  0.45423724701E+02 -0.60817646420E+02  0.27307916847E+03  0.29666264889E+03  0.87603619301E+02 0.  0.
        254    2    1    2    0    0 -0.45423724701E+02  0.60817646420E+02 -0.32504761547E+03  0.96303005400E+03  0.90333207166E+03 0.  0.
         23    2    4    4    0    0  0.17202738433E+03  0.42193506102E+03 -0.24016160190E+03  0.52356610424E+03  0.93921530030E+02 0.  0.
         23    2    4    4    0    0 -0.21745110903E+03 -0.36111741460E+03 -0.84886013562E+02  0.43946394976E+03  0.90731228892E+02 0.  0.
          3    1    3    3  502    0  0.53052647834E+02 -0.69672959743E+02  0.27099075724E+03  0.28478921200E+03  0.00000000000E+00 0. -1.
         -3    1    3    3    0  502 -0.76289231328E+01  0.88553133230E+01  0.20884112294E+01  0.11873436894E+02  0.00000000000E+00 0.  1.
         11    1    5    5    0    0  0.16333067075E+03  0.29418638942E+03 -0.18668222146E+03  0.38480227590E+03  0.00000000000E+00 0. -1.
        -11    1    5    5    0    0  0.86967135735E+01  0.12774867160E+03 -0.53479380441E+02  0.13876382834E+03  0.00000000000E+00 0.  1.
          2    1    6    6  503    0 -0.12936671980E+03 -0.28837264079E+03 -0.49816943892E+02  0.31996289792E+03  0.00000000000E+00 0.  1.
         -2    1    6    6    0  503 -0.88084389233E+02 -0.72744773803E+02 -0.35069069670E+02  0.11950105184E+03  0.00000000000E+00 0. -1.
<mgrwt>
<rscale>  0 0.12586203E+04</rscale>
<asrwt>0</asrwt>
<pdfrwt beam="1">  1        1 0.92901866E-01 0.12586203E+04</pdfrwt>
<pdfrwt beam="2">  1       -1 0.10089701E+00 0.12586203E+04</pdfrwt>
<totfact> 0.31242010E+01</totfact>
</mgrwt>
</event>
<event>
12    2  0.3555611E-008  0.1842434E+04  0.7818608E-02  0.8684053E-01
         -1   -1    0    0    0  501 -0.00000000000E+00  0.00000000000E+00  0.78318809542E+03  0.78318809542E+03  0.00000000000E+00 0.  1.
          1   -1    0    0  501    0  0.00000000000E+00 -0.00000000000E+00 -0.10835722955E+04  0.10835722955E+04  0.00000000000E+00 0. -1.
         23    2    1    2    0    0  0.35919974870E+03 -0.57083665732E+03 -0.17206391419E+01  0.68279318363E+03  0.10641720820E+03 0.  0.
        254    2    1    2    0    0 -0.35919974870E+03  0.57083665732E+03 -0.29866356094E+03  0.11839672073E+04  0.92612065979E+03 0.  0.
         23    2    4    4    0    0 -0.13782289262E+03 -0.21185841759E+03 -0.24489771295E+03  0.36376635134E+03  0.92043086252E+02 0.  0.
         23    2    4    4    0    0 -0.22137685608E+03  0.78269507492E+03 -0.53765847994E+02  0.82020085595E+03  0.90660823865E+02 0.  0.
          4    1    3    3  502    0  0.33811509305E+02 -0.94914248045E+02  0.30781874626E+02  0.10535395792E+03  0.00000000000E+00 0. -1.
         -4    1    3    3    0  502  0.32538823939E+03 -0.47592240928E+03 -0.32502513767E+02  0.57743922571E+03  0.00000000000E+00 0.  1.
         11    1    5    5    0    0 -0.56653171073E+02 -0.16579104281E+03 -0.16963966586E+03  0.24387264689E+03  0.00000000000E+00 0.  1.
        -11    1    5    5    0    0 -0.81169721549E+02 -0.46067374782E+02 -0.75258047093E+02  0.11989370445E+03  0.00000000000E+00 0. -1.
          4    1    6    6  503    0 -0.36928468509E+02  0.25552998758E+03 -0.41976367975E+02  0.26157465819E+03  0.00000000000E+00 0. -1.
         -4    1    6    6    0  503 -0.18444838757E+03  0.52716508733E+03 -0.11789480018E+02  0.55862619776E+03  0.00000000000E+00 0.  1.
<mgrwt>
<rscale>  0 0.18424342E+04</rscale>
<asrwt>0</asrwt>
<pdfrwt beam="1">  1        1 0.16670343E+00 0.18424342E+04</pdfrwt>
<pdfrwt beam="2">  1       -1 0.12049048E+00 0.18424342E+04</pdfrwt>
<totfact> 0.75192959E+00</totfact>
</mgrwt>
</event>
<event>
12    2  0.3555611E-008  0.2120292E+04  0.7818608E-02  0.8552357E-01
         -1   -1    0    0    0  501 -0.00000000000E+00  0.00000000000E+00  0.57739575806E+03  0.57739575806E+03  0.00000000000E+00 0.  1.
          1   -1    0    0  501    0  0.00000000000E+00 -0.00000000000E+00 -0.19465143540E+04  0.19465143540E+04  0.00000000000E+00 0. -1.
         23    2    1    2    0    0  0.62473712101E+03  0.52744576644E+03 -0.21564136413E+03  0.85054865659E+03  0.91849400643E+02 0.  0.
        254    2    1    2    0    0 -0.62473712101E+03 -0.52744576644E+03 -0.11534772318E+04  0.16733614555E+04  0.89506051721E+03 0.  0.
         23    2    4    4    0    0 -0.43809311609E+03 -0.64536858103E+03 -0.39687761557E+03  0.87983980421E+03  0.90443659738E+02 0.  0.
         23    2    4    4    0    0 -0.18664400492E+03  0.11792281459E+03 -0.75659961627E+03  0.79352165129E+03  0.92151272099E+02 0.  0.
          1    1    3    3  502    0  0.47658590826E+02  0.35345538790E+02 -0.41491940006E+02  0.72403242175E+02  0.00000000000E+00 0. -1.
         -1    1    3    3    0  502  0.57707853019E+03  0.49210022765E+03 -0.17414942413E+03  0.77814541442E+03  0.00000000000E+00 0.  1.
         11    1    5    5    0    0 -0.34149547426E+03 -0.45655154397E+03 -0.32283305014E+03  0.65519436010E+03  0.00000000000E+00 0.  1.
        -11    1    5    5    0    0 -0.96597641835E+02 -0.18881703706E+03 -0.74044565432E+02  0.22464544411E+03  0.00000000000E+00 0. -1.
          3    1    6    6  503    0 -0.17029206762E+01  0.45821070114E+01  0.14101758417E+01  0.50876555896E+01  0.00000000000E+00 0. -1.
         -3    1    6    6    0  503 -0.18494108424E+03  0.11334070757E+03 -0.75800979211E+03  0.78843399570E+03  0.00000000000E+00 0.  1.
<mgrwt>
<rscale>  0 0.21202916E+04</rscale>
<asrwt>0</asrwt>
<pdfrwt beam="1">  1        1 0.29946374E+00 0.21202916E+04</pdfrwt>
<pdfrwt beam="2">  1       -1 0.88830117E-01 0.21202916E+04</pdfrwt>
<totfact> 0.36975229E+00</totfact>
</mgrwt>
</event>
<event>
12    2  0.3555611E-008  0.1357033E+04  0.7818608E-02  0.8985521E-01
          1   -1    0    0  501    0  0.00000000000E+00  0.00000000000E+00  0.85669460440E+03  0.85669460440E+03  0.00000000000E+00 0. -1.
         -1   -1    0    0    0  501 -0.00000000000E+00 -0.00000000000E+00 -0.53739645055E+03  0.53739645055E+03  0.00000000000E+00 0.  1.
         23    2    1    2    0    0 -0.35923220866E+03 -0.13790801000E+03  0.43711966640E+01  0.39596325749E+03  0.93281268006E+02 0.  0.
        254    2    1    2    0    0  0.35923220866E+03  0.13790801000E+03  0.31492695718E+03  0.99812779746E+03  0.86545578324E+03 0.  0.
         23    2    4    4    0    0  0.54051790023E+03 -0.63227982562E+02 -0.26287205925E+02  0.55245621533E+03  0.91430161371E+02 0.  0.
         23    2    4    4    0    0 -0.18128569158E+03  0.20113599257E+03  0.34121416311E+03  0.44567158213E+03  0.94211806773E+02 0.  0.
          3    1    3    3  502    0 -0.12485711741E+03 -0.17645145522E+02  0.34723738577E+02  0.13079139478E+03  0.00000000000E+00 0. -1.
         -3    1    3    3    0  502 -0.23437509125E+03 -0.12026286448E+03 -0.30352541913E+02  0.26517186271E+03  0.00000000000E+00 0.  1.
         11    1    5    5    0    0  0.52427003790E+03 -0.49347398483E+02 -0.11950616003E+02  0.52672294007E+03  0.00000000000E+00 0. -1.
        -11    1    5    5    0    0  0.16247862333E+02 -0.13880584079E+02 -0.14336589922E+02  0.25733275255E+02  0.00000000000E+00 0.  1.
          3    1    6    6  503    0 -0.17145572369E+03  0.14117884729E+03  0.23528242612E+03  0.32355270382E+03  0.00000000000E+00 0. -1.
         -3    1    6    6    0  503 -0.98299678878E+01  0.59957145278E+02  0.10593173698E+03  0.12211887831E+03  0.00000000000E+00 0.  1.
<mgrwt>
<rscale>  0 0.13570330E+04</rscale>
<asrwt>0</asrwt>
<pdfrwt beam="1">  1        1 0.13179917E+00 0.13570330E+04</pdfrwt>
<pdfrwt beam="2">  1       -1 0.82676377E-01 0.13570330E+04</pdfrwt>
<totfact> 0.28124529E+01</totfact>
</mgrwt>
</event>
<event>
12    2  0.3555611E-008  0.2246257E+04  0.7818608E-02  0.8499418E-01
          3   -1    0    0  501    0  0.00000000000E+00  0.00000000000E+00  0.23434330324E+04  0.23434330324E+04  0.00000000000E+00 0. -1.
         -3   -1    0    0    0  501 -0.00000000000E+00 -0.00000000000E+00 -0.53827777050E+03  0.53827777050E+03  0.00000000000E+00 0.  1.
         23    2    1    2    0    0 -0.70713723126E+03 -0.15558910268E+03  0.15415644439E+04  0.17056090198E+04  0.91815907319E+02 0.  0.
        254    2    1    2    0    0  0.70713723126E+03  0.15558910268E+03  0.26359081800E+03  0.11761017831E+04  0.88852926360E+03 0.  0.
         23    2    4    4    0    0  0.81814782672E+03  0.31549872820E+03  0.66156959362E+02  0.88417655466E+03  0.92120153450E+02 0.  0.
         23    2    4    4    0    0 -0.11101059546E+03 -0.15990962553E+03  0.19743385864E+03  0.29192522849E+03  0.91355185122E+02 0.  0.
          4    1    3    3  502    0 -0.59481224416E+03 -0.99027089875E+02  0.13092603667E+04  0.14414474247E+04  0.00000000000E+00 0. -1.
         -4    1    3    3    0  502 -0.11232498711E+03 -0.56562012800E+02  0.23230407720E+03  0.26416159506E+03  0.00000000000E+00 0.  1.
         11    1    5    5    0    0  0.16526214459E+03  0.42566720267E+02 -0.17770857229E+02  0.17157886081E+03  0.00000000000E+00 0. -1.
        -11    1    5    5    0    0  0.65288568213E+03  0.27293200794E+03  0.83927816592E+02  0.71259769385E+03  0.00000000000E+00 0.  1.
          3    1    6    6  503    0 -0.32231310587E+02 -0.50689774724E+02  0.12576699489E+03  0.13937592205E+03  0.00000000000E+00 0. -1.
         -3    1    6    6    0  503 -0.78779284872E+02 -0.10921985080E+03  0.71666863752E+02  0.15254930644E+03  0.00000000000E+00 0.  1.
<mgrwt>
<rscale>  0 0.22462572E+04</rscale>
<asrwt>0</asrwt>
<pdfrwt beam="1">  1        3 0.36052815E+00 0.22462572E+04</pdfrwt>
<pdfrwt beam="2">  1       -3 0.82811966E-01 0.22462572E+04</pdfrwt>
<totfact> 0.57940791E-02</totfact>
</mgrwt>
</event>
<event>
12    2  0.3555611E-008  0.1590579E+04  0.7818608E-02  0.8826357E-01
         -2   -1    0    0    0  501 -0.00000000000E+00  0.00000000000E+00  0.46413212467E+03  0.46413212467E+03  0.00000000000E+00 0.  1.
          2   -1    0    0  501    0  0.00000000000E+00 -0.00000000000E+00 -0.13627263037E+04  0.13627263037E+04  0.00000000000E+00 0. -1.
         23    2    1    2    0    0  0.71245320556E+02 -0.17998001954E+03 -0.87812376236E+03  0.90364192076E+03  0.89435316322E+02 0.  0.
        254    2    1    2    0    0 -0.71245320556E+02  0.17998001954E+03 -0.20470416719E+02  0.92321650765E+03  0.90246383800E+03 0.  0.
         23    2    4    4    0    0 -0.29914264873E+03  0.33916988225E+03 -0.27397403550E+03  0.53635754992E+03  0.89972862096E+02 0.  0.
         23    2    4    4    0    0  0.22789732818E+03 -0.15918986271E+03  0.25350361878E+03  0.38685895772E+03  0.90095304291E+02 0.  0.
          2    1    3    3  502    0  0.71956156579E+02 -0.86496747086E+02 -0.59311299349E+03  0.60369064824E+03  0.00000000000E+00 0. -1.
         -2    1    3    3    0  502 -0.71083602336E+00 -0.93483272452E+02 -0.28501076886E+03  0.29995127251E+03  0.00000000000E+00 0.  1.
         11    1    5    5    0    0 -0.26999648259E+03  0.27535105580E+03 -0.25922288365E+03  0.46466418837E+03  0.00000000000E+00 0.  1.
        -11    1    5    5    0    0 -0.29146166143E+02  0.63818826450E+02 -0.14751151847E+02  0.71693361555E+02  0.00000000000E+00 0. -1.
          3    1    6    6  503    0  0.48424124401E+02 -0.14186581871E+02  0.10070903872E+02  0.51454621114E+02  0.00000000000E+00 0. -1.
         -3    1    6    6    0  503  0.17947320378E+03 -0.14500328084E+03  0.24343271491E+03  0.33540433661E+03  0.00000000000E+00 0.  1.
<mgrwt>
<rscale>  0 0.15905786E+04</rscale>
<asrwt>0</asrwt>
<pdfrwt beam="1">  1        2 0.20965020E+00 0.15905786E+04</pdfrwt>
<pdfrwt beam="2">  1       -2 0.71404942E-01 0.15905786E+04</pdfrwt>
<totfact> 0.25963487E+01</totfact>
</mgrwt>
</event>
<event>
12    2  0.3555611E-008  0.1581594E+04  0.7818608E-02  0.8831936E-01
          1   -1    0    0  501    0  0.00000000000E+00  0.00000000000E+00  0.54006951035E+03  0.54006951035E+03  0.00000000000E+00 0. -1.
         -1   -1    0    0    0  501 -0.00000000000E+00 -0.00000000000E+00 -0.11579241375E+04  0.11579241375E+04  0.00000000000E+00 0.  1.
         23    2    1    2    0    0 -0.79892330867E+02  0.25453960846E+03 -0.70547732894E+03  0.75936954014E+03  0.88151233889E+02 0.  0.
        254    2    1    2    0    0  0.79892330867E+02 -0.25453960846E+03  0.87622701745E+02  0.93862410775E+03  0.89563624368E+03 0.  0.
         23    2    4    4    0    0  0.72097886355E+02  0.32313609637E+03  0.85002143917E+02  0.35377942615E+03  0.91211161054E+02 0.  0.
         23    2    4    4    0    0  0.77944445118E+01 -0.57767570483E+03  0.26205578279E+01  0.58484468161E+03  0.90920080091E+02 0.  0.
          2    1    3    3  502    0  0.78002240460E+01  0.80694319331E+02 -0.14628123926E+03  0.16724418563E+03  0.00000000000E+00 0. -1.
         -2    1    3    3    0  502 -0.87692554913E+02  0.17384528913E+03 -0.55919608968E+03  0.59212535451E+03  0.00000000000E+00 0.  1.
         11    1    5    5    0    0  0.86930439406E+02  0.18972025862E+03  0.42479040165E+02  0.21296747798E+03  0.00000000000E+00 0.  1.
        -11    1    5    5    0    0 -0.14832553051E+02  0.13341583775E+03  0.42523103752E+02  0.14081194816E+03  0.00000000000E+00 0. -1.
          1    1    6    6  503    0  0.48267239568E+02 -0.35385246916E+03 -0.68438344994E+01  0.35719481297E+03  0.00000000000E+00 0. -1.
         -1    1    6    6    0  503 -0.40472795056E+02 -0.22382323567E+03  0.94643923273E+01  0.22764986863E+03  0.00000000000E+00 0.  1.
<mgrwt>
<rscale>  0 0.15815935E+04</rscale>
<asrwt>0</asrwt>
<pdfrwt beam="1">  1        1 0.83087618E-01 0.15815935E+04</pdfrwt>
<pdfrwt beam="2">  1       -1 0.17814217E+00 0.15815935E+04</pdfrwt>
<totfact> 0.82080777E+00</totfact>
</mgrwt>
</event>
<event>
12    2  0.3555611E-008  0.1946428E+04  0.7818608E-02  0.8632085E-01
          1   -1    0    0  501    0  0.00000000000E+00  0.00000000000E+00  0.16166910396E+04  0.16166910396E+04  0.00000000000E+00 0. -1.
         -1   -1    0    0    0  501 -0.00000000000E+00 -0.00000000000E+00 -0.58585409346E+03  0.58585409346E+03  0.00000000000E+00 0.  1.
         23    2    1    2    0    0 -0.18503568868E+03 -0.46099757691E+03  0.10709178576E+04  0.11840348112E+04  0.91194323077E+02 0.  0.
        254    2    1    2    0    0  0.18503568868E+03  0.46099757691E+03 -0.40080911478E+02  0.10185103218E+04  0.88825662063E+03 0.  0.
         23    2    4    4    0    0  0.35480239408E+03  0.64643029477E+03  0.21018332794E+02  0.74327884421E+03  0.90910973442E+02 0.  0.
         23    2    4    4    0    0 -0.16976670540E+03 -0.18543271786E+03 -0.61099244272E+02  0.27523147757E+03  0.93878759460E+02 0.  0.
          1    1    3    3  502    0 -0.28757772439E+02 -0.18806528316E+03  0.42321641915E+03  0.46401260505E+03  0.00000000000E+00 0. -1.
         -1    1    3    3    0  502 -0.15627791624E+03 -0.27293229375E+03  0.64770143843E+03  0.72002220620E+03  0.00000000000E+00 0.  1.
         11    1    5    5    0    0  0.31718899253E+03  0.61708540237E+03  0.31060043255E+02  0.69452716080E+03  0.00000000000E+00 0. -1.
        -11    1    5    5    0    0  0.37613401552E+02  0.29344892398E+02 -0.10041710461E+02  0.48751683408E+02  0.00000000000E+00 0.  1.
          1    1    6    6  503    0 -0.14965315398E+03 -0.19510133496E+03 -0.58612382926E+02  0.25277659866E+03  0.00000000000E+00 0. -1.
         -1    1    6    6    0  503 -0.20113551424E+02  0.96686170969E+01 -0.24868613460E+01  0.22454878909E+02  0.00000000000E+00 0.  1.
<mgrwt>
<rscale>  0 0.19464276E+04</rscale>
<asrwt>0</asrwt>
<pdfrwt beam="1">  1        1 0.24872170E+00 0.19464276E+04</pdfrwt>
<pdfrwt beam="2">  1       -1 0.90131400E-01 0.19464276E+04</pdfrwt>
<totfact> 0.60977259E+00</totfact>
</mgrwt>
</event>
<event>
12    2  0.3555611E-008  0.1627694E+04  0.7818608E-02  0.8803713E-01
         -2   -1    0    0    0  501 -0.00000000000E+00  0.00000000000E+00  0.22012125075E+03  0.22012125075E+03  0.00000000000E+00 0.  1.
          2   -1    0    0  501    0  0.00000000000E+00 -0.00000000000E+00 -0.30090108919E+04  0.30090108919E+04  0.00000000000E+00 0. -1.
         23    2    1    2    0    0  0.51932044569E+03  0.14746390187E+03 -0.12750928312E+04  0.13878003915E+04  0.93214113559E+02 0.  0.
        254    2    1    2    0    0 -0.51932044569E+03 -0.14746390187E+03 -0.15137968100E+04  0.18413317511E+04  0.89860030498E+03 0.  0.
         23    2    4    4    0    0 -0.26142498166E+03 -0.40459017196E+03 -0.13412872454E+04  0.14280808666E+04  0.91253813923E+02 0.  0.
         23    2    4    4    0    0 -0.25789546403E+03  0.25712627009E+03 -0.17250956456E+03  0.41325088452E+03  0.91611978206E+02 0.  0.
          1    1    3    3  502    0  0.38147282323E+03  0.68039567547E+02 -0.86007641663E+03  0.94333575150E+03  0.00000000000E+00 0. -1.
         -1    1    3    3    0  502  0.13784762246E+03  0.79424334321E+02 -0.41501641452E+03  0.44446464001E+03  0.00000000000E+00 0.  1.
         11    1    5    5    0    0 -0.19055222630E+03 -0.27778236724E+03 -0.10476514870E+04  0.11004757302E+04  0.00000000000E+00 0.  1.
        -11    1    5    5    0    0 -0.70872755364E+02 -0.12680780472E+03 -0.29363575841E+03  0.32760513642E+03  0.00000000000E+00 0. -1.
          3    1    6    6  503    0 -0.21221943611E+03  0.22696970125E+03 -0.17823700554E+03  0.35821887791E+03  0.00000000000E+00 0. -1.
         -3    1    6    6    0  503 -0.45676027918E+02  0.30156568844E+02  0.57274409802E+01  0.55032006606E+02  0.00000000000E+00 0.  1.
<mgrwt>
<rscale>  0 0.16276944E+04</rscale>
<asrwt>0</asrwt>
<pdfrwt beam="1">  1        2 0.46292472E+00 0.16276944E+04</pdfrwt>
<pdfrwt beam="2">  1       -2 0.33864810E-01 0.16276944E+04</pdfrwt>
<totfact> 0.13494743E+01</totfact>
</mgrwt>
</event>
<event>
12    2  0.3555611E-008  0.2182975E+04  0.7818608E-02  0.8525548E-01
          1   -1    0    0  501    0  0.00000000000E+00  0.00000000000E+00  0.68913420158E+03  0.68913420158E+03  0.00000000000E+00 0. -1.
         -1   -1    0    0    0  501 -0.00000000000E+00 -0.00000000000E+00 -0.17287563310E+04  0.17287563310E+04  0.00000000000E+00 0.  1.
         23    2    1    2    0    0 -0.11567810050E+03  0.13703928198E+03  0.54826195948E+03  0.58410481922E+03  0.91793659221E+02 0.  0.
        254    2    1    2    0    0  0.11567810050E+03 -0.13703928198E+03 -0.15878840889E+04  0.18337857133E+04  0.89957377408E+03 0.  0.
         23    2    4    4    0    0  0.37159355069E+03  0.23199195676E+03 -0.93930535590E+03  0.10398283889E+04  0.83943384943E+02 0.  0.
         23    2    4    4    0    0 -0.25591545018E+03 -0.36903123874E+03 -0.64857873297E+03  0.79395732441E+03  0.89649803772E+02 0.  0.
          2    1    3    3  502    0 -0.95726524491E+02  0.12328422423E+03  0.53319017500E+03  0.55556667480E+03  0.00000000000E+00 0. -1.
         -2    1    3    3    0  502 -0.19951576013E+02  0.13755057748E+02  0.15071784486E+02  0.28538144415E+02  0.00000000000E+00 0.  1.
         11    1    5    5    0    0  0.35508010987E+03  0.19430755627E+03 -0.85953667918E+03  0.95007400434E+03  0.00000000000E+00 0.  1.
        -11    1    5    5    0    0  0.16513440814E+02  0.37684400491E+02 -0.79768676717E+02  0.89754384590E+02  0.00000000000E+00 0. -1.
          4    1    6    6  503    0  0.58679224283E+01 -0.38975233825E+01 -0.35685210862E+01  0.78966793581E+01  0.00000000000E+00 0. -1.
         -4    1    6    6    0  503 -0.26178337261E+03 -0.36513371536E+03 -0.64501021189E+03  0.78606064506E+03  0.00000000000E+00 0.  1.
<mgrwt>
<rscale>  0 0.21829751E+04</rscale>
<asrwt>0</asrwt>
<pdfrwt beam="1">  1        1 0.10602065E+00 0.21829751E+04</pdfrwt>
<pdfrwt beam="2">  1       -1 0.26596251E+00 0.21829751E+04</pdfrwt>
<totfact> 0.13981690E+00</totfact>
</mgrwt>
</event>
<event>
12    2  0.3555611E-008  0.1905747E+04  0.7818608E-02  0.8652001E-01
         -2   -1    0    0    0  501 -0.00000000000E+00  0.00000000000E+00  0.80167337348E+03  0.80167337348E+03  0.00000000000E+00 0. -1.
          2   -1    0    0  501    0  0.00000000000E+00 -0.00000000000E+00 -0.11325904992E+04  0.11325904992E+04  0.00000000000E+00 0.  1.
         23    2    1    2    0    0 -0.28036362161E+03 -0.32848691091E+03 -0.73677578038E+03  0.85895664652E+03  0.91981297478E+02 0.  0.
        254    2    1    2    0    0  0.28036362161E+03  0.32848691091E+03  0.40585865464E+03  0.10753072262E+04  0.89724967103E+03 0.  0.
         23    2    4    4    0    0  0.26894167208E+03  0.25091916260E+03 -0.21829824471E+03  0.43859983144E+03  0.97085731979E+02 0.  0.
         23    2    4    4    0    0  0.11421949529E+02  0.77567748312E+02  0.62415689935E+03  0.63670739474E+03  0.98373040046E+02 0.  0.
          2    1    3    3  502    0 -0.19322069005E+03 -0.15824866814E+03 -0.43842610803E+03  0.50457341213E+03  0.00000000000E+00 0. -1.
         -2    1    3    3    0  502 -0.87142931558E+02 -0.17023824277E+03 -0.29834967236E+03  0.35438323439E+03  0.00000000000E+00 0.  1.
         11    1    5    5    0    0  0.14377880769E+03  0.69344160809E+02 -0.83781894988E+02  0.18027857362E+03  0.00000000000E+00 0. -1.
        -11    1    5    5    0    0  0.12516286438E+03  0.18157500179E+03 -0.13451634972E+03  0.25832125781E+03  0.00000000000E+00 0.  1.
          4    1    6    6  503    0  0.25358683796E+02  0.51464834006E+02  0.13537843468E+03  0.14703405238E+03  0.00000000000E+00 0. -1.
         -4    1    6    6    0  503 -0.13936734267E+02  0.26102914305E+02  0.48877846467E+03  0.48967334236E+03  0.00000000000E+00 0.  1.
<mgrwt>
<rscale>  0 0.19057467E+04</rscale>
<asrwt>0</asrwt>
<pdfrwt beam="1">  1        2 0.17424469E+00 0.19057467E+04</pdfrwt>
<pdfrwt beam="2">  1       -2 0.12333436E+00 0.19057467E+04</pdfrwt>
<totfact> 0.96589864E+00</totfact>
</mgrwt>
</event>
<event>
12    2  0.3555611E-008  0.1380005E+04  0.7818608E-02  0.8968420E-01
          2   -1    0    0  501    0  0.00000000000E+00  0.00000000000E+00  0.57758815762E+03  0.57758815762E+03  0.00000000000E+00 0. -1.
         -2   -1    0    0    0  501 -0.00000000000E+00 -0.00000000000E+00 -0.82429593769E+03  0.82429593769E+03  0.00000000000E+00 0.  1.
         23    2    1    2    0    0 -0.24973063680E+03  0.14229174427E+02  0.22078886958E+03  0.34644347518E+03  0.93313965735E+02 0.  0.
        254    2    1    2    0    0  0.24973063680E+03 -0.14229174427E+02 -0.46749664965E+03  0.10554406201E+04  0.91259735088E+03 0.  0.
         23    2    4    4    0    0  0.27009926032E+03 -0.37383840933E+03 -0.18824238128E+02  0.47262895439E+03  0.10156283707E+03 0.  0.
         23    2    4    4    0    0 -0.20368623515E+02  0.35960923490E+03 -0.44867241153E+03  0.58281166575E+03  0.92891453921E+02 0.  0.
          3    1    3    3  502    0 -0.17475581031E+03  0.43380050329E+02  0.11541437577E+03  0.21387356110E+03  0.00000000000E+00 0. -1.
         -3    1    3    3    0  502 -0.74974826495E+02 -0.29150875902E+02  0.10537449381E+03  0.13256991408E+03  0.00000000000E+00 0.  1.
         11    1    5    5    0    0  0.11886190849E+03 -0.98493629286E+02 -0.34189458969E+02  0.15810777148E+03  0.00000000000E+00 0. -1.
        -11    1    5    5    0    0  0.15123735183E+03 -0.27534478004E+03  0.15365220841E+02  0.31452118291E+03  0.00000000000E+00 0.  1.
          2    1    6    6  503    0 -0.32840766363E+02  0.50665954100E+02 -0.50686596027E+02  0.78833278867E+02  0.00000000000E+00 0. -1.
         -2    1    6    6    0  503  0.12472142848E+02  0.30894328080E+03 -0.39798581550E+03  0.50397838688E+03  0.00000000000E+00 0.  1.
<mgrwt>
<rscale>  0 0.13800052E+04</rscale>
<asrwt>0</asrwt>
<pdfrwt beam="1">  1        2 0.88859717E-01 0.13800052E+04</pdfrwt>
<pdfrwt beam="2">  1       -2 0.12681476E+00 0.13800052E+04</pdfrwt>
<totfact> 0.23395159E+01</totfact>
</mgrwt>
</event>
<event>
12    2  0.3555611E-008  0.1672380E+04  0.7818608E-02  0.8777276E-01
          1   -1    0    0  501    0  0.00000000000E+00  0.00000000000E+00  0.58809356121E+03  0.58809356121E+03  0.00000000000E+00 0. -1.
         -1   -1    0    0    0  501 -0.00000000000E+00 -0.00000000000E+00 -0.11889494937E+04  0.11889494937E+04  0.00000000000E+00 0.  1.
         23    2    1    2    0    0 -0.36050980726E+03  0.12920608314E+03  0.25789610193E+03  0.47062820953E+03  0.91208438012E+02 0.  0.
        254    2    1    2    0    0  0.36050980726E+03 -0.12920608314E+03 -0.85875203445E+03  0.13064148454E+04  0.90697472874E+03 0.  0.
         23    2    4    4    0    0 -0.12244227660E+03 -0.21586324780E+03 -0.75067220603E+03  0.79574812131E+03  0.90095831275E+02 0.  0.
         23    2    4    4    0    0  0.48295208386E+03  0.86657164657E+02 -0.10807982842E+03  0.51066672410E+03  0.91362324251E+02 0.  0.
          1    1    3    3  502    0 -0.31996604513E+03  0.10480741170E+03  0.25653706963E+03  0.42328965458E+03  0.00000000000E+00 0. -1.
         -1    1    3    3    0  502 -0.40543762129E+02  0.24398671438E+02  0.13590322991E+01  0.47338554945E+02  0.00000000000E+00 0.  1.
         11    1    5    5    0    0 -0.12245124813E+03 -0.22431759869E+03 -0.72713125474E+03  0.77073507438E+03  0.00000000000E+00 0. -1.
        -11    1    5    5    0    0  0.89715279685E-02  0.84543508885E+01 -0.23540951284E+02  0.25013046931E+02  0.00000000000E+00 0.  1.
          2    1    6    6  503    0  0.47239028034E+03  0.74745423199E+02 -0.90150122611E+02  0.48668932581E+03  0.00000000000E+00 0. -1.
         -2    1    6    6    0  503  0.10561803524E+02  0.11911741457E+02 -0.17929705809E+02  0.23977398287E+02  0.00000000000E+00 0.  1.
<mgrwt>
<rscale>  0 0.16723798E+04</rscale>
<asrwt>0</asrwt>
<pdfrwt beam="1">  1        1 0.90475932E-01 0.16723798E+04</pdfrwt>
<pdfrwt beam="2">  1       -1 0.18291531E+00 0.16723798E+04</pdfrwt>
<totfact> 0.66683648E+00</totfact>
</mgrwt>
</event>
<event>
12    2  0.3555611E-008  0.3347361E+04  0.7818608E-02  0.8150948E-01
         -1   -1    0    0    0  501 -0.00000000000E+00  0.00000000000E+00  0.86026198368E+03  0.86026198368E+03  0.00000000000E+00 0.  1.
          1   -1    0    0  501    0  0.00000000000E+00 -0.00000000000E+00 -0.32562247855E+04  0.32562247855E+04  0.00000000000E+00 0. -1.
         23    2    1    2    0    0 -0.14265689033E+04  0.98819914472E+02 -0.18437140761E+04  0.23351978745E+04  0.94885757974E+02 0.  0.
        254    2    1    2    0    0  0.14265689033E+04 -0.98819914472E+02 -0.55224872567E+03  0.17812888947E+04  0.90727463319E+03 0.  0.
         23    2    4    4    0    0  0.22375743708E+03  0.52259237392E+01  0.23504057436E+03  0.33701913516E+03  0.90791656792E+02 0.  0.
         23    2    4    4    0    0  0.12028114662E+04 -0.10404583821E+03 -0.78728930003E+03  0.14442697595E+04  0.92248233958E+02 0.  0.
          4    1    3    3  502    0 -0.23868355659E+02  0.10597159503E+02 -0.20839707976E+02  0.33410950598E+02  0.00000000000E+00 0.  1.
         -4    1    3    3    0  502 -0.14027005476E+04  0.88222754969E+02 -0.18228743681E+04  0.23017869239E+04  0.00000000000E+00 0. -1.
         11    1    5    5    0    0  0.15749258947E+03 -0.10830144060E+02  0.21348060658E+03  0.26550927883E+03  0.00000000000E+00 0. -1.
        -11    1    5    5    0    0  0.66264847608E+02  0.16056067799E+02  0.21559967774E+02  0.71509856328E+02  0.00000000000E+00 0.  1.
          4    1    6    6  503    0  0.43659673565E+03 -0.11804325166E+02 -0.24201778801E+03  0.49932821009E+03  0.00000000000E+00 0. -1.
         -4    1    6    6    0  503  0.76621473055E+03 -0.92241513045E+02 -0.54527151202E+03  0.94494154944E+03  0.00000000000E+00 0.  1.
<mgrwt>
<rscale>  0 0.33473610E+04</rscale>
<asrwt>0</asrwt>
<pdfrwt beam="1">  1        1 0.50095766E+00 0.33473610E+04</pdfrwt>
<pdfrwt beam="2">  1       -1 0.13234800E+00 0.33473610E+04</pdfrwt>
<totfact> 0.15422028E-01</totfact>
</mgrwt>
</event>
<event>
12    2  0.3555611E-008  0.2360396E+04  0.7818608E-02  0.8454481E-01
          1   -1    0    0  501    0  0.00000000000E+00  0.00000000000E+00  0.26869073916E+04  0.26869073916E+04  0.00000000000E+00 0. -1.
         -1   -1    0    0    0  501 -0.00000000000E+00 -0.00000000000E+00 -0.51839049939E+03  0.51839049939E+03  0.00000000000E+00 0.  1.
         23    2    1    2    0    0 -0.66991693952E+03  0.67638835644E+03  0.47545324850E+03  0.10680716412E+04  0.91822244735E+02 0.  0.
        254    2    1    2    0    0  0.66991693952E+03 -0.67638835644E+03  0.16930636438E+04  0.21372262498E+04  0.89161742166E+03 0.  0.
         23    2    4    4    0    0  0.16353252715E+03 -0.30029564416E+03  0.29063671850E+02  0.35533293645E+03  0.92176121418E+02 0.  0.
         23    2    4    4    0    0  0.50638441237E+03 -0.37609271228E+03  0.16639999719E+04  0.17818933134E+04  0.91525802354E+02 0.  0.
          4    1    3    3  502    0 -0.26146996271E+03  0.24872394654E+03  0.22897207244E+03  0.42738548518E+03  0.00000000000E+00 0. -1.
         -4    1    3    3    0  502 -0.40844697681E+03  0.42766440990E+03  0.24648117606E+03  0.64068615602E+03  0.00000000000E+00 0.  1.
         11    1    5    5    0    0  0.16228866213E+03 -0.25225756695E+03  0.47834577806E+02  0.30374271476E+03  0.00000000000E+00 0.  1.
        -11    1    5    5    0    0  0.12438650278E+01 -0.48038077215E+02 -0.18770905956E+02  0.51590221681E+02  0.00000000000E+00 0. -1.
          3    1    6    6  503    0  0.96330239117E+02 -0.36851521153E+02  0.32646069733E+03  0.34236550130E+03  0.00000000000E+00 0. -1.
         -3    1    6    6    0  503  0.41005417325E+03 -0.33924119112E+03  0.13375392746E+04  0.14395278121E+04  0.00000000000E+00 0.  1.
<mgrwt>
<rscale>  0 0.23603960E+04</rscale>
<asrwt>0</asrwt>
<pdfrwt beam="1">  1        1 0.41337036E+00 0.23603960E+04</pdfrwt>
<pdfrwt beam="2">  1       -1 0.79752386E-01 0.23603960E+04</pdfrwt>
<totfact> 0.14153919E+00</totfact>
</mgrwt>
</event>
<event>
12    2  0.3555611E-008  0.2322147E+04  0.7818608E-02  0.8469240E-01
         -1   -1    0    0    0  501 -0.00000000000E+00  0.00000000000E+00  0.14333257372E+04  0.14333257372E+04  0.00000000000E+00 0.  1.
          1   -1    0    0  501    0  0.00000000000E+00 -0.00000000000E+00 -0.94053373604E+03  0.94053373604E+03  0.00000000000E+00 0. -1.
         23    2    1    2    0    0 -0.91392957223E+03  0.28300594402E+03 -0.26753217718E+02  0.96157760123E+03  0.92499303762E+02 0.  0.
        254    2    1    2    0    0  0.91392957223E+03 -0.28300594402E+03  0.51954521889E+03  0.14122818720E+04  0.89958502892E+03 0.  0.
         23    2    4    4    0    0 -0.35911386127E+02  0.12035581397E+03 -0.11981445009E+03  0.19526613866E+03  0.89432728057E+02 0.  0.
         23    2    4    4    0    0  0.94984095835E+03 -0.40336175799E+03  0.63935966898E+03  0.12170157334E+04  0.86301535108E+02 0.  0.
          4    1    3    3  502    0 -0.38865113593E+03  0.80234316346E+02  0.13565122053E+02  0.39707840979E+03  0.00000000000E+00 0.  1.
         -4    1    3    3    0  502 -0.52527843629E+03  0.20277162767E+03 -0.40318339771E+02  0.56449919144E+03  0.00000000000E+00 0. -1.
         11    1    5    5    0    0 -0.40828263283E+02  0.94933648969E+02 -0.13117380920E+03  0.16699075726E+03  0.00000000000E+00 0. -1.
        -11    1    5    5    0    0  0.49168771558E+01  0.25422165002E+02  0.11359359108E+02  0.28275381407E+02  0.00000000000E+00 0.  1.
          2    1    6    6  503    0  0.43317669877E+03 -0.17522666964E+03  0.33927430246E+03  0.57745431890E+03  0.00000000000E+00 0. -1.
         -2    1    6    6    0  503  0.51666425958E+03 -0.22813508835E+03  0.30008536652E+03  0.63956141446E+03  0.00000000000E+00 0.  1.
<mgrwt>
<rscale>  0 0.23221466E+04</rscale>
<asrwt>0</asrwt>
<pdfrwt beam="1">  1        1 0.14469750E+00 0.23221466E+04</pdfrwt>
<pdfrwt beam="2">  1       -1 0.22051165E+00 0.23221466E+04</pdfrwt>
<totfact> 0.16613681E+00</totfact>
</mgrwt>
</event>
<event>
12    2  0.3555611E-008  0.1446673E+04  0.7818608E-02  0.8920710E-01
         -2   -1    0    0    0  501 -0.00000000000E+00  0.00000000000E+00  0.26153147470E+03  0.26153147470E+03  0.00000000000E+00 0.  1.
          2   -1    0    0  501    0  0.00000000000E+00 -0.00000000000E+00 -0.20005836124E+04  0.20005836124E+04  0.00000000000E+00 0. -1.
         23    2    1    2    0    0 -0.11345168334E+03  0.37827076536E+03 -0.24595803436E+03  0.47526460059E+03  0.97061988061E+02 0.  0.
        254    2    1    2    0    0  0.11345168334E+03 -0.37827076536E+03 -0.14930941033E+04  0.17868504865E+04  0.89863485539E+03 0.  0.
         23    2    4    4    0    0 -0.28617883273E+03 -0.47256552932E+03 -0.79532762766E+03  0.97223382643E+03  0.86464293949E+02 0.  0.
         23    2    4    4    0    0  0.39963051607E+03  0.94294763956E+02 -0.69776647565E+03  0.81461666006E+03  0.90145418178E+02 0.  0.
          4    1    3    3  502    0 -0.22471860608E+02  0.17418845201E+02 -0.42501511842E+02  0.51134911715E+02  0.00000000000E+00 0. -1.
         -4    1    3    3    0  502 -0.90979822732E+02  0.36085192016E+03 -0.20345652252E+03  0.42412968888E+03  0.00000000000E+00 0.  1.
         11    1    5    5    0    0 -0.45797785689E+02 -0.63385230282E+02 -0.17086241631E+03  0.18790713105E+03  0.00000000000E+00 0. -1.
        -11    1    5    5    0    0 -0.24038104704E+03 -0.40918029904E+03 -0.62446521134E+03  0.78432669537E+03  0.00000000000E+00 0.  1.
          1    1    6    6  503    0  0.13987271017E+03  0.42017577624E+02 -0.17036676162E+03  0.22439849675E+03  0.00000000000E+00 0. -1.
         -1    1    6    6    0  503  0.25975780590E+03  0.52277186332E+02 -0.52739971404E+03  0.59021816331E+03  0.00000000000E+00 0.  1.
<mgrwt>
<rscale>  0 0.14466728E+04</rscale>
<asrwt>0</asrwt>
<pdfrwt beam="1">  1        2 0.30778208E+00 0.14466728E+04</pdfrwt>
<pdfrwt beam="2">  1       -2 0.40235613E-01 0.14466728E+04</pdfrwt>
<totfact> 0.37881156E+01</totfact>
</mgrwt>
</event>
<event>
12    2  0.3555611E-008  0.2814419E+04  0.7818608E-02  0.8298806E-01
          1   -1    0    0  501    0  0.00000000000E+00  0.00000000000E+00  0.15344264794E+04  0.15344264794E+04  0.00000000000E+00 0. -1.
         -1   -1    0    0    0  501 -0.00000000000E+00 -0.00000000000E+00 -0.12905396276E+04  0.12905396276E+04  0.00000000000E+00 0.  1.
         23    2    1    2    0    0 -0.63032932979E+03  0.14345280370E+03  0.11984930432E+04  0.13648144828E+04  0.91865266013E+02 0.  0.
        254    2    1    2    0    0  0.63032932979E+03 -0.14345280370E+03 -0.95460619141E+03  0.14601516242E+04  0.89603348944E+03 0.  0.
         23    2    4    4    0    0  0.34702396477E+03  0.36158377061E+03 -0.54375039748E+03  0.74499552019E+03  0.90473062666E+02 0.  0.
         23    2    4    4    0    0  0.28330536503E+03 -0.50503657431E+03 -0.41085579394E+03  0.71515610404E+03  0.85568092736E+02 0.  0.
          1    1    3    3  502    0 -0.43029616796E+03  0.13722437517E+03  0.86726011177E+03  0.97781666112E+03  0.00000000000E+00 0. -1.
         -1    1    3    3    0  502 -0.20003316183E+03  0.62284285351E+01  0.33123293143E+03  0.38699782172E+03  0.00000000000E+00 0.  1.
         11    1    5    5    0    0  0.23978038095E+03  0.21422001947E+03 -0.39783572596E+03  0.51152528059E+03  0.00000000000E+00 0.  1.
        -11    1    5    5    0    0  0.10724358382E+03  0.14736375114E+03 -0.14591467152E+03  0.23347023961E+03  0.00000000000E+00 0. -1.
          1    1    6    6  503    0  0.10231322679E+03 -0.12592040491E+03 -0.14790791456E+03  0.21954656895E+03  0.00000000000E+00 0. -1.
         -1    1    6    6    0  503  0.18099213824E+03 -0.37911616940E+03 -0.26294787938E+03  0.49560953509E+03  0.00000000000E+00 0.  1.
<mgrwt>
<rscale>  0 0.28144187E+04</rscale>
<asrwt>0</asrwt>
<pdfrwt beam="1">  1        1 0.23606561E+00 0.28144187E+04</pdfrwt>
<pdfrwt beam="2">  1       -1 0.19854456E+00 0.28144187E+04</pdfrwt>
<totfact> 0.82474835E-01</totfact>
</mgrwt>
</event>
<event>
12    2  0.3555611E-008  0.1769371E+04  0.7818608E-02  0.8722759E-01
         -1   -1    0    0    0  501 -0.00000000000E+00  0.00000000000E+00  0.88728365393E+03  0.88728365393E+03  0.00000000000E+00 0.  1.
          1   -1    0    0  501    0  0.00000000000E+00 -0.00000000000E+00 -0.88209480714E+03  0.88209480714E+03  0.00000000000E+00 0. -1.
         23    2    1    2    0    0 -0.34268745308E+03 -0.51192612035E+03  0.16920294322E+03  0.64524359191E+03  0.90590362118E+02 0.  0.
        254    2    1    2    0    0  0.34268745308E+03  0.51192612035E+03 -0.16401409643E+03  0.11241348692E+04  0.92589175234E+03 0.  0.
         23    2    4    4    0    0 -0.71819321377E+02 -0.34601334467E+02 -0.38030661922E+03  0.39904938943E+03  0.90840647911E+02 0.  0.
         23    2    4    4    0    0  0.41450677445E+03  0.54652745482E+03  0.21629252279E+03  0.72508547973E+03  0.91969411016E+02 0.  0.
          1    1    3    3  502    0 -0.73328350943E+02 -0.16630793730E+03  0.77371354287E+02  0.19753911897E+03  0.00000000000E+00 0. -1.
         -1    1    3    3    0  502 -0.26935910213E+03 -0.34561818305E+03  0.91831588932E+02  0.44770447293E+03  0.00000000000E+00 0.  1.
         11    1    5    5    0    0  0.14415996692E+02  0.12466575457E+02 -0.10553986180E+03  0.10724690622E+03  0.00000000000E+00 0.  1.
        -11    1    5    5    0    0 -0.86235318069E+02 -0.47067909924E+02 -0.27476675742E+03  0.29180248321E+03  0.00000000000E+00 0. -1.
          1    1    6    6  503    0  0.24208188149E+03  0.31217108961E+03  0.76845385491E+02  0.40244209497E+03  0.00000000000E+00 0. -1.
         -1    1    6    6    0  503  0.17242489296E+03  0.23435636521E+03  0.13944713730E+03  0.32264338476E+03  0.00000000000E+00 0.  1.
<mgrwt>
<rscale>  0 0.17693709E+04</rscale>
<asrwt>0</asrwt>
<pdfrwt beam="1">  1        1 0.13570689E+00 0.17693709E+04</pdfrwt>
<pdfrwt beam="2">  1       -1 0.13650518E+00 0.17693709E+04</pdfrwt>
<totfact> 0.79749020E+00</totfact>
</mgrwt>
</event>
<event>
12    2  0.3555611E-008  0.1534105E+04  0.7818608E-02  0.8862085E-01
          1   -1    0    0  501    0  0.00000000000E+00  0.00000000000E+00  0.10567918612E+04  0.10567918612E+04  0.00000000000E+00 0. -1.
         -1   -1    0    0    0  501 -0.00000000000E+00 -0.00000000000E+00 -0.55675031634E+03  0.55675031634E+03  0.00000000000E+00 0.  1.
         23    2    1    2    0    0 -0.25602044518E+03  0.40317856047E+03  0.19262731592E+02  0.48659610117E+03  0.91133379553E+02 0.  0.
        254    2    1    2    0    0  0.25602044518E+03 -0.40317856047E+03  0.48077881322E+03  0.11269460763E+04  0.90042199647E+03 0.  0.
         23    2    4    4    0    0 -0.31812090984E+03 -0.10050423605E+03  0.26894865126E+03  0.43820955257E+03  0.91609061835E+02 0.  0.
         23    2    4    4    0    0  0.57414135502E+03 -0.30267432442E+03  0.21183016197E+03  0.68873652375E+03  0.90752076700E+02 0.  0.
          2    1    3    3  502    0 -0.21284391360E+03  0.30571479872E+03  0.49515874209E+02  0.37578702946E+03  0.00000000000E+00 0. -1.
         -2    1    3    3    0  502 -0.43176531579E+02  0.97463761748E+02 -0.30253142617E+02  0.11080907170E+03  0.00000000000E+00 0.  1.
         11    1    5    5    0    0 -0.17864086175E+03 -0.14778613240E+02  0.16921961988E+03  0.24650810260E+03  0.00000000000E+00 0.  1.
        -11    1    5    5    0    0 -0.13948004809E+03 -0.85725622810E+02  0.99729031383E+02  0.19170144997E+03  0.00000000000E+00 0. -1.
          2    1    6    6  503    0  0.13205112338E+03 -0.32546129555E+02  0.26920837507E+02  0.13864155664E+03  0.00000000000E+00 0. -1.
         -2    1    6    6    0  503  0.44209023164E+03 -0.27012819486E+03  0.18490932446E+03  0.55009496711E+03  0.00000000000E+00 0.  1.
<mgrwt>
<rscale>  0 0.15341046E+04</rscale>
<asrwt>0</asrwt>
<pdfrwt beam="1">  1        1 0.16258336E+00 0.15341046E+04</pdfrwt>
<pdfrwt beam="2">  1       -1 0.85653895E-01 0.15341046E+04</pdfrwt>
<totfact> 0.17765289E+01</totfact>
</mgrwt>
</event>
<event>
12    2  0.3555611E-008  0.1311518E+04  0.7818608E-02  0.9020481E-01
          2   -1    0    0  501    0  0.00000000000E+00  0.00000000000E+00  0.46114387862E+04  0.46114387862E+04  0.00000000000E+00 0. -1.
         -2   -1    0    0    0  501 -0.00000000000E+00 -0.00000000000E+00 -0.93250643154E+02  0.93250643154E+02  0.00000000000E+00 0.  1.
         23    2    1    2    0    0 -0.26178564753E+03  0.17230263251E+03  0.76585609116E+03  0.83249039014E+03  0.91020738837E+02 0.  0.
        254    2    1    2    0    0  0.26178564753E+03 -0.17230263251E+03  0.37523320519E+04  0.38721990392E+04  0.90316645709E+03 0.  0.
         23    2    4    4    0    0  0.19017511236E+03  0.35071719575E+03  0.19244312641E+04  0.19673950096E+04  0.89656616439E+02 0.  0.
         23    2    4    4    0    0  0.71610535171E+02 -0.52301982825E+03  0.18279007878E+04  0.19048040296E+04  0.91538470934E+02 0.  0.
          3    1    3    3  502    0 -0.10751183627E+03  0.47899831295E+02  0.39286995393E+03  0.41012192026E+03  0.00000000000E+00 0. -1.
         -3    1    3    3    0  502 -0.15427381125E+03  0.12440280121E+03  0.37298613723E+03  0.42236846989E+03  0.00000000000E+00 0.  1.
         11    1    5    5    0    0  0.19487033769E+03  0.34308732070E+03  0.18047112830E+04  0.18473402971E+04  0.00000000000E+00 0. -1.
        -11    1    5    5    0    0 -0.46952253318E+01  0.76298750510E+01  0.11971998108E+03  0.12005471255E+03  0.00000000000E+00 0.  1.
          2    1    6    6  503    0  0.85183289784E+02 -0.36465889368E+03  0.13617406112E+04  0.14122923897E+04  0.00000000000E+00 0. -1.
         -2    1    6    6    0  503 -0.13572754614E+02 -0.15836093457E+03  0.46616017652E+03  0.49251163990E+03  0.00000000000E+00 0.  1.
<mgrwt>
<rscale>  0 0.13115176E+04</rscale>
<asrwt>0</asrwt>
<pdfrwt beam="1">  1        2 0.70945194E+00 0.13115176E+04</pdfrwt>
<pdfrwt beam="2">  1       -2 0.14346256E-01 0.13115176E+04</pdfrwt>
<totfact> 0.37157591E+00</totfact>
</mgrwt>
</event>
<event>
12    2  0.3555611E-008  0.2505690E+04  0.7818608E-02  0.8400961E-01
         -2   -1    0    0    0  501 -0.00000000000E+00  0.00000000000E+00  0.80825538757E+03  0.80825538757E+03  0.00000000000E+00 0.  1.
          2   -1    0    0  501    0  0.00000000000E+00 -0.00000000000E+00 -0.19419856538E+04  0.19419856538E+04  0.00000000000E+00 0. -1.
         23    2    1    2    0    0  0.57124405697E+03  0.77171934926E+03 -0.10470440437E+04  0.14237111718E+04  0.93710963763E+02 0.  0.
        254    2    1    2    0    0 -0.57124405697E+03 -0.77171934926E+03 -0.86686222564E+02  0.13265298696E+04  0.91120605081E+03 0.  0.
         23    2    4    4    0    0  0.20189627713E+03 -0.39520786871E+03 -0.89880353333E+02  0.46177956872E+03  0.90611952628E+02 0.  0.
         23    2    4    4    0    0 -0.77314033410E+03 -0.37651148055E+03  0.31941307688E+01  0.86475030085E+03  0.90972573598E+02 0.  0.
          3    1    3    3  502    0  0.43920685263E+03  0.53020883395E+03 -0.77627235235E+03  0.10376043716E+04  0.00000000000E+00 0. -1.
         -3    1    3    3    0  502  0.13203720435E+03  0.24151051531E+03 -0.27077169135E+03  0.38610680022E+03  0.00000000000E+00 0.  1.
         11    1    5    5    0    0  0.99401693052E+02 -0.17671486005E+03  0.40827335805E+01  0.20279424809E+03  0.00000000000E+00 0. -1.
        -11    1    5    5    0    0  0.10249458408E+03 -0.21849300866E+03 -0.93963086913E+02  0.25898532063E+03  0.00000000000E+00 0.  1.
          1    1    6    6  503    0 -0.63120565731E+03 -0.28962207246E+03 -0.29689958480E+02  0.69511367438E+03  0.00000000000E+00 0. -1.
         -1    1    6    6    0  503 -0.14193467680E+03 -0.86889408088E+02  0.32884089249E+02  0.16963662647E+03  0.00000000000E+00 0.  1.
<mgrwt>
<rscale>  0 0.25056898E+04</rscale>
<asrwt>0</asrwt>
<pdfrwt beam="1">  1        2 0.29876702E+00 0.25056898E+04</pdfrwt>
<pdfrwt beam="2">  1       -2 0.12434698E+00 0.25056898E+04</pdfrwt>
<totfact> 0.31168823E+00</totfact>
</mgrwt>
</event>
<event>
12    2  0.3555611E-008  0.2451451E+04  0.7818608E-02  0.8420489E-01
         -2   -1    0    0    0  501 -0.00000000000E+00  0.00000000000E+00  0.10473279190E+04  0.10473279190E+04  0.00000000000E+00 0.  1.
          2   -1    0    0  501    0  0.00000000000E+00 -0.00000000000E+00 -0.14345102650E+04  0.14345102650E+04  0.00000000000E+00 0. -1.
         23    2    1    2    0    0  0.46268347907E+03  0.36480459614E+02 -0.11289353058E+04  0.12239963801E+04  0.90914179730E+02 0.  0.
        254    2    1    2    0    0 -0.46268347907E+03 -0.36480459614E+02  0.74175295985E+03  0.12578418038E+04  0.90363804937E+03 0.  0.
         23    2    4    4    0    0 -0.27771488054E+03 -0.17140002618E+03  0.90370982823E+03  0.96518992274E+03  0.91633015138E+02 0.  0.
         23    2    4    4    0    0 -0.18496859853E+03  0.13491956656E+03 -0.16195686839E+03  0.29265188108E+03  0.83656586113E+02 0.  0.
          4    1    3    3  502    0  0.36964383824E+03  0.28325049348E+02 -0.98457189408E+03  0.10520554597E+04  0.00000000000E+00 0. -1.
         -4    1    3    3    0  502  0.93039640829E+02  0.81554102655E+01 -0.14436341176E+03  0.17194092049E+03  0.00000000000E+00 0.  1.
         11    1    5    5    0    0 -0.89284452661E+02 -0.69646983287E+02  0.44134763626E+03  0.45564257023E+03  0.00000000000E+00 0. -1.
        -11    1    5    5    0    0 -0.18843042788E+03 -0.10175304289E+03  0.46236219197E+03  0.50954735251E+03  0.00000000000E+00 0.  1.
          1    1    6    6  503    0 -0.57803142912E+02  0.48190473411E+00 -0.49540064231E+02  0.76129189715E+02  0.00000000000E+00 0. -1.
         -1    1    6    6    0  503 -0.12716545562E+03  0.13443766183E+03 -0.11241680415E+03  0.21652269137E+03  0.00000000000E+00 0.  1.
<mgrwt>
<rscale>  0 0.24514507E+04</rscale>
<asrwt>0</asrwt>
<pdfrwt beam="1">  1        2 0.22069389E+00 0.24514507E+04</pdfrwt>
<pdfrwt beam="2">  1       -2 0.16112737E+00 0.24514507E+04</pdfrwt>
<totfact> 0.30602612E+00</totfact>
</mgrwt>
</event>
<event>
12    2  0.3555611E-008  0.1673822E+04  0.7818608E-02  0.8776437E-01
          1   -1    0    0  501    0  0.00000000000E+00  0.00000000000E+00  0.26780432875E+04  0.26780432875E+04  0.00000000000E+00 0. -1.
         -1   -1    0    0    0  501 -0.00000000000E+00 -0.00000000000E+00 -0.26154165902E+03  0.26154165902E+03  0.00000000000E+00 0.  1.
         23    2    1    2    0    0 -0.48280868131E+03 -0.27168653972E+03  0.50130930174E+03  0.75295978708E+03  0.93378939429E+02 0.  0.
        254    2    1    2    0    0  0.48280868131E+03  0.27168653972E+03  0.19151923268E+04  0.21866251595E+04  0.89802569057E+03 0.  0.
         23    2    4    4    0    0  0.30972395428E+03  0.27891250151E+03  0.21983449853E+03  0.47986110783E+03  0.90655196830E+02 0.  0.
         23    2    4    4    0    0  0.17308472703E+03 -0.72259617842E+01  0.16953578283E+04  0.17067640517E+04  0.93780728072E+02 0.  0.
          1    1    3    3  502    0 -0.11118385167E+03 -0.23796238688E+02  0.81065844924E+02  0.13964161651E+03  0.00000000000E+00 0. -1.
         -1    1    3    3    0  502 -0.37162482964E+03 -0.24789030103E+03  0.42024345681E+03  0.61331817057E+03  0.00000000000E+00 0.  1.
         11    1    5    5    0    0  0.22596099771E+03  0.20619592569E+03  0.11371993964E+03  0.32635464901E+03  0.00000000000E+00 0.  1.
        -11    1    5    5    0    0  0.83762956569E+02  0.72716575812E+02  0.10611455889E+03  0.15350645882E+03  0.00000000000E+00 0. -1.
          4    1    6    6  503    0  0.97505701088E+02 -0.38181478316E+02  0.66718648119E+03  0.67535397216E+03  0.00000000000E+00 0. -1.
         -4    1    6    6    0  503  0.75579025943E+02  0.30955516532E+02  0.10281713471E+04  0.10314100795E+04  0.00000000000E+00 0.  1.
<mgrwt>
<rscale>  0 0.16738218E+04</rscale>
<asrwt>0</asrwt>
<pdfrwt beam="1">  1        1 0.41200664E+00 0.16738218E+04</pdfrwt>
<pdfrwt beam="2">  1       -1 0.40237180E-01 0.16738218E+04</pdfrwt>
<totfact> 0.58582409E+00</totfact>
</mgrwt>
</event>
<event>
12    2  0.3555611E-008  0.1618858E+04  0.7818608E-02  0.8809046E-01
          2   -1    0    0  501    0  0.00000000000E+00  0.00000000000E+00  0.36678712127E+03  0.36678712127E+03  0.00000000000E+00 0. -1.
         -2   -1    0    0    0  501 -0.00000000000E+00 -0.00000000000E+00 -0.17862555427E+04  0.17862555427E+04  0.00000000000E+00 0.  1.
         23    2    1    2    0    0 -0.22556253746E+03  0.82239744769E+02  0.17071760991E+03  0.30848204753E+03  0.91514137635E+02 0.  0.
        254    2    1    2    0    0  0.22556253746E+03 -0.82239744769E+02 -0.15901860313E+04  0.18445606164E+04  0.90336616029E+03 0.  0.
         23    2    4    4    0    0 -0.28187459161E+03  0.99870781688E+02 -0.26492835943E+03  0.41101599640E+03  0.96538361501E+02 0.  0.
         23    2    4    4    0    0  0.50743712907E+03 -0.18211052646E+03 -0.13252576719E+04  0.14335446200E+04  0.89919947164E+02 0.  0.
          2    1    3    3  502    0 -0.19942531546E+03  0.97721741777E+02  0.16702492074E+03  0.27788004500E+03  0.00000000000E+00 0. -1.
         -2    1    3    3    0  502 -0.26137222002E+02 -0.15481997008E+02  0.36926891736E+01  0.30602002527E+02  0.00000000000E+00 0.  1.
         11    1    5    5    0    0 -0.18880729943E+03  0.16913709598E+02 -0.16083317534E+03  0.24859923608E+03  0.00000000000E+00 0.  1.
        -11    1    5    5    0    0 -0.93067292175E+02  0.82957072090E+02 -0.10409518409E+03  0.16241676032E+03  0.00000000000E+00 0. -1.
          3    1    6    6  503    0  0.34907801653E+02 -0.39838825212E+02 -0.13765373516E+03  0.14749317751E+03  0.00000000000E+00 0. -1.
         -3    1    6    6    0  503  0.47252932741E+03 -0.14227170125E+03 -0.11876039367E+04  0.12860514425E+04  0.00000000000E+00 0.  1.
<mgrwt>
<rscale>  0 0.16188583E+04</rscale>
<asrwt>0</asrwt>
<pdfrwt beam="1">  1        2 0.56428788E-01 0.16188583E+04</pdfrwt>
<pdfrwt beam="2">  1       -2 0.27480855E+00 0.16188583E+04</pdfrwt>
<totfact> 0.38082504E+00</totfact>
</mgrwt>
</event>
<event>
12    2  0.3555611E-008  0.2406188E+04  0.7818608E-02  0.8437190E-01
         -2   -1    0    0    0  501 -0.00000000000E+00  0.00000000000E+00  0.14116635416E+04  0.14116635416E+04  0.00000000000E+00 0.  1.
          2   -1    0    0  501    0  0.00000000000E+00 -0.00000000000E+00 -0.10253401532E+04  0.10253401532E+04  0.00000000000E+00 0. -1.
         23    2    1    2    0    0 -0.94622008796E+03  0.24912728208E+03  0.48674047456E+03  0.10966128865E+04  0.90811209146E+02 0.  0.
        254    2    1    2    0    0  0.94622008796E+03 -0.24912728208E+03 -0.10041708614E+03  0.13403908083E+04  0.91058611357E+03 0.  0.
         23    2    4    4    0    0 -0.51162701522E+02 -0.27075216781E+03  0.12049025974E+03  0.31482276518E+03  0.93118807881E+02 0.  0.
         23    2    4    4    0    0  0.99738278948E+03  0.21624885732E+02 -0.22090734588E+03  0.10255680431E+04  0.88032330113E+02 0.  0.
          4    1    3    3  502    0 -0.54460013611E+02 -0.60634829743E+01  0.33722358074E+02  0.64341715413E+02  0.00000000000E+00 0.  1.
         -4    1    3    3    0  502 -0.89176007435E+03  0.25519076506E+03  0.45301811648E+03  0.10322711711E+04  0.00000000000E+00 0. -1.
         11    1    5    5    0    0  0.22281962187E+02 -0.87040595925E+02  0.59593535644E+02  0.10781438062E+03  0.00000000000E+00 0.  1.
        -11    1    5    5    0    0 -0.73444663709E+02 -0.18371157189E+03  0.60896724098E+02  0.20700838456E+03  0.00000000000E+00 0. -1.
          4    1    6    6  503    0  0.62060590333E+03  0.64747383537E+01 -0.94081694790E+02  0.62773001743E+03  0.00000000000E+00 0. -1.
         -4    1    6    6    0  503  0.37677688615E+03  0.15150147378E+02 -0.12682565109E+03  0.39783802568E+03  0.00000000000E+00 0.  1.
<mgrwt>
<rscale>  0 0.24061881E+04</rscale>
<asrwt>0</asrwt>
<pdfrwt beam="1">  1        2 0.15774464E+00 0.24061881E+04</pdfrwt>
<pdfrwt beam="2">  1       -2 0.21717901E+00 0.24061881E+04</pdfrwt>
<totfact> 0.22459147E+00</totfact>
</mgrwt>
</event>
<event>
12    2  0.3555611E-008  0.1358488E+04  0.7818608E-02  0.8984427E-01
          1   -1    0    0  501    0  0.00000000000E+00  0.00000000000E+00  0.38517219421E+03  0.38517219421E+03  0.00000000000E+00 0. -1.
         -1   -1    0    0    0  501 -0.00000000000E+00 -0.00000000000E+00 -0.11978343840E+04  0.11978343840E+04  0.00000000000E+00 0.  1.
         23    2    1    2    0    0  0.12500269571E+03  0.19374054628E+03  0.10665859136E+03  0.27049011721E+03  0.92885818036E+02 0.  0.
        254    2    1    2    0    0 -0.12500269571E+03 -0.19374054628E+03 -0.91932078112E+03  0.13125164610E+04  0.90795797729E+03 0.  0.
         23    2    4    4    0    0  0.11479685035E+03  0.11392404886E+03 -0.89153353718E+03  0.91062683679E+03  0.90841522453E+02 0.  0.
         23    2    4    4    0    0 -0.23979954606E+03 -0.30766459514E+03 -0.27787243935E+02  0.40188962418E+03  0.92638079132E+02 0.  0.
          2    1    3    3  502    0  0.66579290592E+02  0.14020987123E+03  0.25920395960E+02  0.15736415365E+03  0.00000000000E+00 0. -1.
         -2    1    3    3    0  502  0.58423405116E+02  0.53530675046E+02  0.80738195397E+02  0.11312596356E+03  0.00000000000E+00 0.  1.
         11    1    5    5    0    0  0.81004738787E+02  0.85008028874E+02 -0.80310385773E+03  0.81164274097E+03  0.00000000000E+00 0. -1.
        -11    1    5    5    0    0  0.33792111568E+02  0.28916019987E+02 -0.88429679456E+02  0.98984095818E+02  0.00000000000E+00 0.  1.
          1    1    6    6  503    0 -0.22804089884E+02  0.18626023036E+01 -0.36565908151E+00  0.22882952374E+02  0.00000000000E+00 0. -1.
         -1    1    6    6    0  503 -0.21699545618E+03 -0.30952719744E+03 -0.27421584853E+02  0.37900667181E+03  0.00000000000E+00 0.  1.
<mgrwt>
<rscale>  0 0.13584881E+04</rscale>
<asrwt>0</asrwt>
<pdfrwt beam="1">  1        1 0.59257262E-01 0.13584881E+04</pdfrwt>
<pdfrwt beam="2">  1       -1 0.18428221E+00 0.13584881E+04</pdfrwt>
<totfact> 0.11967993E+01</totfact>
</mgrwt>
</event>
<event>
12    2  0.3555611E-008  0.1333550E+04  0.7818608E-02  0.9003375E-01
         -1   -1    0    0    0  501 -0.00000000000E+00  0.00000000000E+00  0.15510868788E+04  0.15510868788E+04  0.00000000000E+00 0.  1.
          1   -1    0    0  501    0  0.00000000000E+00 -0.00000000000E+00 -0.28663043546E+03  0.28663043546E+03  0.00000000000E+00 0. -1.
         23    2    1    2    0    0 -0.60590245189E+02 -0.29547896347E+03  0.93253818970E+02  0.32846937684E+03  0.90646903439E+02 0.  0.
        254    2    1    2    0    0  0.60590245189E+02  0.29547896347E+03  0.11712026244E+04  0.15092479374E+04  0.90284813428E+03 0.  0.
         23    2    4    4    0    0 -0.65496696391E+02  0.27453361486E+03  0.12831202093E+04  0.13168572396E+04  0.89760766122E+02 0.  0.
         23    2    4    4    0    0  0.12608694158E+03  0.20945348615E+02 -0.11191758494E+03  0.19239069777E+03  0.90288483789E+02 0.  0.
          2    1    3    3  502    0 -0.53835868822E+02 -0.17646577938E+03  0.98512558409E+02  0.20914874187E+03  0.00000000000E+00 0. -1.
         -2    1    3    3    0  502 -0.67543763679E+01 -0.11901318410E+03 -0.52587394390E+01  0.11932063497E+03  0.00000000000E+00 0.  1.
         11    1    5    5    0    0 -0.56259237552E+02  0.27989114354E+03  0.12370293930E+04  0.12695455380E+04  0.00000000000E+00 0.  1.
        -11    1    5    5    0    0 -0.92374588388E+01 -0.53575286791E+01  0.46090816314E+02  0.47311701595E+02  0.00000000000E+00 0. -1.
          1    1    6    6  503    0  0.11108523909E+01 -0.11118151305E+02  0.99130460315E+01  0.14937060056E+02  0.00000000000E+00 0. -1.
         -1    1    6    6    0  503  0.12497608919E+03  0.32063499921E+02 -0.12183063097E+03  0.17745363771E+03  0.00000000000E+00 0.  1.
<mgrwt>
<rscale>  0 0.13335497E+04</rscale>
<asrwt>0</asrwt>
<pdfrwt beam="1">  1        1 0.44096991E-01 0.13335497E+04</pdfrwt>
<pdfrwt beam="2">  1       -1 0.23862875E+00 0.13335497E+04</pdfrwt>
<totfact> 0.75558016E+00</totfact>
</mgrwt>
</event>
<event>
12    2  0.3555611E-008  0.1948421E+04  0.7818608E-02  0.8631123E-01
          2   -1    0    0  501    0  0.00000000000E+00  0.00000000000E+00  0.21628474798E+04  0.21628474798E+04  0.00000000000E+00 0. -1.
         -2   -1    0    0    0  501 -0.00000000000E+00 -0.00000000000E+00 -0.43881302763E+03  0.43881302763E+03  0.00000000000E+00 0.  1.
         23    2    1    2    0    0  0.27923808822E+03 -0.39426122565E+03 -0.10631121956E+03  0.50305118832E+03  0.91337827303E+02 0.  0.
        254    2    1    2    0    0 -0.27923808822E+03  0.39426122565E+03  0.18303456718E+04  0.20986093192E+04  0.90585869335E+03 0.  0.
         23    2    4    4    0    0 -0.11145112514E+03 -0.88171875661E+02  0.14385065866E+04  0.14485583785E+04  0.93939040172E+02 0.  0.
         23    2    4    4    0    0 -0.16778696308E+03  0.48243310131E+03  0.39183908513E+03  0.65005094062E+03  0.90189769637E+02 0.  0.
          2    1    3    3  502    0  0.65231122620E+02 -0.36351950555E+02 -0.16678703935E+02  0.76516291287E+02  0.00000000000E+00 0. -1.
         -2    1    3    3    0  502  0.21400696560E+03 -0.35790927510E+03 -0.89632515621E+02  0.42653489703E+03  0.00000000000E+00 0.  1.
         11    1    5    5    0    0 -0.95905992756E+02 -0.39947409078E+02  0.63383964490E+03  0.64229778950E+03  0.00000000000E+00 0.  1.
        -11    1    5    5    0    0 -0.15545132384E+02 -0.48224466583E+02  0.80466694173E+03  0.80626058903E+03  0.00000000000E+00 0. -1.
          1    1    6    6  503    0  0.72906505704E+01  0.30654751319E+02  0.41673762247E+02  0.52245285184E+02  0.00000000000E+00 0.  1.
         -1    1    6    6    0  503 -0.17507761365E+03  0.45177834999E+03  0.35016532289E+03  0.59780565544E+03  0.00000000000E+00 0. -1.
<mgrwt>
<rscale>  0 0.19484205E+04</rscale>
<asrwt>0</asrwt>
<pdfrwt beam="1">  1        2 0.33274576E+00 0.19484205E+04</pdfrwt>
<pdfrwt beam="2">  1       -2 0.67509698E-01 0.19484205E+04</pdfrwt>
<totfact> 0.10168394E+01</totfact>
</mgrwt>
</event>
<event>
12    2  0.3555611E-008  0.2430552E+04  0.7818608E-02  0.8428153E-01
          2   -1    0    0  501    0  0.00000000000E+00  0.00000000000E+00  0.21207918964E+04  0.21207918964E+04  0.00000000000E+00 0. -1.
         -2   -1    0    0    0  501 -0.00000000000E+00 -0.00000000000E+00 -0.69638894373E+03  0.69638894373E+03  0.00000000000E+00 0.  1.
         23    2    1    2    0    0  0.96121026526E+03  0.37230199254E+03  0.43970926801E+03  0.11250107788E+04  0.98848694220E+02 0.  0.
        254    2    1    2    0    0 -0.96121026526E+03 -0.37230199254E+03  0.98469368465E+03  0.16921700613E+04  0.91174772617E+03 0.  0.
         23    2    4    4    0    0 -0.99140462799E+03 -0.21762568250E+03  0.10791667952E+04  0.14843216817E+04  0.91464795630E+02 0.  0.
         23    2    4    4    0    0  0.30194362729E+02 -0.15467631004E+03 -0.94473110509E+02  0.20784837965E+03  0.97156162365E+02 0.  0.
          3    1    3    3  502    0  0.21651043818E+03  0.89844289812E+02  0.14574474165E+03  0.27602589728E+03  0.00000000000E+00 0. -1.
         -3    1    3    3    0  502  0.74469982708E+03  0.28245770273E+03  0.29396452636E+03  0.84898488152E+03  0.00000000000E+00 0.  1.
         11    1    5    5    0    0 -0.68260544542E+03 -0.18216742145E+03  0.70808413206E+03  0.10002591172E+04  0.00000000000E+00 0.  1.
        -11    1    5    5    0    0 -0.30879918257E+03 -0.35458261046E+02  0.37108266310E+03  0.48406256443E+03  0.00000000000E+00 0. -1.
          2    1    6    6  503    0 -0.28687600760E+02 -0.10254400154E+03 -0.55511770976E+02  0.12008250250E+03  0.00000000000E+00 0. -1.
         -2    1    6    6    0  503  0.58881963490E+02 -0.52132308499E+02 -0.38961339533E+02  0.87765877150E+02  0.00000000000E+00 0.  1.
<mgrwt>
<rscale>  0 0.24305522E+04</rscale>
<asrwt>0</asrwt>
<pdfrwt beam="1">  1        2 0.32627567E+00 0.24305522E+04</pdfrwt>
<pdfrwt beam="2">  1       -2 0.10713676E+00 0.24305522E+04</pdfrwt>
<totfact> 0.35929784E+00</totfact>
</mgrwt>
</event>
<event>
12    2  0.3555611E-008  0.1991999E+04  0.7818608E-02  0.8610370E-01
         -1   -1    0    0    0  501 -0.00000000000E+00  0.00000000000E+00  0.50289636550E+03  0.50289636550E+03  0.00000000000E+00 0.  1.
          1   -1    0    0  501    0  0.00000000000E+00 -0.00000000000E+00 -0.19726040790E+04  0.19726040790E+04  0.00000000000E+00 0. -1.
         23    2    1    2    0    0  0.66659641961E+02 -0.61167910958E+03 -0.12128385729E+04  0.13628695612E+04  0.88550527893E+02 0.  0.
        254    2    1    2    0    0 -0.66659641961E+02  0.61167910958E+03 -0.25686914066E+03  0.11126308834E+04  0.89071369486E+03 0.  0.
         23    2    4    4    0    0  0.29267717482E+03 -0.64244709746E+02 -0.86461108510E+02  0.32405815040E+03  0.88038912808E+02 0.  0.
         23    2    4    4    0    0 -0.35933681678E+03  0.67592381933E+03 -0.17040803215E+03  0.78857273295E+03  0.82535448792E+02 0.  0.
          2    1    3    3  502    0  0.32791786583E+02 -0.53725333731E+03 -0.10172232461E+04  0.11508516768E+04  0.00000000000E+00 0. -1.
         -2    1    3    3    0  502  0.33867855379E+02 -0.74425772274E+02 -0.19561532679E+03  0.21201788435E+03  0.00000000000E+00 0.  1.
         11    1    5    5    0    0  0.23133014950E+03 -0.11985049359E+02 -0.67382416542E+02  0.24124193154E+03  0.00000000000E+00 0.  1.
        -11    1    5    5    0    0  0.61347025319E+02 -0.52259660387E+02 -0.19078691967E+02  0.82816218861E+02  0.00000000000E+00 0. -1.
          2    1    6    6  503    0 -0.83688465208E+02  0.20954656780E+03 -0.21084529159E+02  0.22662321297E+03  0.00000000000E+00 0. -1.
         -2    1    6    6    0  503 -0.27564835157E+03  0.46637725153E+03 -0.14932350299E+03  0.56194951999E+03  0.00000000000E+00 0.  1.
<mgrwt>
<rscale>  0 0.19919994E+04</rscale>
<asrwt>0</asrwt>
<pdfrwt beam="1">  1        1 0.30347755E+00 0.19919994E+04</pdfrwt>
<pdfrwt beam="2">  1       -1 0.77368672E-01 0.19919994E+04</pdfrwt>
<totfact> 0.48349675E+00</totfact>
</mgrwt>
</event>
<event>
12    2  0.3555611E-008  0.1275395E+04  0.7818608E-02  0.9049308E-01
         -2   -1    0    0    0  501 -0.00000000000E+00  0.00000000000E+00  0.54995334490E+03  0.54995334490E+03  0.00000000000E+00 0.  1.
          2   -1    0    0  501    0  0.00000000000E+00 -0.00000000000E+00 -0.73944152759E+03  0.73944152759E+03  0.00000000000E+00 0. -1.
         23    2    1    2    0    0 -0.91846517472E+02  0.29495047753E+03 -0.48576295001E+02  0.32526972691E+03  0.89493976574E+02 0.  0.
        254    2    1    2    0    0  0.91846517472E+02 -0.29495047753E+03 -0.14091188769E+03  0.96412514558E+03  0.90235778341E+03 0.  0.
         23    2    4    4    0    0  0.36377355856E+03 -0.30584486563E+03  0.19594340095E+03  0.52198536449E+03  0.90568320212E+02 0.  0.
         23    2    4    4    0    0 -0.27192704108E+03  0.10894388107E+02 -0.33685528864E+03  0.44213978109E+03  0.89180138865E+02 0.  0.
          1    1    3    3  502    0 -0.10372358890E+03  0.24012618722E+03 -0.20052143760E+02  0.26233805891E+03  0.00000000000E+00 0. -1.
         -1    1    3    3    0  502  0.11877071427E+02  0.54824290308E+02 -0.28524151241E+02  0.62931668001E+02  0.00000000000E+00 0.  1.
         11    1    5    5    0    0  0.31153760418E+03 -0.28012029349E+03  0.19871555808E+03  0.46369271147E+03  0.00000000000E+00 0. -1.
        -11    1    5    5    0    0  0.52235954376E+02 -0.25724572140E+02 -0.27721571259E+01  0.58292653024E+02  0.00000000000E+00 0.  1.
          3    1    6    6  503    0 -0.14045944665E+03  0.40372054027E+02 -0.21811979325E+03  0.26255476212E+03  0.00000000000E+00 0. -1.
         -3    1    6    6    0  503 -0.13146759443E+03 -0.29477665920E+02 -0.11873549539E+03  0.17958501897E+03  0.00000000000E+00 0.  1.
<mgrwt>
<rscale>  0 0.12753954E+04</rscale>
<asrwt>0</asrwt>
<pdfrwt beam="1">  1        2 0.11376023E+00 0.12753954E+04</pdfrwt>
<pdfrwt beam="2">  1       -2 0.84608207E-01 0.12753954E+04</pdfrwt>
<totfact> 0.45683429E+01</totfact>
</mgrwt>
</event>
<event>
12    2  0.3555611E-008  0.1742132E+04  0.7818608E-02  0.8737693E-01
          1   -1    0    0  501    0  0.00000000000E+00  0.00000000000E+00  0.96860567297E+03  0.96860567297E+03  0.00000000000E+00 0. -1.
         -1   -1    0    0    0  501 -0.00000000000E+00 -0.00000000000E+00 -0.78334863205E+03  0.78334863205E+03  0.00000000000E+00 0.  1.
         23    2    1    2    0    0 -0.63220571888E+02  0.55756577245E+03 -0.22326855137E+03  0.61045174683E+03  0.89028410361E+02 0.  0.
        254    2    1    2    0    0  0.63220571888E+02 -0.55756577245E+03  0.40852559228E+03  0.11415025582E+04  0.90623313749E+03 0.  0.
         23    2    4    4    0    0 -0.32089157439E+03 -0.36895673138E+03  0.48924763380E+03  0.69674387951E+03  0.83596138123E+02 0.  0.
         23    2    4    4    0    0  0.38411214627E+03 -0.18860904107E+03 -0.80722041516E+02  0.44475867869E+03  0.90436292440E+02 0.  0.
          3    1    3    3  502    0  0.10049653455E+02  0.37032709112E+02  0.22845531223E+01  0.38440034622E+02  0.00000000000E+00 0. -1.
         -3    1    3    3    0  502 -0.73270225343E+02  0.52053306334E+03 -0.22555310449E+03  0.57201171221E+03  0.00000000000E+00 0.  1.
         11    1    5    5    0    0 -0.96680483268E+02 -0.13136657256E+03  0.11279673520E+03  0.19831136050E+03  0.00000000000E+00 0.  1.
        -11    1    5    5    0    0 -0.22421109112E+03 -0.23759015882E+03  0.37645089860E+03  0.49843251901E+03  0.00000000000E+00 0. -1.
          3    1    6    6  503    0  0.37241909070E+03 -0.19303715885E+03 -0.90206872296E+02  0.42906480120E+03  0.00000000000E+00 0. -1.
         -3    1    6    6    0  503  0.11693055570E+02  0.44281177802E+01  0.94848307798E+01  0.15693877486E+02  0.00000000000E+00 0.  1.
<mgrwt>
<rscale>  0 0.17421319E+04</rscale>
<asrwt>0</asrwt>
<pdfrwt beam="1">  1        1 0.14901626E+00 0.17421319E+04</pdfrwt>
<pdfrwt beam="2">  1       -1 0.12051517E+00 0.17421319E+04</pdfrwt>
<totfact> 0.93067370E+00</totfact>
</mgrwt>
</event>
<event>
12    2  0.3555611E-008  0.1128156E+04  0.7818608E-02  0.9178175E-01
         -1   -1    0    0    0  501 -0.00000000000E+00  0.00000000000E+00  0.10264725619E+03  0.10264725619E+03  0.00000000000E+00 0.  1.
          1   -1    0    0  501    0  0.00000000000E+00 -0.00000000000E+00 -0.30997814366E+04  0.30997814366E+04  0.00000000000E+00 0. -1.
         23    2    1    2    0    0 -0.71619694225E+02  0.24209759920E+02 -0.54204820339E+02  0.13112025872E+03  0.92405988025E+02 0.  0.
        254    2    1    2    0    0  0.71619694225E+02 -0.24209759920E+02 -0.29429293601E+04  0.30713084341E+04  0.87543519789E+03 0.  0.
         23    2    4    4    0    0 -0.19338640988E+03  0.35051634448E+03 -0.14275911227E+04  0.14854261143E+04  0.90632865332E+02 0.  0.
         23    2    4    4    0    0  0.26500610411E+03 -0.37472610440E+03 -0.15153382374E+04  0.15858823198E+04  0.90138059877E+02 0.  0.
          3    1    3    3  502    0 -0.68020208395E+01 -0.43817781637E+01 -0.59529538129E+02  0.60076895536E+02  0.00000000000E+00 0. -1.
         -3    1    3    3    0  502 -0.64817673386E+02  0.28591538083E+02  0.53247177901E+01  0.71043363185E+02  0.00000000000E+00 0.  1.
         11    1    5    5    0    0 -0.48411968476E+02  0.17697048226E+03 -0.59221315377E+03  0.61998281410E+03  0.00000000000E+00 0.  1.
        -11    1    5    5    0    0 -0.14497444141E+03  0.17354586222E+03 -0.83537796891E+03  0.86544330022E+03  0.00000000000E+00 0. -1.
          1    1    6    6  503    0  0.24396301166E+03 -0.28325180268E+03 -0.12191467410E+04  0.12751738356E+04  0.00000000000E+00 0. -1.
         -1    1    6    6    0  503  0.21043092449E+02 -0.91474301720E+02 -0.29619149643E+03  0.31070848423E+03  0.00000000000E+00 0.  1.
<mgrwt>
<rscale>  0 0.11281561E+04</rscale>
<asrwt>0</asrwt>
<pdfrwt beam="1">  1        1 0.47688939E+00 0.11281561E+04</pdfrwt>
<pdfrwt beam="2">  1       -1 0.15791888E-01 0.11281561E+04</pdfrwt>
<totfact> 0.15465018E+01</totfact>
</mgrwt>
</event>
<event>
12    2  0.3555611E-008  0.2876847E+04  0.7818608E-02  0.8279800E-01
          1   -1    0    0  501    0  0.00000000000E+00  0.00000000000E+00  0.17429648966E+04  0.17429648966E+04  0.00000000000E+00 0. -1.
         -1   -1    0    0    0  501 -0.00000000000E+00 -0.00000000000E+00 -0.11870935444E+04  0.11870935444E+04  0.00000000000E+00 0.  1.
         23    2    1    2    0    0 -0.84643049024E+03 -0.78507726226E+03 -0.34775704449E+03  0.12090978748E+04  0.90508708299E+02 0.  0.
        254    2    1    2    0    0  0.84643049024E+03  0.78507726226E+03  0.90362839669E+03  0.17209605662E+04  0.90131576510E+03 0.  0.
         23    2    4    4    0    0  0.11361458648E+03  0.21458848291E+03  0.72765359184E+03  0.77206110921E+03  0.87419193373E+02 0.  0.
         23    2    4    4    0    0  0.73281590376E+03  0.57048877935E+03  0.17597480485E+03  0.94889945695E+03  0.83465269928E+02 0.  0.
          3    1    3    3  502    0 -0.24887321574E+03 -0.23776389310E+03 -0.14702525764E+03  0.37428060697E+03  0.00000000000E+00 0. -1.
         -3    1    3    3    0  502 -0.59755727450E+03 -0.54731336917E+03 -0.20073178685E+03  0.83481726781E+03  0.00000000000E+00 0.  1.
         11    1    5    5    0    0  0.15492627016E+02  0.44257615995E+02  0.26903235553E+03  0.27308820257E+03  0.00000000000E+00 0.  1.
        -11    1    5    5    0    0  0.98121959461E+02  0.17033086692E+03  0.45862123632E+03  0.49897290663E+03  0.00000000000E+00 0. -1.
          3    1    6    6  503    0  0.23937331166E+03  0.22175854153E+03  0.90698846760E+02  0.33867789104E+03  0.00000000000E+00 0. -1.
         -3    1    6    6    0  503  0.49344259210E+03  0.34873023782E+03  0.85275958092E+02  0.61022156591E+03  0.00000000000E+00 0.  1.
<mgrwt>
<rscale>  0 0.28768471E+04</rscale>
<asrwt>0</asrwt>
<pdfrwt beam="1">  1        1 0.26814844E+00 0.28768471E+04</pdfrwt>
<pdfrwt beam="2">  1       -1 0.18262978E+00 0.28768471E+04</pdfrwt>
<totfact> 0.76355172E-01</totfact>
</mgrwt>
</event>
<event>
12    2  0.3555611E-008  0.2350866E+04  0.7818608E-02  0.8458131E-01
         -2   -1    0    0    0  501 -0.00000000000E+00  0.00000000000E+00  0.47597796999E+03  0.47597796999E+03  0.00000000000E+00 0.  1.
          2   -1    0    0  501    0  0.00000000000E+00 -0.00000000000E+00 -0.29027443239E+04  0.29027443239E+04  0.00000000000E+00 0. -1.
         23    2    1    2    0    0  0.21625594072E+03  0.97310777478E+03 -0.93649840896E+03  0.13707731337E+04  0.91018355044E+02 0.  0.
        254    2    1    2    0    0 -0.21625594072E+03 -0.97310777478E+03 -0.14902679449E+04  0.20079491601E+04  0.90402207314E+03 0.  0.
         23    2    4    4    0    0 -0.33941699304E+03 -0.16098008917E+02 -0.57669180448E+03  0.67608399050E+03  0.95147694686E+02 0.  0.
         23    2    4    4    0    0  0.12316105232E+03 -0.95700976587E+03 -0.91357614044E+03  0.13318651696E+04  0.90593205500E+02 0.  0.
          3    1    3    3  502    0  0.16005064747E+03  0.72313520976E+03 -0.74844554961E+03  0.10529536942E+04  0.00000000000E+00 0. -1.
         -3    1    3    3    0  502  0.56205293251E+02  0.24997256502E+03 -0.18805285935E+03  0.31781943956E+03  0.00000000000E+00 0.  1.
         11    1    5    5    0    0 -0.22128291621E+02  0.23818252891E+02 -0.42844130295E+02  0.53782803586E+02  0.00000000000E+00 0. -1.
        -11    1    5    5    0    0 -0.31728870142E+03 -0.39916261808E+02 -0.53384767418E+03  0.62230118692E+03  0.00000000000E+00 0.  1.
          3    1    6    6  503    0 -0.71337752863E+01 -0.50134861948E+02 -0.70515617205E+02  0.86815018299E+02  0.00000000000E+00 0. -1.
         -3    1    6    6    0  503  0.13029482761E+03 -0.90687490392E+03 -0.84306052324E+03  0.12450501513E+04  0.00000000000E+00 0.  1.
<mgrwt>
<rscale>  0 0.23508657E+04</rscale>
<asrwt>0</asrwt>
<pdfrwt beam="1">  1        2 0.44657604E+00 0.23508657E+04</pdfrwt>
<pdfrwt beam="2">  1       -2 0.73227381E-01 0.23508657E+04</pdfrwt>
<totfact> 0.30433553E+00</totfact>
</mgrwt>
</event>
<event>
12    2  0.3555611E-008  0.2576186E+04  0.7818608E-02  0.8376335E-01
         -2   -1    0    0    0  501 -0.00000000000E+00  0.00000000000E+00  0.15455045976E+04  0.15455045976E+04  0.00000000000E+00 0.  1.
          2   -1    0    0  501    0  0.00000000000E+00 -0.00000000000E+00 -0.10735547755E+04  0.10735547755E+04  0.00000000000E+00 0. -1.
         23    2    1    2    0    0 -0.48299198690E+02 -0.21420661498E+03  0.12881694771E+04  0.13096437742E+04  0.86999580928E+02 0.  0.
        254    2    1    2    0    0  0.48299198690E+02  0.21420661498E+03 -0.81621965502E+03  0.13094155989E+04  0.10000686971E+04 0.  0.
         23    2    4    4    0    0  0.18831615748E+03 -0.23615293800E+03  0.47340144150E+02  0.32123541501E+03  0.98589641013E+02 0.  0.
         23    2    4    4    0    0 -0.14001695879E+03  0.45035955298E+03 -0.86355979917E+03  0.98818018386E+03  0.91302099268E+02 0.  0.
          3    1    3    3  502    0 -0.11040770522E+02 -0.17289641929E+03  0.10950991574E+04  0.11087187357E+04  0.00000000000E+00 0.  1.
         -3    1    3    3    0  502 -0.37258428168E+02 -0.41310195693E+02  0.19307031975E+03  0.20092503853E+03  0.00000000000E+00 0. -1.
         11    1    5    5    0    0  0.11502594092E+03 -0.21078904436E+03  0.33541378035E+02  0.24246239367E+03  0.00000000000E+00 0.  1.
        -11    1    5    5    0    0  0.73290216558E+02 -0.25363893639E+02  0.13798766115E+02  0.78773021333E+02  0.00000000000E+00 0. -1.
          4    1    6    6  503    0 -0.44836210899E+02  0.27620718268E+03 -0.45919417113E+03  0.53773597645E+03  0.00000000000E+00 0. -1.
         -4    1    6    6    0  503 -0.95180747886E+02  0.17415237029E+03 -0.40436562804E+03  0.45044420741E+03  0.00000000000E+00 0.  1.
<mgrwt>
<rscale>  0 0.25761862E+04</rscale>
<asrwt>0</asrwt>
<pdfrwt beam="1">  1        2 0.16516227E+00 0.25761862E+04</pdfrwt>
<pdfrwt beam="2">  1       -2 0.23776994E+00 0.25761862E+04</pdfrwt>
<totfact> 0.15333770E+00</totfact>
</mgrwt>
</event>
<event>
12    2  0.3555611E-008  0.1724200E+04  0.7818608E-02  0.8747681E-01
         -2   -1    0    0    0  501 -0.00000000000E+00  0.00000000000E+00  0.63133404050E+03  0.63133404050E+03  0.00000000000E+00 0.  1.
          2   -1    0    0  501    0  0.00000000000E+00 -0.00000000000E+00 -0.11772159457E+04  0.11772159457E+04  0.00000000000E+00 0. -1.
         23    2    1    2    0    0  0.71959190155E+02 -0.44424606220E+03  0.24628225712E+03  0.52102947977E+03  0.91016920357E+02 0.  0.
        254    2    1    2    0    0 -0.71959190155E+02  0.44424606220E+03 -0.79216416233E+03  0.12875205064E+04  0.90975398079E+03 0.  0.
         23    2    4    4    0    0 -0.13410554367E+03 -0.14800732927E+03 -0.62442736045E+03  0.66188402791E+03  0.91052026715E+02 0.  0.
         23    2    4    4    0    0  0.62146353516E+02  0.59225339147E+03 -0.16773680188E+03  0.62563647851E+03  0.93054390433E+02 0.  0.
          1    1    3    3  502    0 -0.52333700798E+01  0.90418536435E+00  0.96561919955E+01  0.11020333816E+02  0.00000000000E+00 0. -1.
         -1    1    3    3    0  502  0.77192560235E+02 -0.44515024757E+03  0.23662606513E+03  0.51000914596E+03  0.00000000000E+00 0.  1.
         11    1    5    5    0    0 -0.10213053669E+03 -0.83578041973E+02 -0.50942219644E+03  0.52623845342E+03  0.00000000000E+00 0. -1.
        -11    1    5    5    0    0 -0.31975006981E+02 -0.64429287294E+02 -0.11500516401E+03  0.13564557450E+03  0.00000000000E+00 0.  1.
          2    1    6    6  503    0  0.18208443295E+02  0.22055015898E+03 -0.16397802661E+02  0.22190720576E+03  0.00000000000E+00 0.  1.
         -2    1    6    6    0  503  0.43937910220E+02  0.37170323249E+03 -0.15133899922E+03  0.40372927276E+03  0.00000000000E+00 0. -1.
<mgrwt>
<rscale>  0 0.17242001E+04</rscale>
<asrwt>0</asrwt>
<pdfrwt beam="1">  1        2 0.18111014E+00 0.17242001E+04</pdfrwt>
<pdfrwt beam="2">  1       -2 0.97128315E-01 0.17242001E+04</pdfrwt>
<totfact> 0.16429241E+01</totfact>
</mgrwt>
</event>
<event>
12    2  0.3555611E-008  0.2900132E+04  0.7818608E-02  0.8272838E-01
         -2   -1    0    0    0  501 -0.00000000000E+00  0.00000000000E+00  0.94225427954E+03  0.94225427954E+03  0.00000000000E+00 0.  1.
          2   -1    0    0  501    0  0.00000000000E+00 -0.00000000000E+00 -0.22315543261E+04  0.22315543261E+04  0.00000000000E+00 0. -1.
         23    2    1    2    0    0  0.10075630787E+04  0.83771914497E+03 -0.60231848781E+03  0.14449874821E+04  0.90799445584E+02 0.  0.
        254    2    1    2    0    0 -0.10075630787E+04 -0.83771914497E+03 -0.68698155878E+03  0.17288211235E+04  0.89438363779E+03 0.  0.
         23    2    4    4    0    0 -0.18883418070E+03 -0.32259979831E+01 -0.49919117947E+03  0.54141664274E+03  0.90947196295E+02 0.  0.
         23    2    4    4    0    0 -0.81872889803E+03 -0.83449314699E+03 -0.18779037930E+03  0.11874044808E+04  0.89265634784E+02 0.  0.
          1    1    3    3  502    0  0.53216226645E+03  0.41624450035E+03 -0.35510548835E+03  0.76325360776E+03  0.00000000000E+00 0. -1.
         -1    1    3    3    0  502  0.47540081228E+03  0.42147464462E+03 -0.24721299946E+03  0.68173387438E+03  0.00000000000E+00 0.  1.
         11    1    5    5    0    0 -0.14994366745E+03  0.31652124989E+02 -0.32063346557E+03  0.35537414040E+03  0.00000000000E+00 0. -1.
        -11    1    5    5    0    0 -0.38890513248E+02 -0.34878122972E+02 -0.17855771390E+03  0.18604250234E+03  0.00000000000E+00 0.  1.
          1    1    6    6  503    0 -0.75175296309E+03 -0.78561107577E+03 -0.19293339507E+03  0.11043281101E+04  0.00000000000E+00 0. -1.
         -1    1    6    6    0  503 -0.66975934939E+02 -0.48882071220E+02  0.51430157692E+01  0.83076370642E+02  0.00000000000E+00 0.  1.
<mgrwt>
<rscale>  0 0.29001321E+04</rscale>
<asrwt>0</asrwt>
<pdfrwt beam="1">  1        2 0.34331605E+00 0.29001321E+04</pdfrwt>
<pdfrwt beam="2">  1       -2 0.14496220E+00 0.29001321E+04</pdfrwt>
<totfact> 0.14026343E+00</totfact>
</mgrwt>
</event>
<event>
12    2  0.3555611E-008  0.1346764E+04  0.7818608E-02  0.8993282E-01
         -2   -1    0    0    0  501 -0.00000000000E+00  0.00000000000E+00  0.78631105160E+03  0.78631105160E+03  0.00000000000E+00 0.  1.
          2   -1    0    0  501    0  0.00000000000E+00 -0.00000000000E+00 -0.57667143472E+03  0.57667143472E+03  0.00000000000E+00 0. -1.
         23    2    1    2    0    0 -0.29510512898E+03  0.14795604801E+02 -0.14972307743E+03  0.34028626551E+03  0.77921726779E+02 0.  0.
        254    2    1    2    0    0  0.29510512898E+03 -0.14795604801E+02  0.35936269431E+03  0.10226962208E+04  0.91074698293E+03 0.  0.
         23    2    4    4    0    0  0.44290736615E+03 -0.31365158010E+03  0.39171778076E+03  0.67549750657E+03  0.91158175303E+02 0.  0.
         23    2    4    4    0    0 -0.14780223717E+03  0.29885597530E+03 -0.32355086455E+02  0.34719871424E+03  0.91321959387E+02 0.  0.
          3    1    3    3  502    0 -0.29524027337E+03  0.21332261130E+02 -0.13741766949E+03  0.32635180446E+03  0.00000000000E+00 0. -1.
         -3    1    3    3    0  502  0.13514439145E+00 -0.65366563288E+01 -0.12305407948E+02  0.13934461049E+02  0.00000000000E+00 0.  1.
         11    1    5    5    0    0  0.37581333684E+03 -0.29627371768E+03  0.31953123588E+03  0.57542505215E+03  0.00000000000E+00 0. -1.
        -11    1    5    5    0    0  0.67094029316E+02 -0.17377862413E+02  0.72186544884E+02  0.10007245442E+03  0.00000000000E+00 0.  1.
          4    1    6    6  503    0 -0.11831275075E+03  0.17250727858E+03 -0.53077439566E+02  0.21580983005E+03  0.00000000000E+00 0. -1.
         -4    1    6    6    0  503 -0.29489486422E+02  0.12634869671E+03  0.20722353111E+02  0.13138888419E+03  0.00000000000E+00 0.  1.
<mgrwt>
<rscale>  0 0.13467637E+04</rscale>
<asrwt>0</asrwt>
<pdfrwt beam="1">  1        2 0.88718682E-01 0.13467637E+04</pdfrwt>
<pdfrwt beam="2">  1       -2 0.12097093E+00 0.13467637E+04</pdfrwt>
<totfact> 0.26447680E+01</totfact>
</mgrwt>
</event>
<event>
12    2  0.3555611E-008  0.1171567E+04  0.7818608E-02  0.9138115E-01
         -1   -1    0    0    0  501 -0.00000000000E+00  0.00000000000E+00  0.24725518462E+03  0.24725518462E+03  0.00000000000E+00 0.  1.
          1   -1    0    0  501    0  0.00000000000E+00 -0.00000000000E+00 -0.13878052838E+04  0.13878052838E+04  0.00000000000E+00 0. -1.
         23    2    1    2    0    0 -0.22907493459E+02  0.11851759664E+03 -0.16787006663E+02  0.15969172922E+03  0.10319142803E+03 0.  0.
        254    2    1    2    0    0  0.22907493459E+02 -0.11851759664E+03 -0.11237630925E+04  0.14753687392E+04  0.94831337360E+03 0.  0.
         23    2    4    4    0    0 -0.10692332269E+03 -0.48937218739E+03 -0.40415936364E+03  0.65005039344E+03  0.91120733525E+02 0.  0.
         23    2    4    4    0    0  0.12983081615E+03  0.37085459075E+03 -0.71960372889E+03  0.82531834577E+03  0.94507549591E+02 0.  0.
          2    1    3    3  502    0 -0.13706384834E+02  0.16613233904E+02 -0.48089114337E+02  0.52691815718E+02  0.00000000000E+00 0. -1.
         -2    1    3    3    0  502 -0.92011086250E+01  0.10190436274E+03  0.31302107673E+02  0.10699991350E+03  0.00000000000E+00 0.  1.
         11    1    5    5    0    0 -0.89501456587E+02 -0.48163855282E+03 -0.38548352912E+03  0.62336486709E+03  0.00000000000E+00 0.  1.
        -11    1    5    5    0    0 -0.17421866102E+02 -0.77336345659E+01 -0.18675834517E+02  0.26685526357E+02  0.00000000000E+00 0. -1.
          1    1    6    6  503    0  0.88891759206E+02  0.12314396853E+03 -0.24115459963E+03  0.28499425040E+03  0.00000000000E+00 0. -1.
         -1    1    6    6    0  503  0.40939056941E+02  0.24771062222E+03 -0.47844912926E+03  0.54032409537E+03  0.00000000000E+00 0.  1.
<mgrwt>
<rscale>  0 0.11715666E+04</rscale>
<asrwt>0</asrwt>
<pdfrwt beam="1">  1        1 0.21350851E+00 0.11715666E+04</pdfrwt>
<pdfrwt beam="2">  1       -1 0.38039258E-01 0.11715666E+04</pdfrwt>
<totfact> 0.51859103E+01</totfact>
</mgrwt>
</event>
<event>
12    2  0.3555611E-008  0.2216378E+04  0.7818608E-02  0.8511642E-01
          1   -1    0    0  501    0  0.00000000000E+00  0.00000000000E+00  0.17880845901E+04  0.17880845901E+04  0.00000000000E+00 0. -1.
         -1   -1    0    0    0  501 -0.00000000000E+00 -0.00000000000E+00 -0.68681457146E+03  0.68681457146E+03  0.00000000000E+00 0.  1.
         23    2    1    2    0    0 -0.77634500325E+03 -0.48530703980E+03  0.43471158558E+03  0.10175428591E+04  0.90469997502E+02 0.  0.
        254    2    1    2    0    0  0.77634500325E+03  0.48530703980E+03  0.66655843301E+03  0.14573563024E+04  0.91725283358E+03 0.  0.
         23    2    4    4    0    0  0.15194566940E+03  0.58402500200E+03  0.13177779138E+03  0.62466710358E+03  0.93117745832E+02 0.  0.
         23    2    4    4    0    0  0.62439933386E+03 -0.98717962200E+02  0.53478064163E+03  0.83268919886E+03  0.88097690463E+02 0.  0.
          1    1    3    3  502    0 -0.97284555488E+02 -0.34930179578E+02  0.69800081244E+02  0.12472551272E+03  0.00000000000E+00 0. -1.
         -1    1    3    3    0  502 -0.67906044776E+03 -0.45037686022E+03  0.36491150434E+03  0.89281734635E+03  0.00000000000E+00 0.  1.
         11    1    5    5    0    0  0.28420443784E+02  0.25569465843E+02  0.14000830864E+02  0.40712927594E+02  0.00000000000E+00 0. -1.
        -11    1    5    5    0    0  0.12352522561E+03  0.55845553616E+03  0.11777696052E+03  0.58395417599E+03  0.00000000000E+00 0.  1.
          3    1    6    6  503    0  0.70533404516E+02 -0.44168702872E+00  0.96792089060E+02  0.11976587471E+03  0.00000000000E+00 0. -1.
         -3    1    6    6    0  503  0.55386592934E+03 -0.98276275172E+02  0.43798855257E+03  0.71292332416E+03  0.00000000000E+00 0.  1.
<mgrwt>
<rscale>  0 0.22163777E+04</rscale>
<asrwt>0</asrwt>
<pdfrwt beam="1">  1        1 0.27508993E+00 0.22163777E+04</pdfrwt>
<pdfrwt beam="2">  1       -1 0.10566378E+00 0.22163777E+04</pdfrwt>
<totfact> 0.31698371E+00</totfact>
</mgrwt>
</event>
<event>
12    2  0.3555611E-008  0.1668872E+04  0.7818608E-02  0.8779320E-01
          2   -1    0    0  501    0  0.00000000000E+00  0.00000000000E+00  0.15232258475E+04  0.15232258475E+04  0.00000000000E+00 0. -1.
         -2   -1    0    0    0  501 -0.00000000000E+00 -0.00000000000E+00 -0.45711112077E+03  0.45711112077E+03  0.00000000000E+00 0.  1.
         23    2    1    2    0    0 -0.36178719652E+03 -0.24592129113E+03 -0.84827905147E+02  0.45360281980E+03  0.84808535222E+02 0.  0.
        254    2    1    2    0    0  0.36178719652E+03  0.24592129113E+03  0.11509426319E+04  0.15267341485E+04  0.90270757238E+03 0.  0.
         23    2    4    4    0    0  0.38863397936E+03  0.44295396111E+03  0.33975174163E+03  0.68627793818E+03  0.91113011804E+02 0.  0.
         23    2    4    4    0    0 -0.26846782838E+02 -0.19703266998E+03  0.81119089023E+03  0.84045621028E+03  0.93772907661E+02 0.  0.
          2    1    3    3  502    0 -0.16312061552E+03 -0.61688630335E+02 -0.25639632426E+02  0.17627028414E+03  0.00000000000E+00 0. -1.
         -2    1    3    3    0  502 -0.19866658100E+03 -0.18423266079E+03 -0.59188272721E+02  0.27733253566E+03  0.00000000000E+00 0.  1.
         11    1    5    5    0    0  0.45635532321E+02  0.55390670820E+02  0.96338966208E+01  0.72412293074E+02  0.00000000000E+00 0.  1.
        -11    1    5    5    0    0  0.34299844703E+03  0.38756329029E+03  0.33011784501E+03  0.61386564510E+03  0.00000000000E+00 0. -1.
          1    1    6    6  503    0 -0.22625761882E+02 -0.19643706316E+03  0.81232502153E+03  0.83604508579E+03  0.00000000000E+00 0. -1.
         -1    1    6    6    0  503 -0.42210209556E+01 -0.59560682012E+00 -0.11341312964E+01  0.44111244813E+01  0.00000000000E+00 0.  1.
<mgrwt>
<rscale>  0 0.16688720E+04</rscale>
<asrwt>0</asrwt>
<pdfrwt beam="1">  1        2 0.23434244E+00 0.16688720E+04</pdfrwt>
<pdfrwt beam="2">  1       -2 0.70324788E-01 0.16688720E+04</pdfrwt>
<totfact> 0.21617071E+01</totfact>
</mgrwt>
</event>
<event>
12    2  0.3555611E-008  0.1836216E+04  0.7818608E-02  0.8687274E-01
          2   -1    0    0  501    0  0.00000000000E+00  0.00000000000E+00  0.84060327678E+03  0.84060327678E+03  0.00000000000E+00 0. -1.
         -2   -1    0    0    0  501 -0.00000000000E+00 -0.00000000000E+00 -0.10027587422E+04  0.10027587422E+04  0.00000000000E+00 0.  1.
         23    2    1    2    0    0 -0.87366065551E+02 -0.64461384665E+03 -0.31529150852E+03  0.72927922807E+03  0.96330765836E+02 0.  0.
        254    2    1    2    0    0  0.87366065551E+02  0.64461384665E+03  0.15313604309E+03  0.11140827909E+04  0.89138654726E+03 0.  0.
         23    2    4    4    0    0  0.43435116674E+03  0.21619026481E+03  0.23941721392E+03  0.54868701365E+03  0.91310842600E+02 0.  0.
         23    2    4    4    0    0 -0.34698510119E+03  0.42842358183E+03 -0.86281170821E+02  0.56539577727E+03  0.91008343582E+02 0.  0.
          3    1    3    3  502    0 -0.54556139983E+02 -0.56619180418E+03 -0.24652519634E+03  0.61993887115E+03  0.00000000000E+00 0. -1.
         -3    1    3    3    0  502 -0.32809925568E+02 -0.78422042469E+02 -0.68766312178E+02  0.10934035692E+03  0.00000000000E+00 0.  1.
         11    1    5    5    0    0  0.19975175581E+03  0.13265241170E+03  0.79010941070E+02  0.25246812688E+03  0.00000000000E+00 0. -1.
        -11    1    5    5    0    0  0.23459941093E+03  0.83537853113E+02  0.16040627285E+03  0.29621888677E+03  0.00000000000E+00 0.  1.
          1    1    6    6  503    0 -0.48416741933E+01 -0.32947731370E+01 -0.65710711439E+01  0.88020631102E+01  0.00000000000E+00 0. -1.
         -1    1    6    6    0  503 -0.34214342700E+03  0.43171835497E+03 -0.79710099677E+02  0.55659371416E+03  0.00000000000E+00 0.  1.
<mgrwt>
<rscale>  0 0.18362160E+04</rscale>
<asrwt>0</asrwt>
<pdfrwt beam="1">  1        2 0.12932358E+00 0.18362160E+04</pdfrwt>
<pdfrwt beam="2">  1       -2 0.15427058E+00 0.18362160E+04</pdfrwt>
<totfact> 0.84302856E+00</totfact>
</mgrwt>
</event>
<event>
12    2  0.3555611E-008  0.1893669E+04  0.7818608E-02  0.8658014E-01
          1   -1    0    0  501    0  0.00000000000E+00  0.00000000000E+00  0.92902171532E+03  0.92902171532E+03  0.00000000000E+00 0. -1.
         -1   -1    0    0    0  501 -0.00000000000E+00 -0.00000000000E+00 -0.96498920465E+03  0.96498920465E+03  0.00000000000E+00 0.  1.
         23    2    1    2    0    0  0.37378369407E+03  0.12835741820E+03 -0.62657447758E+03  0.74766193510E+03  0.10105897524E+03 0.  0.
        254    2    1    2    0    0 -0.37378369407E+03 -0.12835741820E+03  0.59060698825E+03  0.11463489849E+04  0.89950514383E+03 0.  0.
         23    2    4    4    0    0 -0.59193688244E+03 -0.29163714180E+03  0.27938740340E+03  0.72242657427E+03  0.91658817144E+02 0.  0.
         23    2    4    4    0    0  0.21815318837E+03  0.16327972360E+03  0.31121958485E+03  0.42392241060E+03  0.92744263867E+02 0.  0.
          2    1    3    3  502    0  0.23143623273E+03  0.70969815126E+02 -0.29007577503E+03  0.37781397504E+03  0.00000000000E+00 0. -1.
         -2    1    3    3    0  502  0.14234746134E+03  0.57387603071E+02 -0.33649870255E+03  0.36984796005E+03  0.00000000000E+00 0.  1.
         11    1    5    5    0    0 -0.51228448294E+03 -0.28212719461E+03  0.25924681412E+03  0.63971873197E+03  0.00000000000E+00 0. -1.
        -11    1    5    5    0    0 -0.79652399496E+02 -0.95099471899E+01  0.20140589286E+02  0.82707842299E+02  0.00000000000E+00 0.  1.
          2    1    6    6  503    0  0.63488670786E+02  0.73548632186E+02  0.55520330302E+02  0.11190495830E+03  0.00000000000E+00 0. -1.
         -2    1    6    6    0  503  0.15466451758E+03  0.89731091415E+02  0.25569925454E+03  0.31201745230E+03  0.00000000000E+00 0.  1.
<mgrwt>
<rscale>  0 0.18936694E+04</rscale>
<asrwt>0</asrwt>
<pdfrwt beam="1">  1        1 0.14292642E+00 0.18936694E+04</pdfrwt>
<pdfrwt beam="2">  1       -1 0.14845988E+00 0.18936694E+04</pdfrwt>
<totfact> 0.57873271E+00</totfact>
</mgrwt>
</event>
<event>
12    2  0.3555611E-008  0.2397726E+04  0.7818608E-02  0.8440356E-01
         -2   -1    0    0    0  501 -0.00000000000E+00  0.00000000000E+00  0.12181656125E+04  0.12181656125E+04  0.00000000000E+00 0.  1.
          2   -1    0    0  501    0  0.00000000000E+00 -0.00000000000E+00 -0.11798659113E+04  0.11798659113E+04  0.00000000000E+00 0. -1.
         23    2    1    2    0    0 -0.11128967357E+02  0.94504134502E+03 -0.38729559075E+03  0.10254058915E+04  0.90732408767E+02 0.  0.
        254    2    1    2    0    0  0.11128967357E+02 -0.94504134502E+03  0.42559529198E+03  0.13726256323E+04  0.89985708646E+03 0.  0.
         23    2    4    4    0    0  0.24309594707E+03  0.17899072285E+02 -0.60723584210E+02  0.26583113572E+03  0.86964491423E+02 0.  0.
         23    2    4    4    0    0 -0.23196697971E+03 -0.96294041730E+03  0.48631887619E+03  0.11067944965E+04  0.86168911259E+02 0.  0.
          3    1    3    3  502    0  0.46954664512E+01  0.46091503658E+02 -0.41215056103E+02  0.62009313528E+02  0.00000000000E+00 0. -1.
         -3    1    3    3    0  502 -0.15824433808E+02  0.89894984136E+03 -0.34608053465E+03  0.96339657797E+03  0.00000000000E+00 0.  1.
         11    1    5    5    0    0  0.86955872587E+00 -0.72143054759E-01 -0.19435180052E+02  0.19454756761E+02  0.00000000000E+00 0. -1.
        -11    1    5    5    0    0  0.24222638834E+03  0.17971215340E+02 -0.41288404158E+02  0.24637637895E+03  0.00000000000E+00 0.  1.
          4    1    6    6  503    0 -0.19877136006E+02 -0.18755839079E+03  0.11875615119E+03  0.22288174878E+03  0.00000000000E+00 0. -1.
         -4    1    6    6    0  503 -0.21208984370E+03 -0.77538202651E+03  0.36756272500E+03  0.88391274776E+03  0.00000000000E+00 0.  1.
<mgrwt>
<rscale>  0 0.23977257E+04</rscale>
<asrwt>0</asrwt>
<pdfrwt beam="1">  1        2 0.18151783E+00 0.23977257E+04</pdfrwt>
<pdfrwt beam="2">  1       -2 0.18741010E+00 0.23977257E+04</pdfrwt>
<totfact> 0.28262780E+00</totfact>
</mgrwt>
</event>
<event>
12    2  0.3555611E-008  0.2361071E+04  0.7818608E-02  0.8454224E-01
          2   -1    0    0  501    0  0.00000000000E+00  0.00000000000E+00  0.11709947706E+04  0.11709947706E+04  0.00000000000E+00 0. -1.
         -2   -1    0    0    0  501 -0.00000000000E+00 -0.00000000000E+00 -0.11901535441E+04  0.11901535441E+04  0.00000000000E+00 0.  1.
         23    2    1    2    0    0  0.83752567277E+03  0.18861097523E+03  0.51944923481E+03  0.10074115277E+04  0.89594230503E+02 0.  0.
        254    2    1    2    0    0 -0.83752567277E+03 -0.18861097523E+03 -0.53860800837E+03  0.13537367870E+04  0.89748612758E+03 0.  0.
         23    2    4    4    0    0 -0.68458135527E+03 -0.51908099713E+03 -0.33433255697E+03  0.92654154654E+03  0.92759178798E+02 0.  0.
         23    2    4    4    0    0 -0.15294431750E+03  0.33047002190E+03 -0.20427545140E+03  0.42719524043E+03  0.90359912396E+02 0.  0.
          2    1    3    3  502    0  0.79654750755E+03  0.15817986732E+03  0.48711066436E+03  0.94698764593E+03  0.00000000000E+00 0. -1.
         -2    1    3    3    0  502  0.40978165217E+02  0.30431107911E+02  0.32338570449E+02  0.60423881801E+02  0.00000000000E+00 0.  1.
         11    1    5    5    0    0 -0.48760655071E+02 -0.70305888002E+02 -0.25765344332E+02  0.89355315115E+02  0.00000000000E+00 0. -1.
        -11    1    5    5    0    0 -0.63582070020E+03 -0.44877510913E+03 -0.30856721264E+03  0.83718623143E+03  0.00000000000E+00 0.  1.
          4    1    6    6  503    0 -0.13998915681E+02  0.13159423669E+03 -0.79553936117E+02  0.15440803581E+03  0.00000000000E+00 0. -1.
         -4    1    6    6    0  503 -0.13894540182E+03  0.19887578522E+03 -0.12472151529E+03  0.27278720462E+03  0.00000000000E+00 0.  1.
<mgrwt>
<rscale>  0 0.23610706E+04</rscale>
<asrwt>0</asrwt>
<pdfrwt beam="1">  1        2 0.18015304E+00 0.23610706E+04</pdfrwt>
<pdfrwt beam="2">  1       -2 0.18310055E+00 0.23610706E+04</pdfrwt>
<totfact> 0.30704382E+00</totfact>
</mgrwt>
</event>
<event>
12    2  0.3555611E-008  0.1584157E+04  0.7818608E-02  0.8830340E-01
         -1   -1    0    0    0  501 -0.00000000000E+00  0.00000000000E+00  0.41431847882E+03  0.41431847882E+03  0.00000000000E+00 0.  1.
          1   -1    0    0  501    0  0.00000000000E+00 -0.00000000000E+00 -0.15142659960E+04  0.15142659960E+04  0.00000000000E+00 0. -1.
         23    2    1    2    0    0  0.33545693867E+03  0.37465685281E+03 -0.54020953826E+03  0.74797296978E+03  0.12140058993E+03 0.  0.
        254    2    1    2    0    0 -0.33545693867E+03 -0.37465685281E+03 -0.55973797896E+03  0.11806115051E+04  0.90974601170E+03 0.  0.
         23    2    4    4    0    0  0.20608044169E+03  0.73857370520E+01 -0.44988430878E+03  0.50261632698E+03  0.87770059234E+02 0.  0.
         23    2    4    4    0    0 -0.54153738035E+03 -0.38204258986E+03 -0.10985367018E+03  0.67799517811E+03  0.91598896829E+02 0.  0.
          3    1    3    3  502    0  0.21796106599E+03  0.29239805869E+03 -0.44708177338E+03  0.57696253181E+03  0.00000000000E+00 0. -1.
         -3    1    3    3    0  502  0.11749587267E+03  0.82258794121E+02 -0.93127764872E+02  0.17101043797E+03  0.00000000000E+00 0.  1.
         11    1    5    5    0    0  0.59534874610E+02 -0.17045948260E+02 -0.22282838148E+03  0.23127354635E+03  0.00000000000E+00 0.  1.
        -11    1    5    5    0    0  0.14654556708E+03  0.24431685312E+02 -0.22705592730E+03  0.27134278063E+03  0.00000000000E+00 0. -1.
          4    1    6    6  503    0 -0.21599640364E+03 -0.18115598377E+03 -0.85931911442E+02  0.29471381075E+03  0.00000000000E+00 0. -1.
         -4    1    6    6    0  503 -0.32554097671E+03 -0.20088660609E+03 -0.23921758738E+02  0.38328136736E+03  0.00000000000E+00 0.  1.
<mgrwt>
<rscale>  0 0.15841570E+04</rscale>
<asrwt>0</asrwt>
<pdfrwt beam="1">  1        1 0.23296400E+00 0.15841570E+04</pdfrwt>
<pdfrwt beam="2">  1       -1 0.63741305E-01 0.15841570E+04</pdfrwt>
<totfact> 0.15334366E+01</totfact>
</mgrwt>
</event>
<event>
12    2  0.3555611E-008  0.1472432E+04  0.7818608E-02  0.8902995E-01
         -1   -1    0    0    0  501 -0.00000000000E+00  0.00000000000E+00  0.10501833037E+04  0.10501833037E+04  0.00000000000E+00 0.  1.
          1   -1    0    0  501    0  0.00000000000E+00 -0.00000000000E+00 -0.51611355601E+03  0.51611355601E+03  0.00000000000E+00 0. -1.
         23    2    1    2    0    0  0.14779800890E+03  0.35971535103E+03  0.38403504530E+03  0.55559968166E+03  0.99843402571E+02 0.  0.
        254    2    1    2    0    0 -0.14779800890E+03 -0.35971535103E+03  0.15003470238E+03  0.10106971780E+04  0.92073828452E+03 0.  0.
         23    2    4    4    0    0 -0.18557829136E+02 -0.12348396075E+03  0.52111144532E+03  0.54328531672E+03  0.89493660879E+02 0.  0.
         23    2    4    4    0    0 -0.12924017977E+03 -0.23623139028E+03 -0.37107674294E+03  0.46741186132E+03  0.90926372050E+02 0.  0.
          2    1    3    3  502    0  0.24169002932E+02  0.65460834189E+02  0.22457189058E+02  0.73304753297E+02  0.00000000000E+00 0. -1.
         -2    1    3    3    0  502  0.12362900597E+03  0.29425451684E+03  0.36157785624E+03  0.48229492836E+03  0.00000000000E+00 0.  1.
         11    1    5    5    0    0  0.31626937899E+02 -0.35600958070E+02  0.23570320310E+03  0.24046557211E+03  0.00000000000E+00 0. -1.
        -11    1    5    5    0    0 -0.50184767034E+02 -0.87883002685E+02  0.28540824222E+03  0.30281974462E+03  0.00000000000E+00 0.  1.
          3    1    6    6  503    0 -0.14213095372E+03 -0.22658503696E+03 -0.35656992735E+03  0.44573994669E+03  0.00000000000E+00 0. -1.
         -3    1    6    6    0  503  0.12890773954E+02 -0.96463533190E+01 -0.14506815587E+02  0.21671914635E+02  0.00000000000E+00 0.  1.
<mgrwt>
<rscale>  0 0.14724318E+04</rscale>
<asrwt>0</asrwt>
<pdfrwt beam="1">  1        1 0.79402086E-01 0.14724318E+04</pdfrwt>
<pdfrwt beam="2">  1       -1 0.16156666E+00 0.14724318E+04</pdfrwt>
<totfact> 0.11692804E+01</totfact>
</mgrwt>
</event>
<event>
12    2  0.3555611E-008  0.1827848E+04  0.7818608E-02  0.8691629E-01
          1   -1    0    0  501    0  0.00000000000E+00  0.00000000000E+00  0.64079685918E+03  0.64079685918E+03  0.00000000000E+00 0. -1.
         -1   -1    0    0    0  501 -0.00000000000E+00 -0.00000000000E+00 -0.13034665338E+04  0.13034665338E+04  0.00000000000E+00 0.  1.
         23    2    1    2    0    0 -0.26934201674E+02  0.13752959897E+03  0.46510956810E+03  0.49425599449E+03  0.91226289729E+02 0.  0.
        254    2    1    2    0    0  0.26934201674E+02 -0.13752959897E+03 -0.11277792427E+04  0.14500073985E+04  0.90055293768E+03 0.  0.
         23    2    4    4    0    0  0.10747076191E+03  0.19515064671E+03 -0.10651122259E+04  0.10919538197E+04  0.90913974861E+02 0.  0.
         23    2    4    4    0    0 -0.80536560232E+02 -0.33268024567E+03 -0.62667016805E+02  0.35805357887E+03  0.84338170171E+02 0.  0.
          3    1    3    3  502    0 -0.39714207200E+02  0.13613520590E+03  0.45823753006E+03  0.47967869090E+03  0.00000000000E+00 0. -1.
         -3    1    3    3    0  502  0.12780005526E+02  0.13943930650E+01  0.68720380347E+01  0.14577303592E+02  0.00000000000E+00 0.  1.
         11    1    5    5    0    0  0.51067468466E+02  0.13597211883E+03 -0.83981729481E+03  0.85228480691E+03  0.00000000000E+00 0. -1.
        -11    1    5    5    0    0  0.56403293441E+02  0.59178527880E+02 -0.22529493114E+03  0.23966901274E+03  0.00000000000E+00 0.  1.
          2    1    6    6  503    0 -0.74720048146E+02 -0.33569009538E+03 -0.66767416360E+02  0.35032672410E+03  0.00000000000E+00 0. -1.
         -2    1    6    6    0  503 -0.58165120859E+01  0.30098497043E+01  0.41003995551E+01  0.77268547676E+01  0.00000000000E+00 0.  1.
<mgrwt>
<rscale>  0 0.18278482E+04</rscale>
<asrwt>0</asrwt>
<pdfrwt beam="1">  1        1 0.98584134E-01 0.18278482E+04</pdfrwt>
<pdfrwt beam="2">  1       -1 0.20053331E+00 0.18278482E+04</pdfrwt>
<totfact> 0.43692450E+00</totfact>
</mgrwt>
</event>
<event>
12    2  0.3555611E-008  0.2066429E+04  0.7818608E-02  0.8576177E-01
         -1   -1    0    0    0  501 -0.00000000000E+00  0.00000000000E+00  0.13569545417E+04  0.13569545417E+04  0.00000000000E+00 0.  1.
          1   -1    0    0  501    0  0.00000000000E+00 -0.00000000000E+00 -0.78671197248E+03  0.78671197248E+03  0.00000000000E+00 0. -1.
         23    2    1    2    0    0  0.27875082709E+03  0.23127339835E+03  0.10093208335E+04  0.10760497513E+04  0.89247486568E+02 0.  0.
        254    2    1    2    0    0 -0.27875082709E+03 -0.23127339835E+03 -0.43907826426E+03  0.10676167629E+04  0.90323110108E+03 0.  0.
         23    2    4    4    0    0 -0.37248176016E+03 -0.46462451326E+03 -0.51112359957E+03  0.78958794505E+03  0.87081507566E+02 0.  0.
         23    2    4    4    0    0  0.93730933074E+02  0.23335111490E+03  0.72045335307E+02  0.27802881788E+03  0.94187380220E+02 0.  0.
          1    1    3    3  502    0  0.68142393196E+02  0.11058508068E+03  0.32834674159E+03  0.35310625671E+03  0.00000000000E+00 0. -1.
         -1    1    3    3    0  502  0.21060843389E+03  0.12068831768E+03  0.68097409191E+03  0.72294349455E+03  0.00000000000E+00 0.  1.
         11    1    5    5    0    0 -0.12892448857E+03 -0.22940715706E+03 -0.21700481406E+03  0.34108687572E+03  0.00000000000E+00 0.  1.
        -11    1    5    5    0    0 -0.24355727159E+03 -0.23521735620E+03 -0.29411878550E+03  0.44850106933E+03  0.00000000000E+00 0. -1.
          1    1    6    6  503    0  0.70300467284E+02  0.14443213114E+03  0.90309121974E+02  0.18427841360E+03  0.00000000000E+00 0. -1.
         -1    1    6    6    0  503  0.23430465790E+02  0.88918983760E+02 -0.18263786667E+02  0.93750404284E+02  0.00000000000E+00 0.  1.
<mgrwt>
<rscale>  0 0.20664292E+04</rscale>
<asrwt>0</asrwt>
<pdfrwt beam="1">  1        1 0.12103261E+00 0.20664292E+04</pdfrwt>
<pdfrwt beam="2">  1       -1 0.20876224E+00 0.20664292E+04</pdfrwt>
<totfact> 0.27453725E+00</totfact>
</mgrwt>
</event>
<event>
12    2  0.3555611E-008  0.1616332E+04  0.7818608E-02  0.8810577E-01
         -1   -1    0    0    0  501 -0.00000000000E+00  0.00000000000E+00  0.33832286768E+03  0.33832286768E+03  0.00000000000E+00 0.  1.
          1   -1    0    0  501    0  0.00000000000E+00 -0.00000000000E+00 -0.19304999373E+04  0.19304999373E+04  0.00000000000E+00 0. -1.
         23    2    1    2    0    0 -0.24874084678E+03 -0.45497411459E+03 -0.27760898720E+03  0.59533040210E+03  0.92076512130E+02 0.  0.
        254    2    1    2    0    0  0.24874084678E+03  0.45497411459E+03 -0.13145680824E+04  0.16734924029E+04  0.89644527183E+03 0.  0.
         23    2    4    4    0    0  0.78072459127E+01  0.93103652866E+02  0.11712168003E+03  0.17438322482E+03  0.89234398644E+02 0.  0.
         23    2    4    4    0    0  0.24093360086E+03  0.36187046173E+03 -0.14316897624E+04  0.14991091780E+04  0.92701244592E+02 0.  0.
          2    1    3    3  502    0 -0.12926603063E+03 -0.22363861880E+03 -0.18984814374E+03  0.32057176447E+03  0.00000000000E+00 0. -1.
         -2    1    3    3    0  502 -0.11947481614E+03 -0.23133549580E+03 -0.87760843455E+02  0.27475863763E+03  0.00000000000E+00 0.  1.
         11    1    5    5    0    0 -0.37885007883E+02  0.64372219562E+02  0.75698804326E+02  0.10634550037E+03  0.00000000000E+00 0. -1.
        -11    1    5    5    0    0  0.45692253796E+02  0.28731433304E+02  0.41422875704E+02  0.68037724449E+02  0.00000000000E+00 0.  1.
          1    1    6    6  503    0  0.22675641795E+03  0.36402466201E+03 -0.13607690909E+04  0.14267532885E+04  0.00000000000E+00 0. -1.
         -1    1    6    6    0  503  0.14177182915E+02 -0.21542002846E+01 -0.70920671534E+02  0.72355889498E+02  0.00000000000E+00 0.  1.
<mgrwt>
<rscale>  0 0.16163320E+04</rscale>
<asrwt>0</asrwt>
<pdfrwt beam="1">  1        1 0.29699999E+00 0.16163320E+04</pdfrwt>
<pdfrwt beam="2">  1       -1 0.52049672E-01 0.16163320E+04</pdfrwt>
<totfact> 0.11834493E+01</totfact>
</mgrwt>
</event>
<event>
12    2  0.3555611E-008  0.1814922E+04  0.7818608E-02  0.8698404E-01
          2   -1    0    0  501    0  0.00000000000E+00  0.00000000000E+00  0.18159003576E+04  0.18159003576E+04  0.00000000000E+00 0. -1.
         -2   -1    0    0    0  501 -0.00000000000E+00 -0.00000000000E+00 -0.45348612342E+03  0.45348612342E+03  0.00000000000E+00 0.  1.
         23    2    1    2    0    0 -0.65115603617E+02 -0.35722004005E+03  0.12486378806E+04  0.13035030595E+04  0.90429366274E+02 0.  0.
        254    2    1    2    0    0  0.65115603617E+02  0.35722004005E+03  0.11377635353E+03  0.96588342152E+03  0.88777222670E+03 0.  0.
         23    2    4    4    0    0 -0.18972221666E+03  0.54122789656E+03 -0.79104081879E+02  0.58608616403E+03  0.91199673152E+02 0.  0.
         23    2    4    4    0    0  0.25483782027E+03 -0.18400785651E+03  0.19288043541E+03  0.37979725750E+03  0.90784847522E+02 0.  0.
          3    1    3    3  502    0 -0.27396079836E+02 -0.22561054878E+03  0.91643102061E+03  0.94419091313E+03  0.00000000000E+00 0. -1.
         -3    1    3    3    0  502 -0.37719523781E+02 -0.13160949128E+03  0.33220686002E+03  0.35931214634E+03  0.00000000000E+00 0.  1.
         11    1    5    5    0    0 -0.13912368809E+03  0.37463266394E+03 -0.12976974490E+02  0.39984176289E+03  0.00000000000E+00 0. -1.
        -11    1    5    5    0    0 -0.50598528566E+02  0.16659523262E+03 -0.66127107389E+02  0.18624440114E+03  0.00000000000E+00 0.  1.
          1    1    6    6  503    0  0.18354372504E+03 -0.16511985354E+03  0.11441208760E+03  0.27210841741E+03  0.00000000000E+00 0. -1.
         -1    1    6    6    0  503  0.71294095229E+02 -0.18888002963E+02  0.78468347813E+02  0.10768884009E+03  0.00000000000E+00 0.  1.
<mgrwt>
<rscale>  0 0.18149222E+04</rscale>
<asrwt>0</asrwt>
<pdfrwt beam="1">  1        2 0.27936928E+00 0.18149222E+04</pdfrwt>
<pdfrwt beam="2">  1       -2 0.69767097E-01 0.18149222E+04</pdfrwt>
<totfact> 0.14927524E+01</totfact>
</mgrwt>
</event>
<event>
12    2  0.3555611E-008  0.1538937E+04  0.7818608E-02  0.8858965E-01
          1   -1    0    0  501    0  0.00000000000E+00  0.00000000000E+00  0.60544396889E+03  0.60544396889E+03  0.00000000000E+00 0. -1.
         -1   -1    0    0    0  501 -0.00000000000E+00 -0.00000000000E+00 -0.97793045320E+03  0.97793045320E+03  0.00000000000E+00 0.  1.
         23    2    1    2    0    0  0.16671652314E+02 -0.22932768652E+03  0.33582345356E+03  0.41669299436E+03  0.89367375420E+02 0.  0.
        254    2    1    2    0    0 -0.16671652314E+02  0.22932768652E+03 -0.70830993788E+03  0.11666814277E+04  0.89809434578E+03 0.  0.
         23    2    4    4    0    0  0.95145970099E+02 -0.20025997724E+03  0.83611095123E+02  0.25490945043E+03  0.93974457054E+02 0.  0.
         23    2    4    4    0    0 -0.11181762241E+03  0.42958766377E+03 -0.79192103300E+03  0.91177197730E+03  0.84501328654E+02 0.  0.
          1    1    3    3  502    0  0.37059275577E+02 -0.15170895296E+03  0.16083796658E+03  0.22418262156E+03  0.00000000000E+00 0. -1.
         -1    1    3    3    0  502 -0.20387623263E+02 -0.77618733558E+02  0.17498548698E+03  0.19251037280E+03  0.00000000000E+00 0.  1.
         11    1    5    5    0    0  0.70094609801E+01  0.99115868683E+01  0.89697087518E+01  0.15093964773E+02  0.00000000000E+00 0.  1.
        -11    1    5    5    0    0  0.88136509119E+02 -0.21017156411E+03  0.74641386371E+02  0.23981548566E+03  0.00000000000E+00 0. -1.
          2    1    6    6  503    0 -0.85196982157E+02  0.32532499723E+03 -0.51929685185E+03  0.61867931914E+03  0.00000000000E+00 0. -1.
         -2    1    6    6    0  503 -0.26620640255E+02  0.10426266654E+03 -0.27262418115E+03  0.29309265816E+03  0.00000000000E+00 0.  1.
<mgrwt>
<rscale>  0 0.15389374E+04</rscale>
<asrwt>0</asrwt>
<pdfrwt beam="1">  1        1 0.93145227E-01 0.15389374E+04</pdfrwt>
<pdfrwt beam="2">  1       -1 0.15045084E+00 0.15389374E+04</pdfrwt>
<totfact> 0.11281790E+01</totfact>
</mgrwt>
</event>
<event>
12    2  0.3555611E-008  0.1526079E+04  0.7818608E-02  0.8867294E-01
          1   -1    0    0  501    0  0.00000000000E+00  0.00000000000E+00  0.12527697510E+04  0.12527697510E+04  0.00000000000E+00 0. -1.
         -1   -1    0    0    0  501 -0.00000000000E+00 -0.00000000000E+00 -0.46475345621E+03  0.46475345621E+03  0.00000000000E+00 0.  1.
         23    2    1    2    0    0 -0.30092155768E+03  0.29095909983E+03 -0.45898876696E+02  0.43099224680E+03  0.91851120118E+02 0.  0.
        254    2    1    2    0    0  0.30092155768E+03 -0.29095909983E+03  0.83391517150E+03  0.12865309604E+04  0.88574060382E+03 0.  0.
         23    2    4    4    0    0 -0.20986494368E+03 -0.99770132206E+02  0.66247862363E+03  0.70799265476E+03  0.91533046345E+02 0.  0.
         23    2    4    4    0    0  0.51078650136E+03 -0.19118896762E+03  0.17143654787E+03  0.57853830567E+03  0.88656696705E+02 0.  0.
          4    1    3    3  502    0 -0.20796676946E+03  0.18095305058E+03 -0.71316622507E+02  0.28474592949E+03  0.00000000000E+00 0. -1.
         -4    1    3    3    0  502 -0.92954788222E+02  0.11000604925E+03  0.25417745811E+02  0.14624631731E+03  0.00000000000E+00 0.  1.
         11    1    5    5    0    0 -0.11783077441E+03 -0.55945884865E+01  0.32349135373E+03  0.34432839958E+03  0.00000000000E+00 0. -1.
        -11    1    5    5    0    0 -0.92034169264E+02 -0.94175543720E+02  0.33898726990E+03  0.36366425519E+03  0.00000000000E+00 0.  1.
          3    1    6    6  503    0  0.29957463921E+03 -0.14863740204E+03  0.13185534426E+03  0.35947722258E+03  0.00000000000E+00 0. -1.
         -3    1    6    6    0  503  0.21121186215E+03 -0.42551565588E+02  0.39581203610E+02  0.21906108310E+03  0.00000000000E+00 0.  1.
<mgrwt>
<rscale>  0 0.15260787E+04</rscale>
<asrwt>0</asrwt>
<pdfrwt beam="1">  1        1 0.19273381E+00 0.15260787E+04</pdfrwt>
<pdfrwt beam="2">  1       -1 0.71500532E-01 0.15260787E+04</pdfrwt>
<totfact> 0.18648085E+01</totfact>
</mgrwt>
</event>
<event>
12    2  0.3555611E-008  0.1028892E+04  0.7818608E-02  0.9277413E-01
         -1   -1    0    0    0  501 -0.00000000000E+00  0.00000000000E+00  0.15039761495E+03  0.15039761495E+03  0.00000000000E+00 0.  1.
          1   -1    0    0  501    0  0.00000000000E+00 -0.00000000000E+00 -0.17596987742E+04  0.17596987742E+04  0.00000000000E+00 0. -1.
         23    2    1    2    0    0  0.78419581205E+02 -0.43314887917E+02 -0.18805029384E+03  0.22832760915E+03  0.93513495568E+02 0.  0.
        254    2    1    2    0    0 -0.78419581205E+02  0.43314887917E+02 -0.14212508654E+04  0.16817687800E+04  0.89463198953E+03 0.  0.
         23    2    4    4    0    0 -0.46094072333E+03 -0.58643043994E+01 -0.99082215955E+03  0.10966182905E+04  0.91336645261E+02 0.  0.
         23    2    4    4    0    0  0.38252114212E+03  0.49179192316E+02 -0.43042870583E+03  0.58515048944E+03  0.91603533579E+02 0.  0.
          3    1    3    3  502    0  0.14131358034E+02 -0.59906777290E+02 -0.10818001189E+03  0.12446458218E+03  0.00000000000E+00 0. -1.
         -3    1    3    3    0  502  0.64288223171E+02  0.16591889373E+02 -0.79870281956E+02  0.10386302697E+03  0.00000000000E+00 0.  1.
         11    1    5    5    0    0 -0.35365097254E+03  0.16626764018E+02 -0.82591893523E+03  0.89860310884E+03  0.00000000000E+00 0. -1.
        -11    1    5    5    0    0 -0.10728975079E+03 -0.22491068417E+02 -0.16490322432E+03  0.19801518168E+03  0.00000000000E+00 0.  1.
          2    1    6    6  503    0  0.36243057638E+03  0.43825784248E+02 -0.43037690863E+03  0.56435884466E+03  0.00000000000E+00 0. -1.
         -2    1    6    6    0  503  0.20090565739E+02  0.53534080681E+01 -0.51797194066E-01  0.20791644779E+02  0.00000000000E+00 0.  1.
<mgrwt>
<rscale>  0 0.10288916E+04</rscale>
<asrwt>0</asrwt>
<pdfrwt beam="1">  1        1 0.27072289E+00 0.10288916E+04</pdfrwt>
<pdfrwt beam="2">  1       -1 0.23138094E-01 0.10288916E+04</pdfrwt>
<totfact> 0.69568442E+01</totfact>
</mgrwt>
</event>
<event>
12    2  0.3555611E-008  0.1042196E+04  0.7818608E-02  0.9263438E-01
          2   -1    0    0  501    0  0.00000000000E+00  0.00000000000E+00  0.60465985584E+03  0.60465985584E+03  0.00000000000E+00 0. -1.
         -2   -1    0    0    0  501 -0.00000000000E+00 -0.00000000000E+00 -0.44908436617E+03  0.44908436617E+03  0.00000000000E+00 0.  1.
         23    2    1    2    0    0 -0.21170276863E+02  0.50599800347E+02  0.79709160160E+02  0.13193200430E+03  0.89688255241E+02 0.  0.
        254    2    1    2    0    0  0.21170276863E+02 -0.50599800347E+02  0.75866329518E+02  0.92181221771E+03  0.91704609717E+03 0.  0.
         23    2    4    4    0    0 -0.26100565180E+03 -0.24106568588E+03 -0.24805951929E+03  0.44274342101E+03  0.90838298923E+02 0.  0.
         23    2    4    4    0    0  0.28217592866E+03  0.19046588553E+03  0.32392584881E+03  0.47906879670E+03  0.93158188989E+02 0.  0.
          4    1    3    3  502    0 -0.16703773820E+02  0.16528491661E+02  0.92369025966E+02  0.95311300769E+02  0.00000000000E+00 0. -1.
         -4    1    3    3    0  502 -0.44665030438E+01  0.34071308686E+02 -0.12659865806E+02  0.36620703533E+02  0.00000000000E+00 0.  1.
         11    1    5    5    0    0 -0.25932352980E+03 -0.21897975710E+03 -0.21125219743E+03  0.39978533996E+03  0.00000000000E+00 0.  1.
        -11    1    5    5    0    0 -0.16821220043E+01 -0.22085928774E+02 -0.36807321867E+02  0.42958081048E+02  0.00000000000E+00 0. -1.
          2    1    6    6  503    0  0.64127321432E+02  0.75349000582E+02  0.51201506356E+02  0.11140637098E+03  0.00000000000E+00 0. -1.
         -2    1    6    6    0  503  0.21804860723E+03  0.11511688495E+03  0.27272434245E+03  0.36766242572E+03  0.00000000000E+00 0.  1.
<mgrwt>
<rscale>  0 0.10421963E+04</rscale>
<asrwt>0</asrwt>
<pdfrwt beam="1">  1        2 0.93024594E-01 0.10421963E+04</pdfrwt>
<pdfrwt beam="2">  1       -2 0.69089902E-01 0.10421963E+04</pdfrwt>
<totfact> 0.93685363E+01</totfact>
</mgrwt>
</event>
<event>
12    2  0.3555611E-008  0.1748472E+04  0.7818608E-02  0.8734192E-01
          2   -1    0    0  501    0  0.00000000000E+00  0.00000000000E+00  0.17136833371E+04  0.17136833371E+04  0.00000000000E+00 0. -1.
         -2   -1    0    0    0  501 -0.00000000000E+00 -0.00000000000E+00 -0.44599174238E+03  0.44599174238E+03  0.00000000000E+00 0.  1.
         23    2    1    2    0    0  0.22865042271E+03 -0.54172776482E+03  0.16621971663E+03  0.61691034095E+03  0.84849205039E+02 0.  0.
        254    2    1    2    0    0 -0.22865042271E+03  0.54172776482E+03  0.11014718781E+04  0.15427647385E+04  0.90616375628E+03 0.  0.
         23    2    4    4    0    0 -0.34376020525E+03  0.44961626535E+03  0.17228114183E+03  0.59852540435E+03  0.90697315546E+02 0.  0.
         23    2    4    4    0    0  0.11510978254E+03  0.92111499471E+02  0.92919073624E+03  0.94423933414E+03  0.80359849814E+02 0.  0.
          3    1    3    3  502    0  0.20881860203E+03 -0.52365442606E+03  0.14344931454E+03  0.58171889460E+03  0.00000000000E+00 0. -1.
         -3    1    3    3    0  502  0.19831820683E+02 -0.18073338757E+02  0.22770402088E+02  0.35191446357E+02  0.00000000000E+00 0.  1.
         11    1    5    5    0    0 -0.73936165194E+02  0.16060853060E+03  0.37029266800E+02  0.18064557350E+03  0.00000000000E+00 0.  1.
        -11    1    5    5    0    0 -0.26982404006E+03  0.28900773475E+03  0.13525187503E+03  0.41787983086E+03  0.00000000000E+00 0. -1.
          3    1    6    6  503    0  0.81266395719E+02  0.88061376949E+02  0.51985208502E+03  0.53348404239E+03  0.00000000000E+00 0. -1.
         -3    1    6    6    0  503  0.33843386818E+02  0.40501225219E+01  0.40933865121E+03  0.41075529175E+03  0.00000000000E+00 0.  1.
<mgrwt>
<rscale>  0 0.17484720E+04</rscale>
<asrwt>0</asrwt>
<pdfrwt beam="1">  1        2 0.26364359E+00 0.17484720E+04</pdfrwt>
<pdfrwt beam="2">  1       -2 0.68614115E-01 0.17484720E+04</pdfrwt>
<totfact> 0.17736101E+01</totfact>
</mgrwt>
</event>
<event>
12    2  0.3555611E-008  0.1790181E+04  0.7818608E-02  0.8711539E-01
          2   -1    0    0  501    0  0.00000000000E+00  0.00000000000E+00  0.14315730711E+04  0.14315730711E+04  0.00000000000E+00 0. -1.
         -2   -1    0    0    0  501 -0.00000000000E+00 -0.00000000000E+00 -0.55965484666E+03  0.55965484666E+03  0.00000000000E+00 0.  1.
         23    2    1    2    0    0  0.24071943936E+02  0.31711781838E+03  0.97552153172E+03  0.10301366447E+04  0.91630118609E+02 0.  0.
        254    2    1    2    0    0 -0.24071943936E+02 -0.31711781838E+03 -0.10360330730E+03  0.96109127306E+03  0.90101033327E+03 0.  0.
         23    2    4    4    0    0 -0.30099759073E+03  0.10312568654E+03  0.17777218649E+03  0.37683092186E+03  0.95729496679E+02 0.  0.
         23    2    4    4    0    0  0.27692564679E+03 -0.42024350492E+03 -0.28137549379E+03  0.58426035120E+03  0.94316341115E+02 0.  0.
          4    1    3    3  502    0  0.64438067037E+01  0.31243062974E+03  0.92989608058E+03  0.98100007223E+03  0.00000000000E+00 0. -1.
         -4    1    3    3    0  502  0.17628137232E+02  0.46871886384E+01  0.45625451137E+02  0.49136572439E+02  0.00000000000E+00 0.  1.
         11    1    5    5    0    0 -0.21028741287E+03  0.10521731532E+03  0.93662835044E+02  0.25310907949E+03  0.00000000000E+00 0.  1.
        -11    1    5    5    0    0 -0.90710177861E+02 -0.20916287829E+01  0.84109351443E+02  0.12372184237E+03  0.00000000000E+00 0. -1.
          1    1    6    6  503    0  0.20698639203E+03 -0.24044250905E+03 -0.15062607002E+03  0.35120390034E+03  0.00000000000E+00 0. -1.
         -1    1    6    6    0  503  0.69939254763E+02 -0.17980099587E+03 -0.13074942376E+03  0.23305645086E+03  0.00000000000E+00 0.  1.
<mgrwt>
<rscale>  0 0.17901808E+04</rscale>
<asrwt>0</asrwt>
<pdfrwt beam="1">  1        2 0.22024201E+00 0.17901808E+04</pdfrwt>
<pdfrwt beam="2">  1       -2 0.86100746E-01 0.17901808E+04</pdfrwt>
<totfact> 0.15346217E+01</totfact>
</mgrwt>
</event>
<event>
12    2  0.3555611E-008  0.1519863E+04  0.7818608E-02  0.8871350E-01
          2   -1    0    0  501    0  0.00000000000E+00  0.00000000000E+00  0.25364393485E+04  0.25364393485E+04  0.00000000000E+00 0.  1.
         -2   -1    0    0    0  501 -0.00000000000E+00 -0.00000000000E+00 -0.22767983947E+03  0.22767983947E+03  0.00000000000E+00 0. -1.
         23    2    1    2    0    0  0.34522132285E+03  0.27832385646E+03  0.40983130975E+03  0.61531049565E+03  0.11833584739E+03 0.  0.
        254    2    1    2    0    0 -0.34522132285E+03 -0.27832385646E+03  0.18989281993E+04  0.21488086923E+04  0.90266746887E+03 0.  0.
         23    2    4    4    0    0  0.90602932252E+02 -0.23515969401E+03  0.86284404136E+02  0.28177435331E+03  0.91884790728E+02 0.  0.
         23    2    4    4    0    0 -0.43582425511E+03 -0.43164162442E+02  0.18126437952E+04  0.18670343390E+04  0.91289477495E+02 0.  0.
          1    1    3    3  502    0  0.20444730094E+03  0.23299719845E+03  0.29695299033E+03  0.42926387201E+03  0.00000000000E+00 0. -1.
         -1    1    3    3    0  502  0.14077402191E+03  0.45326658008E+02  0.11287831942E+03  0.18604662364E+03  0.00000000000E+00 0.  1.
         11    1    5    5    0    0  0.10056969322E+03 -0.15185218746E+03  0.42051365576E+02  0.18692690383E+03  0.00000000000E+00 0.  1.
        -11    1    5    5    0    0 -0.99667609668E+01 -0.83307506559E+02  0.44233038560E+02  0.94847449484E+02  0.00000000000E+00 0. -1.
          3    1    6    6  503    0 -0.23892812986E+02 -0.31644670840E+01  0.39850725827E+02  0.46572102307E+02  0.00000000000E+00 0. -1.
         -3    1    6    6    0  503 -0.41193144212E+03 -0.39999695358E+02  0.17727930693E+04  0.18204622367E+04  0.00000000000E+00 0.  1.
<mgrwt>
<rscale>  0 0.15198633E+04</rscale>
<asrwt>0</asrwt>
<pdfrwt beam="1">  1        2 0.39022142E+00 0.15198633E+04</pdfrwt>
<pdfrwt beam="2">  1       -2 0.35027669E-01 0.15198633E+04</pdfrwt>
<totfact> 0.24536914E+01</totfact>
</mgrwt>
</event>
<event>
12    2  0.3555611E-008  0.1798398E+04  0.7818608E-02  0.8707152E-01
          1   -1    0    0  501    0  0.00000000000E+00  0.00000000000E+00  0.69717239179E+03  0.69717239179E+03  0.00000000000E+00 0. -1.
         -1   -1    0    0    0  501 -0.00000000000E+00 -0.00000000000E+00 -0.11597682605E+04  0.11597682605E+04  0.00000000000E+00 0.  1.
         23    2    1    2    0    0 -0.66348959996E+02  0.64401333709E+03 -0.18494699402E+02  0.65474171166E+03  0.95860796101E+02 0.  0.
        254    2    1    2    0    0  0.66348959996E+02 -0.64401333709E+03 -0.44410116935E+03  0.12021989407E+04  0.91044004828E+03 0.  0.
         23    2    4    4    0    0  0.26127842566E+03 -0.17096060627E+03 -0.57996598562E+03  0.66494321052E+03  0.91076803460E+02 0.  0.
         23    2    4    4    0    0 -0.19492946566E+03 -0.47305273082E+03  0.13586481627E+03  0.53725573017E+03  0.91695630072E+02 0.  0.
          3    1    3    3  502    0 -0.55918173891E+02  0.43800065308E+03  0.30893481107E+02  0.44263508836E+03  0.00000000000E+00 0.  1.
         -3    1    3    3    0  502 -0.10430786105E+02  0.20601268401E+03 -0.49388180510E+02  0.21210662330E+03  0.00000000000E+00 0. -1.
         11    1    5    5    0    0  0.57570834884E+02 -0.12651356208E+02 -0.17614624161E+03  0.18574702226E+03  0.00000000000E+00 0. -1.
        -11    1    5    5    0    0  0.20370759078E+03 -0.15830925006E+03 -0.40381974401E+03  0.47919618826E+03  0.00000000000E+00 0.  1.
          1    1    6    6  503    0  0.83922351101E+01 -0.42566708847E+02  0.61904133920E+01  0.43825512320E+02  0.00000000000E+00 0. -1.
         -1    1    6    6    0  503 -0.20332170077E+03 -0.43048602197E+03  0.12967440288E+03  0.49343021784E+03  0.00000000000E+00 0.  1.
<mgrwt>
<rscale>  0 0.17983975E+04</rscale>
<asrwt>0</asrwt>
<pdfrwt beam="1">  1        1 0.10725729E+00 0.17983975E+04</pdfrwt>
<pdfrwt beam="2">  1       -1 0.17842588E+00 0.17983975E+04</pdfrwt>
<totfact> 0.55257950E+00</totfact>
</mgrwt>
</event>
<event>
12    2  0.3555611E-008  0.2290965E+04  0.7818608E-02  0.8481492E-01
         -2   -1    0    0    0  501 -0.00000000000E+00  0.00000000000E+00  0.28133320703E+04  0.28133320703E+04  0.00000000000E+00 0. -1.
          2   -1    0    0  501    0  0.00000000000E+00 -0.00000000000E+00 -0.46639719354E+03  0.46639719354E+03  0.00000000000E+00 0.  1.
         23    2    1    2    0    0 -0.26561510502E+03  0.56286392309E+03 -0.65009362392E+02  0.63241764720E+03  0.91425835328E+02 0.  0.
        254    2    1    2    0    0  0.26561510502E+03 -0.56286392309E+03  0.24119442392E+04  0.26473116167E+04  0.89633509520E+03 0.  0.
         23    2    4    4    0    0  0.43744868136E+03  0.20011001938E+02  0.13280886732E+04  0.14013583138E+04  0.90685229755E+02 0.  0.
         23    2    4    4    0    0 -0.17183357634E+03 -0.58287492502E+03  0.10838555660E+04  0.12459533028E+04  0.91579412066E+02 0.  0.
          1    1    3    3  502    0 -0.39419557695E+02  0.11425156105E+03  0.21074796190E+02  0.12268442348E+03  0.00000000000E+00 0. -1.
         -1    1    3    3    0  502 -0.22619554733E+03  0.44861236204E+03 -0.86084158582E+02  0.50973322372E+03  0.00000000000E+00 0.  1.
         11    1    5    5    0    0  0.36882534922E+03  0.49657760248E+02  0.11242318626E+04  0.11842277282E+04  0.00000000000E+00 0.  1.
        -11    1    5    5    0    0  0.68623332144E+02 -0.29646758310E+02  0.20385681061E+03  0.21713058565E+03  0.00000000000E+00 0. -1.
          4    1    6    6  503    0 -0.88029370573E+02 -0.15340612081E+03  0.30189281389E+03  0.34988838087E+03  0.00000000000E+00 0. -1.
         -4    1    6    6    0  503 -0.83804205768E+02 -0.42946880421E+03  0.78196275212E+03  0.89606492198E+03  0.00000000000E+00 0.  1.
<mgrwt>
<rscale>  0 0.22909650E+04</rscale>
<asrwt>0</asrwt>
<pdfrwt beam="1">  1        2 0.71753416E-01 0.22909650E+04</pdfrwt>
<pdfrwt beam="2">  1       -2 0.43282031E+00 0.22909650E+04</pdfrwt>
<totfact> 0.27326939E-01</totfact>
</mgrwt>
</event>
<event>
12    2  0.3555611E-008  0.2113720E+04  0.7818608E-02  0.8555224E-01
          1   -1    0    0  501    0  0.00000000000E+00  0.00000000000E+00  0.16772542881E+04  0.16772542881E+04  0.00000000000E+00 0. -1.
         -1   -1    0    0    0  501 -0.00000000000E+00 -0.00000000000E+00 -0.66594136376E+03  0.66594136376E+03  0.00000000000E+00 0.  1.
         23    2    1    2    0    0 -0.84638524658E+02 -0.40501087936E+02  0.13674072598E+04  0.13736454217E+04  0.91077508538E+02 0.  0.
        254    2    1    2    0    0  0.84638524658E+02  0.40501087936E+02 -0.35609433545E+03  0.96955023012E+03  0.89689489630E+03 0.  0.
         23    2    4    4    0    0  0.16713486599E+03  0.70952148639E+02 -0.63312716463E+03  0.66476102222E+03  0.89938530389E+02 0.  0.
         23    2    4    4    0    0 -0.82496341332E+02 -0.30451060703E+02  0.27703282918E+03  0.30478920790E+03  0.91740718194E+02 0.  0.
          3    1    3    3  502    0 -0.69947229731E+02 -0.50852204602E+02  0.13217864881E+04  0.13246124270E+04  0.00000000000E+00 0. -1.
         -3    1    3    3    0  502 -0.14691294927E+02  0.10351116666E+02  0.45620771692E+02  0.49032994735E+02  0.00000000000E+00 0.  1.
         11    1    5    5    0    0  0.68844472406E+02 -0.14540567276E+02 -0.26832408372E+03  0.27739647327E+03  0.00000000000E+00 0. -1.
        -11    1    5    5    0    0  0.98290393583E+02  0.85492715915E+02 -0.36480308091E+03  0.38736454895E+03  0.00000000000E+00 0.  1.
          1    1    6    6  503    0 -0.29192403467E+02  0.14182985374E+02  0.19306962377E+03  0.19577853079E+03  0.00000000000E+00 0. -1.
         -1    1    6    6    0  503 -0.53303937864E+02 -0.44634046077E+02  0.83963205413E+02  0.10901067711E+03  0.00000000000E+00 0.  1.
<mgrwt>
<rscale>  0 0.21137200E+04</rscale>
<asrwt>0</asrwt>
<pdfrwt beam="1">  1        1 0.25803912E+00 0.21137200E+04</pdfrwt>
<pdfrwt beam="2">  1       -1 0.10245252E+00 0.21137200E+04</pdfrwt>
<totfact> 0.40895127E+00</totfact>
</mgrwt>
</event>
<event>
12    2  0.3555611E-008  0.1429866E+04  0.7818608E-02  0.8932479E-01
         -2   -1    0    0    0  501 -0.00000000000E+00  0.00000000000E+00  0.24396399871E+03  0.24396399871E+03  0.00000000000E+00 0. -1.
          2   -1    0    0  501    0  0.00000000000E+00 -0.00000000000E+00 -0.20951002148E+04  0.20951002148E+04  0.00000000000E+00 0.  1.
         23    2    1    2    0    0  0.34230174341E+02  0.24745241413E+02 -0.12471904673E+04  0.12515498308E+04  0.95440481198E+02 0.  0.
        254    2    1    2    0    0 -0.34230174341E+02 -0.24745241413E+02 -0.60394574883E+03  0.10875143827E+04  0.90341188465E+03 0.  0.
         23    2    4    4    0    0 -0.43584031403E+03  0.73570265091E+02 -0.17358866406E+03  0.48386148286E+03  0.92841515829E+02 0.  0.
         23    2    4    4    0    0  0.40161013969E+03 -0.98315506505E+02 -0.43035708477E+03  0.60365289988E+03  0.90735660034E+02 0.  0.
          3    1    3    3  502    0 -0.23626341232E+02  0.12993496577E+00 -0.75367633827E+03  0.75404657930E+03  0.00000000000E+00 0. -1.
         -3    1    3    3    0  502  0.57856515572E+02  0.24615306448E+02 -0.49351412900E+03  0.49750325147E+03  0.00000000000E+00 0.  1.
         11    1    5    5    0    0 -0.15683532803E+01  0.31611320582E+00  0.75062708135E+01  0.76748785721E+01  0.00000000000E+00 0.  1.
        -11    1    5    5    0    0 -0.43427196075E+03  0.73254151885E+02 -0.18109493488E+03  0.47618660429E+03  0.00000000000E+00 0. -1.
          2    1    6    6  503    0  0.24467446756E+03 -0.27073315337E+02 -0.20768984307E+03  0.32207705661E+03  0.00000000000E+00 0. -1.
         -2    1    6    6    0  503  0.15693567214E+03 -0.71242191168E+02 -0.22266724170E+03  0.28157584328E+03  0.00000000000E+00 0.  1.
<mgrwt>
<rscale>  0 0.14298658E+04</rscale>
<asrwt>0</asrwt>
<pdfrwt beam="1">  1        2 0.32232311E+00 0.14298658E+04</pdfrwt>
<pdfrwt beam="2">  1       -2 0.37532923E-01 0.14298658E+04</pdfrwt>
<totfact> 0.38486892E+01</totfact>
</mgrwt>
</event>
<event>
12    2  0.3555611E-008  0.1280857E+04  0.7818608E-02  0.9044885E-01
         -3   -1    0    0    0  501 -0.00000000000E+00  0.00000000000E+00  0.11755412167E+04  0.11755412167E+04  0.00000000000E+00 0.  1.
          3   -1    0    0  501    0  0.00000000000E+00 -0.00000000000E+00 -0.34890209001E+03  0.34890209001E+03  0.00000000000E+00 0. -1.
         23    2    1    2    0    0 -0.10426930641E+03 -0.28434443839E+03  0.11453585171E+03  0.34058221479E+03  0.10561219533E+03 0.  0.
        254    2    1    2    0    0  0.10426930641E+03  0.28434443839E+03  0.71210327499E+03  0.11838610919E+04  0.89594205329E+03 0.  0.
         23    2    4    4    0    0  0.17051014488E+03 -0.21175031484E+03  0.59830125564E+03  0.66282411324E+03  0.86368438965E+02 0.  0.
         23    2    4    4    0    0 -0.66240838474E+02  0.49609475323E+03  0.11380201935E+03  0.52103697870E+03  0.89614623269E+02 0.  0.
          3    1    3    3  502    0 -0.10671237542E+03 -0.16596925310E+03  0.10025355295E+03  0.22132351643E+03  0.00000000000E+00 0. -1.
         -3    1    3    3    0  502  0.24430690134E+01 -0.11837518528E+03  0.14282298759E+02  0.11925869836E+03  0.00000000000E+00 0.  1.
         11    1    5    5    0    0  0.17211053845E+03 -0.16678069540E+03  0.48720760737E+03  0.54296324966E+03  0.00000000000E+00 0. -1.
        -11    1    5    5    0    0 -0.16003935637E+01 -0.44969619440E+02  0.11109364827E+03  0.11986086358E+03  0.00000000000E+00 0.  1.
          1    1    6    6  503    0 -0.71643595912E+02  0.36244609462E+03  0.49950583699E+02  0.37282038189E+03  0.00000000000E+00 0. -1.
         -1    1    6    6    0  503  0.54027574371E+01  0.13364865860E+03  0.63851435651E+02  0.14821659681E+03  0.00000000000E+00 0.  1.
<mgrwt>
<rscale>  0 0.12808572E+04</rscale>
<asrwt>0</asrwt>
<pdfrwt beam="1">  1        3 0.53677245E-01 0.12808572E+04</pdfrwt>
<pdfrwt beam="2">  1       -3 0.18085249E+00 0.12808572E+04</pdfrwt>
<totfact> 0.17205269E+00</totfact>
</mgrwt>
</event>
<event>
12    2  0.3555611E-008  0.1618486E+04  0.7818608E-02  0.8809271E-01
          1   -1    0    0  501    0  0.00000000000E+00  0.00000000000E+00  0.97228698817E+03  0.97228698817E+03  0.00000000000E+00 0. -1.
         -1   -1    0    0    0  501 -0.00000000000E+00 -0.00000000000E+00 -0.67354034464E+03  0.67354034464E+03  0.00000000000E+00 0.  1.
         23    2    1    2    0    0 -0.33810483587E+02 -0.37568887635E+03  0.51318037857E+03  0.64405706667E+03  0.95760762149E+02 0.  0.
        254    2    1    2    0    0  0.33810483587E+02  0.37568887635E+03 -0.21443373503E+03  0.10017702661E+04  0.90292666302E+03 0.  0.
         23    2    4    4    0    0  0.16663875717E+02  0.21007837084E+01  0.32583249737E+03  0.33858684794E+03  0.90510437016E+02 0.  0.
         23    2    4    4    0    0  0.17146607870E+02  0.37358809264E+03 -0.54026623240E+03  0.66318341820E+03  0.89791843593E+02 0.  0.
          3    1    3    3  502    0  0.30813217529E+02 -0.10167672285E+03  0.16580140855E+03  0.19692058659E+03  0.00000000000E+00 0. -1.
         -3    1    3    3    0  502 -0.64623701116E+02 -0.27401215350E+03  0.34737897001E+03  0.44713648008E+03  0.00000000000E+00 0.  1.
         11    1    5    5    0    0 -0.77677937290E+01 -0.41389628805E+02  0.14306792571E+03  0.14913708915E+03  0.00000000000E+00 0. -1.
        -11    1    5    5    0    0  0.24431669446E+02  0.43490412514E+02  0.18276457166E+03  0.18944975880E+03  0.00000000000E+00 0.  1.
          1    1    6    6  503    0  0.42516662747E+02  0.18258522398E+03 -0.21617325844E+03  0.28613966570E+03  0.00000000000E+00 0. -1.
         -1    1    6    6    0  503 -0.25370054877E+02  0.19100286867E+03 -0.32409297396E+03  0.37704375250E+03  0.00000000000E+00 0.  1.
<mgrwt>
<rscale>  0 0.16184863E+04</rscale>
<asrwt>0</asrwt>
<pdfrwt beam="1">  1        1 0.14958261E+00 0.16184863E+04</pdfrwt>
<pdfrwt beam="2">  1       -1 0.10362159E+00 0.16184863E+04</pdfrwt>
<totfact> 0.13386705E+01</totfact>
</mgrwt>
</event>
<event>
12    2  0.3642570E-008  0.1818103E+04  0.7818608E-02  0.8696731E-01
          1   -1    0    0  501    0  0.00000000000E+00  0.00000000000E+00  0.13070770689E+04  0.13070770689E+04  0.00000000000E+00 0. -1.
         -1   -1    0    0    0  501 -0.00000000000E+00 -0.00000000000E+00 -0.63223086699E+03  0.63223086699E+03  0.00000000000E+00 0.  1.
         23    2    1    2    0    0 -0.47304229055E+03  0.23254423730E+03  0.70588772391E+03  0.88927723199E+03  0.12120513862E+03 0.  0.
        254    2    1    2    0    0  0.47304229055E+03 -0.23254423730E+03 -0.31041522037E+02  0.10500307039E+04  0.90760953719E+03 0.  0.
         23    2    4    4    0    0  0.11225599706E+03 -0.54303851962E+03  0.25536306850E+02  0.56212993667E+03  0.88576069398E+02 0.  0.
         23    2    4    4    0    0  0.36078629349E+03  0.31049428231E+03 -0.56577828887E+02  0.48790076719E+03  0.90954158691E+02 0.  0.
          3    1    3    3  502    0 -0.42984100571E+03  0.21856788172E+03  0.68867351305E+03  0.84071779849E+03  0.00000000000E+00 0. -1.
         -3    1    3    3    0  502 -0.43201284839E+02  0.13976355581E+02  0.17214210852E+02  0.48559433505E+02  0.00000000000E+00 0.  1.
         11    1    5    5    0    0  0.43305797284E+01 -0.16625167830E+00  0.71103512773E+01  0.83269835890E+01  0.00000000000E+00 0. -1.
        -11    1    5    5    0    0  0.10792541733E+03 -0.54287226794E+03  0.18425955573E+02  0.55380295308E+03  0.00000000000E+00 0.  1.
          1    1    6    6  503    0  0.42591568318E+02  0.46924157416E+02 -0.38869614562E+02  0.74342216655E+02  0.00000000000E+00 0. -1.
         -1    1    6    6    0  503  0.31819472517E+03  0.26357012490E+03 -0.17708214325E+02  0.41355855053E+03  0.00000000000E+00 0.  1.
<mgrwt>
<rscale>  0 0.18181028E+04</rscale>
<asrwt>0</asrwt>
<pdfrwt beam="1">  1        1 0.20108878E+00 0.18181028E+04</pdfrwt>
<pdfrwt beam="2">  1       -1 0.97266288E-01 0.18181028E+04</pdfrwt>
<totfact> 0.85524696E+00</totfact>
</mgrwt>
</event>
<event>
12    2  0.3555611E-008  0.3218766E+04  0.7818608E-02  0.8183879E-01
          2   -1    0    0  501    0  0.00000000000E+00  0.00000000000E+00  0.16857267758E+04  0.16857267758E+04  0.00000000000E+00 0. -1.
         -2   -1    0    0    0  501 -0.00000000000E+00 -0.00000000000E+00 -0.15364962506E+04  0.15364962506E+04  0.00000000000E+00 0.  1.
         23    2    1    2    0    0 -0.84215325033E+03 -0.81100479895E+03 -0.82861848598E+03  0.14357847913E+04  0.88985901429E+02 0.  0.
        254    2    1    2    0    0  0.84215325033E+03  0.81100479895E+03  0.97784901117E+03  0.17864382350E+04  0.93178430872E+03 0.  0.
         23    2    4    4    0    0 -0.10836034066E+03 -0.10236168675E+03  0.80637575769E+02  0.18876918481E+03  0.83135480782E+02 0.  0.
         23    2    4    4    0    0  0.95051359099E+03  0.91336648570E+03  0.89721143540E+03  0.15976690502E+04  0.99214970456E+02 0.  0.
          1    1    3    3  502    0 -0.10773958241E+03 -0.10055708945E+03 -0.70034688148E+02  0.16316986058E+03  0.00000000000E+00 0. -1.
         -1    1    3    3    0  502 -0.73441366792E+03 -0.71044770950E+03 -0.75858379783E+03  0.12726149307E+04  0.00000000000E+00 0.  1.
         11    1    5    5    0    0 -0.63756054355E+02 -0.51427909606E+02 -0.20021390634E+01  0.81937005767E+02  0.00000000000E+00 0. -1.
        -11    1    5    5    0    0 -0.44604286305E+02 -0.50933777146E+02  0.82639714832E+02  0.10683217904E+03  0.00000000000E+00 0.  1.
          1    1    6    6  503    0  0.55305189472E+03  0.52820100771E+03  0.57922267248E+03  0.95935478688E+03  0.00000000000E+00 0. -1.
         -1    1    6    6    0  503  0.39746169628E+03  0.38516547799E+03  0.31798876292E+03  0.63831426334E+03  0.00000000000E+00 0.  1.
<mgrwt>
<rscale>  0 0.32187655E+04</rscale>
<asrwt>0</asrwt>
<pdfrwt beam="1">  1        2 0.25934258E+00 0.32187655E+04</pdfrwt>
<pdfrwt beam="2">  1       -2 0.23638404E+00 0.32187655E+04</pdfrwt>
<totfact> 0.65508729E-01</totfact>
</mgrwt>
</event>
<event>
12    2  0.3555611E-008  0.4143494E+04  0.7818608E-02  0.7976209E-01
          1   -1    0    0  501    0  0.00000000000E+00  0.00000000000E+00  0.39158319035E+04  0.39158319035E+04  0.00000000000E+00 0. -1.
         -1   -1    0    0    0  501 -0.00000000000E+00 -0.00000000000E+00 -0.10960980876E+04  0.10960980876E+04  0.00000000000E+00 0.  1.
         23    2    1    2    0    0 -0.69032032602E+03  0.32384745996E+03 -0.85472433361E+03  0.11489297046E+04  0.89813416054E+02 0.  0.
        254    2    1    2    0    0  0.69032032602E+03 -0.32384745996E+03  0.36744581495E+04  0.38630002865E+04  0.91635647638E+03 0.  0.
         23    2    4    4    0    0  0.84924336522E+03 -0.38051561699E+03  0.24262565472E+04  0.26002158557E+04  0.91625517651E+02 0.  0.
         23    2    4    4    0    0 -0.15892303920E+03  0.56668157037E+02  0.12482016023E+04  0.12627844308E+04  0.90274394765E+02 0.  0.
          3    1    3    3  502    0 -0.59308449010E+02  0.57076473860E+02 -0.10323714061E+03  0.13203455303E+03  0.00000000000E+00 0. -1.
         -3    1    3    3    0  502 -0.63101187701E+03  0.26677098610E+03 -0.75148719300E+03  0.10168951515E+04  0.00000000000E+00 0.  1.
         11    1    5    5    0    0  0.33757372994E+03 -0.11948108649E+03  0.83917162594E+03  0.91238192165E+03  0.00000000000E+00 0. -1.
        -11    1    5    5    0    0  0.51166963528E+03 -0.26103453051E+03  0.15870849212E+04  0.16878339341E+04  0.00000000000E+00 0.  1.
          1    1    6    6  503    0 -0.27067693462E+02 -0.17892816095E+02  0.38741729387E+03  0.38877367771E+03  0.00000000000E+00 0. -1.
         -1    1    6    6    0  503 -0.13185534574E+03  0.74560973133E+02  0.86078430842E+03  0.87401075310E+03  0.00000000000E+00 0.  1.
<mgrwt>
<rscale>  0 0.41434941E+04</rscale>
<asrwt>0</asrwt>
<pdfrwt beam="1">  1        1 0.60243567E+00 0.41434941E+04</pdfrwt>
<pdfrwt beam="2">  1       -1 0.16863048E+00 0.41434941E+04</pdfrwt>
<totfact> 0.22065573E-02</totfact>
</mgrwt>
</event>
<event>
12    2  0.3555611E-008  0.4005446E+04  0.7818608E-02  0.8003449E-01
         -1   -1    0    0    0  501 -0.00000000000E+00  0.00000000000E+00  0.13309569600E+04  0.13309569600E+04  0.00000000000E+00 0.  1.
          1   -1    0    0  501    0  0.00000000000E+00 -0.00000000000E+00 -0.30135458949E+04  0.30135458949E+04  0.00000000000E+00 0. -1.
         23    2    1    2    0    0  0.92974845522E+03 -0.28332639570E+03 -0.25698846122E+04  0.27489935013E+04  0.89175745100E+02 0.  0.
        254    2    1    2    0    0 -0.92974845522E+03  0.28332639570E+03  0.88729567740E+03  0.15955093536E+04  0.90202574337E+03 0.  0.
         23    2    4    4    0    0 -0.44909360595E+03 -0.12905030201E+03  0.82469862105E+03  0.95219501495E+03  0.90600682061E+02 0.  0.
         23    2    4    4    0    0 -0.48065484927E+03  0.41237669771E+03  0.62597056356E+02  0.64331433862E+03  0.94081463955E+02 0.  0.
          2    1    3    3  502    0  0.76176018322E+03 -0.25107185904E+03 -0.21941723081E+04  0.23361737462E+04  0.00000000000E+00 0. -1.
         -2    1    3    3    0  502  0.16798827201E+03 -0.32254536663E+02 -0.37571230418E+03  0.41281975507E+03  0.00000000000E+00 0.  1.
         11    1    5    5    0    0 -0.43640119949E+03 -0.13305145716E+03  0.76233672802E+03  0.88842894148E+03  0.00000000000E+00 0. -1.
        -11    1    5    5    0    0 -0.12692406455E+02  0.40011551485E+01  0.62361893024E+02  0.63766073470E+02  0.00000000000E+00 0.  1.
          1    1    6    6  503    0 -0.47633576830E+03  0.39169072679E+03  0.50022905283E+02  0.61872423637E+03  0.00000000000E+00 0. -1.
         -1    1    6    6    0  503 -0.43190809728E+01  0.20685970921E+02  0.12574151073E+02  0.24590102248E+02  0.00000000000E+00 0.  1.
<mgrwt>
<rscale>  0 0.40054462E+04</rscale>
<asrwt>0</asrwt>
<pdfrwt beam="1">  1        1 0.46362244E+00 0.40054462E+04</pdfrwt>
<pdfrwt beam="2">  1       -1 0.20476261E+00 0.40054462E+04</pdfrwt>
<totfact> 0.63761322E-02</totfact>
</mgrwt>
</event>
<event>
12    2  0.3555611E-008  0.2382285E+04  0.7818608E-02  0.8446166E-01
          1   -1    0    0  501    0  0.00000000000E+00  0.00000000000E+00  0.23072362292E+04  0.23072362292E+04  0.00000000000E+00 0. -1.
         -1   -1    0    0    0  501 -0.00000000000E+00 -0.00000000000E+00 -0.61494365394E+03  0.61494365394E+03  0.00000000000E+00 0.  1.
         23    2    1    2    0    0  0.82429326422E+03  0.31966568334E+03  0.10597815412E+03  0.89513601715E+03  0.91605597534E+02 0.  0.
        254    2    1    2    0    0 -0.82429326422E+03 -0.31966568334E+03  0.15863144211E+04  0.20270438660E+04  0.90048201392E+03 0.  0.
         23    2    4    4    0    0 -0.59622476774E+03 -0.35042118845E+03  0.16325063574E+04  0.17754334874E+04  0.93851363549E+02 0.  0.
         23    2    4    4    0    0 -0.22806849648E+03  0.30755505106E+02 -0.46191936260E+02  0.25161037854E+03  0.90625313418E+02 0.  0.
          1    1    3    3  502    0  0.25864811955E+03  0.10897117784E+03  0.76031451194E+02  0.29078230503E+03  0.00000000000E+00 0. -1.
         -1    1    3    3    0  502  0.56564514466E+03  0.21069450551E+03  0.29946702926E+02  0.60435371212E+03  0.00000000000E+00 0.  1.
         11    1    5    5    0    0 -0.16151130768E+03 -0.58432133856E+02  0.47079214652E+03  0.50114415292E+03  0.00000000000E+00 0.  1.
        -11    1    5    5    0    0 -0.43471346006E+03 -0.29198905459E+03  0.11617142109E+04  0.12742893345E+04  0.00000000000E+00 0. -1.
          4    1    6    6  503    0 -0.94861949072E+02  0.54745195096E+02 -0.31094977155E+01  0.10956958859E+03  0.00000000000E+00 0. -1.
         -4    1    6    6    0  503 -0.13320654741E+03 -0.23989689991E+02 -0.43082438545E+02  0.14204078995E+03  0.00000000000E+00 0.  1.
<mgrwt>
<rscale>  0 0.23822849E+04</rscale>
<asrwt>0</asrwt>
<pdfrwt beam="1">  1        1 0.35495942E+00 0.23822849E+04</pdfrwt>
<pdfrwt beam="2">  1       -1 0.94606717E-01 0.23822849E+04</pdfrwt>
<totfact> 0.17843815E+00</totfact>
</mgrwt>
</event>
<event>
12    2  0.3555611E-008  0.1507973E+04  0.7818608E-02  0.8879168E-01
         -2   -1    0    0    0  501 -0.00000000000E+00  0.00000000000E+00  0.23992930277E+03  0.23992930277E+03  0.00000000000E+00 0. -1.
          2   -1    0    0  501    0  0.00000000000E+00 -0.00000000000E+00 -0.23694302474E+04  0.23694302474E+04  0.00000000000E+00 0.  1.
         23    2    1    2    0    0 -0.32284311976E+03 -0.22212531096E+03 -0.11575105790E+04  0.12254237313E+04  0.90913403778E+02 0.  0.
        254    2    1    2    0    0  0.32284311976E+03  0.22212531096E+03 -0.97199036562E+03  0.13839358189E+04  0.90385051093E+03 0.  0.
         23    2    4    4    0    0  0.39178738892E+03 -0.36991904415E+02 -0.34606683158E+02  0.40482423925E+03  0.88426710070E+02 0.  0.
         23    2    4    4    0    0 -0.68944269164E+02  0.25911721537E+03 -0.93738368246E+03  0.97911157960E+03  0.89868090119E+02 0.  0.
          1    1    3    3  502    0 -0.55525839154E+02 -0.11997278114E+02 -0.24827889671E+03  0.25469484496E+03  0.00000000000E+00 0. -1.
         -1    1    3    3    0  502 -0.26731728060E+03 -0.21012803284E+03 -0.90923168230E+03  0.97072888635E+03  0.00000000000E+00 0.  1.
         11    1    5    5    0    0 -0.27477201358E+01 -0.15901932605E+01  0.58372404210E+01  0.66447013689E+01  0.00000000000E+00 0. -1.
        -11    1    5    5    0    0  0.39453510906E+03 -0.35401711155E+02 -0.40443923579E+02  0.39817953788E+03  0.00000000000E+00 0.  1.
          1    1    6    6  503    0  0.11830624607E+02  0.84177260019E+02 -0.20785904950E+03  0.22456882963E+03  0.00000000000E+00 0. -1.
         -1    1    6    6    0  503 -0.80774893771E+02  0.17493995535E+03 -0.72952463295E+03  0.75454274997E+03  0.00000000000E+00 0.  1.
<mgrwt>
<rscale>  0 0.15079731E+04</rscale>
<asrwt>0</asrwt>
<pdfrwt beam="1">  1        2 0.36452776E+00 0.15079731E+04</pdfrwt>
<pdfrwt beam="2">  1       -2 0.36912197E-01 0.15079731E+04</pdfrwt>
<totfact> 0.27691464E+01</totfact>
</mgrwt>
</event>
<event>
12    2  0.3555611E-008  0.1250312E+04  0.7818608E-02  0.9069924E-01
          1   -1    0    0  501    0  0.00000000000E+00  0.00000000000E+00  0.13802473695E+04  0.13802473695E+04  0.00000000000E+00 0. -1.
         -1   -1    0    0    0  501 -0.00000000000E+00 -0.00000000000E+00 -0.28315208940E+03  0.28315208940E+03  0.00000000000E+00 0.  1.
         23    2    1    2    0    0 -0.13774387821E+03  0.13448076178E+03 -0.22215692744E+02  0.21427273762E+03  0.91437507682E+02 0.  0.
        254    2    1    2    0    0  0.13774387821E+03 -0.13448076178E+03  0.11193109729E+04  0.14491267213E+04  0.90002930460E+03 0.  0.
         23    2    4    4    0    0  0.95429199873E+02 -0.38078716128E+03  0.11112342557E+04  0.11819813137E+04  0.90181265828E+02 0.  0.
         23    2    4    4    0    0  0.42314678337E+02  0.24630639950E+03  0.80767172321E+01  0.26714540758E+03  0.94042867840E+02 0.  0.
          3    1    3    3  502    0 -0.66112364735E+02  0.10511760687E+03 -0.47316889063E+02  0.13288884090E+03  0.00000000000E+00 0. -1.
         -3    1    3    3    0  502 -0.71631513474E+02  0.29363154903E+02  0.25101196318E+02  0.81383896718E+02  0.00000000000E+00 0.  1.
         11    1    5    5    0    0  0.82868259919E+02 -0.18511196548E+03  0.64680783129E+03  0.67785983720E+03  0.00000000000E+00 0. -1.
        -11    1    5    5    0    0  0.12560939953E+02 -0.19567519580E+03  0.46442642436E+03  0.50412147654E+03  0.00000000000E+00 0.  1.
          2    1    6    6  503    0  0.16782256262E+02  0.12081145784E+03 -0.42915203365E+02  0.12930107173E+03  0.00000000000E+00 0. -1.
         -2    1    6    6    0  503  0.25532422075E+02  0.12549494166E+03  0.50991920597E+02  0.13784433585E+03  0.00000000000E+00 0.  1.
<mgrwt>
<rscale>  0 0.12503118E+04</rscale>
<asrwt>0</asrwt>
<pdfrwt beam="1">  1        1 0.21234574E+00 0.12503118E+04</pdfrwt>
<pdfrwt beam="2">  1       -1 0.43561861E-01 0.12503118E+04</pdfrwt>
<totfact> 0.40692868E+01</totfact>
</mgrwt>
</event>
<event>
12    2  0.3555611E-008  0.1485102E+04  0.7818608E-02  0.8894421E-01
          2   -1    0    0  501    0  0.00000000000E+00  0.00000000000E+00  0.17956460454E+04  0.17956460454E+04  0.00000000000E+00 0. -1.
         -2   -1    0    0    0  501 -0.00000000000E+00 -0.00000000000E+00 -0.30706597285E+03  0.30706597285E+03  0.00000000000E+00 0.  1.
         23    2    1    2    0    0  0.33727378395E+03 -0.28350698577E+03  0.65970468081E+03  0.79850816212E+03  0.90968141547E+02 0.  0.
        254    2    1    2    0    0 -0.33727378395E+03  0.28350698577E+03  0.82887539173E+03  0.13042038561E+04  0.90541894555E+03 0.  0.
         23    2    4    4    0    0 -0.62843762920E+03  0.22211720474E+03  0.68738944843E+03  0.96204672590E+03  0.93593496423E+02 0.  0.
         23    2    4    4    0    0  0.29116384525E+03  0.61389781029E+02  0.14148594330E+03  0.34215713020E+03  0.92239577201E+02 0.  0.
          1    1    3    3  502    0  0.32050619515E+03 -0.28968597860E+03  0.63411492055E+03  0.76729650057E+03  0.00000000000E+00 0. -1.
         -1    1    3    3    0  502  0.16767588805E+02  0.61789928317E+01  0.25589760256E+02  0.31211661550E+02  0.00000000000E+00 0.  1.
         11    1    5    5    0    0 -0.16642202456E+03  0.44071125942E+02  0.12499437934E+03  0.21274902883E+03  0.00000000000E+00 0.  1.
        -11    1    5    5    0    0 -0.46201560464E+03  0.17804607880E+03  0.56239506909E+03  0.74929769707E+03  0.00000000000E+00 0. -1.
          1    1    6    6  503    0  0.21087286049E+03  0.65266679787E+02  0.62403816639E+02  0.22939341558E+03  0.00000000000E+00 0. -1.
         -1    1    6    6    0  503  0.80290984759E+02 -0.38768987581E+01  0.79082126662E+02  0.11276371462E+03  0.00000000000E+00 0.  1.
<mgrwt>
<rscale>  0 0.14851017E+04</rscale>
<asrwt>0</asrwt>
<pdfrwt beam="1">  1        2 0.27625323E+00 0.14851017E+04</pdfrwt>
<pdfrwt beam="2">  1       -2 0.47240920E-01 0.14851017E+04</pdfrwt>
<totfact> 0.35643447E+01</totfact>
</mgrwt>
</event>
<event>
12    2  0.3555611E-008  0.2889970E+04  0.7818608E-02  0.8275868E-01
         -1   -1    0    0    0  501 -0.00000000000E+00  0.00000000000E+00  0.18898336437E+04  0.18898336437E+04  0.00000000000E+00 0.  1.
          1   -1    0    0  501    0  0.00000000000E+00 -0.00000000000E+00 -0.11048495879E+04  0.11048495879E+04  0.00000000000E+00 0. -1.
         23    2    1    2    0    0 -0.54871877666E+03  0.11567652824E+04  0.60827562304E+03  0.14203792206E+04  0.90992760954E+02 0.  0.
        254    2    1    2    0    0  0.54871877666E+03 -0.11567652824E+04  0.17670843277E+03  0.15743040109E+04  0.89889322731E+03 0.  0.
         23    2    4    4    0    0  0.34270942923E+03 -0.95552860176E+03 -0.25174954170E+03  0.10499396944E+04  0.92254368184E+02 0.  0.
         23    2    4    4    0    0  0.20600934743E+03 -0.20123668060E+03  0.42845797447E+03  0.52436431648E+03  0.91900204935E+02 0.  0.
          1    1    3    3  502    0 -0.26023490930E+03  0.57617598339E+03  0.34894889834E+03  0.72212623932E+03  0.00000000000E+00 0. -1.
         -1    1    3    3    0  502 -0.28848386736E+03  0.58058929896E+03  0.25932672470E+03  0.69825298133E+03  0.00000000000E+00 0.  1.
         11    1    5    5    0    0  0.25149246202E+03 -0.75647135351E+03 -0.23111883704E+03  0.83000800235E+03  0.00000000000E+00 0. -1.
        -11    1    5    5    0    0  0.91216967216E+02 -0.19905724824E+03 -0.20630704653E+02  0.21993169203E+03  0.00000000000E+00 0.  1.
          2    1    6    6  503    0  0.17816157046E+03 -0.12876802431E+03  0.35459747054E+03  0.41720752077E+03  0.00000000000E+00 0. -1.
         -2    1    6    6    0  503  0.27847776963E+02 -0.72468656287E+02  0.73860503924E+02  0.10715679570E+03  0.00000000000E+00 0.  1.
<mgrwt>
<rscale>  0 0.28899702E+04</rscale>
<asrwt>0</asrwt>
<pdfrwt beam="1">  1        1 0.16997686E+00 0.28899702E+04</pdfrwt>
<pdfrwt beam="2">  1       -1 0.29074364E+00 0.28899702E+04</pdfrwt>
<totfact> 0.40950960E-01</totfact>
</mgrwt>
</event>
<event>
12    2  0.3555611E-008  0.2438542E+04  0.7818608E-02  0.8425213E-01
          2   -1    0    0  501    0  0.00000000000E+00  0.00000000000E+00  0.11597102757E+04  0.11597102757E+04  0.00000000000E+00 0. -1.
         -2   -1    0    0    0  501 -0.00000000000E+00 -0.00000000000E+00 -0.12818909443E+04  0.12818909443E+04  0.00000000000E+00 0.  1.
         23    2    1    2    0    0 -0.46717381761E+03  0.84679624997E+03 -0.49208843945E+03  0.10889506975E+04  0.91363693245E+02 0.  0.
        254    2    1    2    0    0  0.46717381761E+03 -0.84679624997E+03  0.36990777082E+03  0.13526505225E+04  0.87035418778E+03 0.  0.
         23    2    4    4    0    0  0.12622357009E+03  0.39017248500E+02 -0.18790823342E+03  0.24792874682E+03  0.93297502580E+02 0.  0.
         23    2    4    4    0    0  0.34095024752E+03 -0.88581349847E+03  0.55781600424E+03  0.11047217756E+04  0.91317477119E+02 0.  0.
          3    1    3    3  502    0 -0.37556990681E+02  0.13300856910E+03 -0.64360738594E+02  0.15246019702E+03  0.00000000000E+00 0. -1.
         -3    1    3    3    0  502 -0.42961682693E+03  0.71378768087E+03 -0.42772770085E+03  0.93649050044E+03  0.00000000000E+00 0.  1.
         11    1    5    5    0    0  0.11987314489E+03  0.58760342750E+02 -0.18316597341E+03  0.22665419158E+03  0.00000000000E+00 0.  1.
        -11    1    5    5    0    0  0.63504252011E+01 -0.19743094250E+02 -0.47422600095E+01  0.21274555243E+02  0.00000000000E+00 0. -1.
          2    1    6    6  503    0  0.94114473825E+02 -0.36896932934E+03  0.22385818310E+03  0.44171074961E+03  0.00000000000E+00 0. -1.
         -2    1    6    6    0  503  0.24683577369E+03 -0.51684416913E+03  0.33395782114E+03  0.66301102603E+03  0.00000000000E+00 0.  1.
<mgrwt>
<rscale>  0 0.24385423E+04</rscale>
<asrwt>0</asrwt>
<pdfrwt beam="1">  1        2 0.17841697E+00 0.24385423E+04</pdfrwt>
<pdfrwt beam="2">  1       -2 0.19721399E+00 0.24385423E+04</pdfrwt>
<totfact> 0.24908674E+00</totfact>
</mgrwt>
</event>
<event>
12    2  0.3555611E-008  0.3514173E+04  0.7818608E-02  0.8110439E-01
         -2   -1    0    0    0  501 -0.00000000000E+00  0.00000000000E+00  0.90357711705E+03  0.90357711705E+03  0.00000000000E+00 0. -1.
          2   -1    0    0  501    0  0.00000000000E+00 -0.00000000000E+00 -0.34168114564E+04  0.34168114564E+04  0.00000000000E+00 0.  1.
         23    2    1    2    0    0 -0.41910332558E+03  0.13574212549E+04 -0.16793473319E+03  0.14330909978E+04  0.85484925524E+02 0.  0.
        254    2    1    2    0    0  0.41910332558E+03 -0.13574212549E+04 -0.23452996062E+04  0.28872975757E+04  0.90433234307E+03 0.  0.
         23    2    4    4    0    0 -0.16782020263E+02 -0.86134842319E+03 -0.18922440217E+04  0.20811485020E+04  0.91590978307E+02 0.  0.
         23    2    4    4    0    0  0.43588534584E+03 -0.49607283176E+03 -0.45305558445E+03  0.80614907364E+03  0.92372491575E+02 0.  0.
          1    1    3    3  502    0 -0.41989425193E+03  0.13343957733E+04 -0.15730290776E+03  0.14077171120E+04  0.00000000000E+00 0. -1.
         -1    1    3    3    0  502  0.79092634820E+00  0.23025481676E+02 -0.10631825427E+02  0.25373885844E+02  0.00000000000E+00 0.  1.
         11    1    5    5    0    0 -0.16070343452E+01 -0.11859859404E+03 -0.19191830462E+03  0.22561215551E+03  0.00000000000E+00 0. -1.
        -11    1    5    5    0    0 -0.15174985918E+02 -0.74274982915E+03 -0.17003257171E+04  0.18555363465E+04  0.00000000000E+00 0.  1.
          4    1    6    6  503    0  0.13502849496E+03 -0.14178668675E+03 -0.85791237570E+02  0.21376691848E+03  0.00000000000E+00 0. -1.
         -4    1    6    6    0  503  0.30085685088E+03 -0.35428614501E+03 -0.36726434688E+03  0.59238215516E+03  0.00000000000E+00 0.  1.
<mgrwt>
<rscale>  0 0.35141728E+04</rscale>
<asrwt>0</asrwt>
<pdfrwt beam="1">  1        2 0.52566330E+00 0.35141728E+04</pdfrwt>
<pdfrwt beam="2">  1       -2 0.13901187E+00 0.35141728E+04</pdfrwt>
<totfact> 0.27837587E-01</totfact>
</mgrwt>
</event>
<event>
12    2  0.3555611E-008  0.1654446E+04  0.7818608E-02  0.8787780E-01
          2   -1    0    0  501    0  0.00000000000E+00  0.00000000000E+00  0.11761563523E+04  0.11761563523E+04  0.00000000000E+00 0. -1.
         -2   -1    0    0    0  501 -0.00000000000E+00 -0.00000000000E+00 -0.58180891851E+03  0.58180891851E+03  0.00000000000E+00 0.  1.
         23    2    1    2    0    0  0.19406918093E+03  0.45139172852E+01  0.78145512278E+03  0.81055550147E+03  0.92977898510E+02 0.  0.
        254    2    1    2    0    0 -0.19406918093E+03 -0.45139172852E+01 -0.18710768896E+03  0.94740976937E+03  0.90823607140E+03 0.  0.
         23    2    4    4    0    0 -0.24703087048E+03  0.27730377091E+03  0.22024647583E+03  0.44100399606E+03  0.89746209367E+02 0.  0.
         23    2    4    4    0    0  0.52961689542E+02 -0.28181768820E+03 -0.40735416479E+03  0.50640577331E+03  0.91012316369E+02 0.  0.
          4    1    3    3  502    0  0.13910439118E+03 -0.10735276789E+01  0.68857237877E+03  0.70248352644E+03  0.00000000000E+00 0. -1.
         -4    1    3    3    0  502  0.54964789753E+02  0.55874449641E+01  0.92882744010E+02  0.10807197504E+03  0.00000000000E+00 0.  1.
         11    1    5    5    0    0 -0.15976661296E+03  0.16826342736E+03  0.86493507125E+02  0.24762689349E+03  0.00000000000E+00 0. -1.
        -11    1    5    5    0    0 -0.87264257513E+02  0.10904034356E+03  0.13375296871E+03  0.19337710257E+03  0.00000000000E+00 0.  1.
          1    1    6    6  503    0  0.71095069878E+02 -0.25446970643E+03 -0.38405140464E+03  0.46615965275E+03  0.00000000000E+00 0. -1.
         -1    1    6    6    0  503 -0.18133380335E+02 -0.27347981769E+02 -0.23302760151E+02  0.40246120557E+02  0.00000000000E+00 0.  1.
<mgrwt>
<rscale>  0 0.16544464E+04</rscale>
<asrwt>0</asrwt>
<pdfrwt beam="1">  1        2 0.18094713E+00 0.16544464E+04</pdfrwt>
<pdfrwt beam="2">  1       -2 0.89509065E-01 0.16544464E+04</pdfrwt>
<totfact> 0.20009794E+01</totfact>
</mgrwt>
</event>
<event>
12    2  0.3555611E-008  0.2388824E+04  0.7818608E-02  0.8443700E-01
         -2   -1    0    0    0  501 -0.00000000000E+00  0.00000000000E+00  0.58782611507E+03  0.58782611507E+03  0.00000000000E+00 0.  1.
          2   -1    0    0  501    0  0.00000000000E+00 -0.00000000000E+00 -0.24269417316E+04  0.24269417316E+04  0.00000000000E+00 0. -1.
         23    2    1    2    0    0 -0.44199283354E+03  0.73246810115E+03 -0.83194525470E+02  0.86446913360E+03  0.92295014957E+02 0.  0.
        254    2    1    2    0    0  0.44199283354E+03 -0.73246810115E+03 -0.17559210910E+04  0.21502987130E+04  0.89925440964E+03 0.  0.
         23    2    4    4    0    0  0.10274286679E+03 -0.38354066534E+03 -0.97868562251E+02  0.42003695122E+03  0.95881417708E+02 0.  0.
         23    2    4    4    0    0  0.33924996675E+03 -0.34892743580E+03 -0.16580525288E+04  0.17302617618E+04  0.88468530185E+02 0.  0.
          3    1    3    3  502    0 -0.16680965896E+03  0.34155578315E+03 -0.55866894403E+01  0.38015395095E+03  0.00000000000E+00 0. -1.
         -3    1    3    3    0  502 -0.27518317458E+03  0.39091231800E+03 -0.77607836029E+02  0.48431518265E+03  0.00000000000E+00 0.  1.
         11    1    5    5    0    0 -0.17693668487E+02 -0.74018124835E+02 -0.23941711504E+02  0.79780663436E+02  0.00000000000E+00 0.  1.
        -11    1    5    5    0    0  0.12043653528E+03 -0.30952254051E+03 -0.73926850748E+02  0.34025628778E+03  0.00000000000E+00 0. -1.
          3    1    6    6  503    0  0.26422354215E+03 -0.27339194906E+03 -0.14092500742E+04  0.14596379721E+04  0.00000000000E+00 0. -1.
         -3    1    6    6    0  503  0.75026424602E+02 -0.75535486744E+02 -0.24880245463E+03  0.27062378974E+03  0.00000000000E+00 0.  1.
<mgrwt>
<rscale>  0 0.23888238E+04</rscale>
<asrwt>0</asrwt>
<pdfrwt beam="1">  1        2 0.37337566E+00 0.23888238E+04</pdfrwt>
<pdfrwt beam="2">  1       -2 0.90434786E-01 0.23888238E+04</pdfrwt>
<totfact> 0.36081965E+00</totfact>
</mgrwt>
</event>
<event>
12    2  0.3555611E-008  0.2623305E+04  0.7818608E-02  0.8360328E-01
         -1   -1    0    0    0  501 -0.00000000000E+00  0.00000000000E+00  0.13489735056E+04  0.13489735056E+04  0.00000000000E+00 0.  1.
          1   -1    0    0  501    0  0.00000000000E+00 -0.00000000000E+00 -0.12753640550E+04  0.12753640550E+04  0.00000000000E+00 0. -1.
         23    2    1    2    0    0 -0.11421736656E+04  0.23771997879E+02 -0.24059687096E+02  0.11462363048E+04  0.90294006060E+02 0.  0.
        254    2    1    2    0    0  0.11421736656E+04 -0.23771997879E+02  0.97669137678E+02  0.14781012558E+04  0.93280130340E+03 0.  0.
         23    2    4    4    0    0  0.88240100146E+03 -0.38225825709E+03 -0.12502920717E+03  0.97413667779E+03  0.92504388382E+02 0.  0.
         23    2    4    4    0    0  0.25977266418E+03  0.35848625921E+03  0.22269834485E+03  0.50396457803E+03  0.91605174631E+02 0.  0.
          4    1    3    3  502    0 -0.10551571837E+04  0.33424749137E+02 -0.43388865186E+02  0.10565777254E+04  0.00000000000E+00 0. -1.
         -4    1    3    3    0  502 -0.87016481977E+02 -0.96527512580E+01  0.19329178090E+02  0.89658579446E+02  0.00000000000E+00 0.  1.
         11    1    5    5    0    0  0.71711545213E+03 -0.34762505622E+03 -0.11196560601E+03  0.80475713624E+03  0.00000000000E+00 0. -1.
        -11    1    5    5    0    0  0.16528554933E+03 -0.34633200869E+02 -0.13063601160E+02  0.16937954155E+03  0.00000000000E+00 0.  1.
          4    1    6    6  503    0  0.17503511499E+03  0.30237519308E+03  0.15768554275E+03  0.38331811757E+03  0.00000000000E+00 0. -1.
         -4    1    6    6    0  503  0.84737549188E+02  0.56111066129E+02  0.65012802094E+02  0.12064646046E+03  0.00000000000E+00 0.  1.
<mgrwt>
<rscale>  0 0.26233050E+04</rscale>
<asrwt>0</asrwt>
<pdfrwt beam="1">  1        1 0.19620986E+00 0.26233050E+04</pdfrwt>
<pdfrwt beam="2">  1       -1 0.20753439E+00 0.26233050E+04</pdfrwt>
<totfact> 0.11065529E+00</totfact>
</mgrwt>
</event>
<event>
12    2  0.3555611E-008  0.1438957E+04  0.7818608E-02  0.8926092E-01
         -1   -1    0    0    0  501 -0.00000000000E+00  0.00000000000E+00  0.46225350087E+03  0.46225350087E+03  0.00000000000E+00 0.  1.
          1   -1    0    0  501    0  0.00000000000E+00 -0.00000000000E+00 -0.11198392837E+04  0.11198392837E+04  0.00000000000E+00 0. -1.
         23    2    1    2    0    0 -0.19213033368E+03 -0.26464187260E+03 -0.12648232955E+03  0.36402904934E+03  0.97826291084E+02 0.  0.
        254    2    1    2    0    0  0.19213033368E+03  0.26464187260E+03 -0.53110345330E+03  0.12180637352E+04  0.10462595276E+04 0.  0.
         23    2    4    4    0    0 -0.23407848299E+03 -0.10338675417E+03 -0.58508571754E+03  0.64513105866E+03  0.91581814979E+02 0.  0.
         23    2    4    4    0    0  0.42620881667E+03  0.36802862677E+03  0.53982264246E+02  0.57293267657E+03  0.90767513468E+02 0.  0.
          3    1    3    3  502    0 -0.48515024311E+01 -0.21830626556E+02  0.14370580354E+02  0.26582454954E+02  0.00000000000E+00 0. -1.
         -3    1    3    3    0  502 -0.18727883125E+03 -0.24281124604E+03 -0.14085290990E+03  0.33744659439E+03  0.00000000000E+00 0.  1.
         11    1    5    5    0    0 -0.21470451606E+03 -0.82595486932E+02 -0.43202498735E+03  0.48945442420E+03  0.00000000000E+00 0. -1.
        -11    1    5    5    0    0 -0.19373966935E+02 -0.20791267241E+02 -0.15306073019E+03  0.15567663446E+03  0.00000000000E+00 0.  1.
          3    1    6    6  503    0  0.33704856603E+03  0.25249686852E+03  0.66936835570E+02  0.42642343326E+03  0.00000000000E+00 0. -1.
         -3    1    6    6    0  503  0.89160250642E+02  0.11553175825E+03 -0.12954571324E+02  0.14650924331E+03  0.00000000000E+00 0.  1.
<mgrwt>
<rscale>  0 0.14389574E+04</rscale>
<asrwt>0</asrwt>
<pdfrwt beam="1">  1        1 0.17228297E+00 0.14389574E+04</pdfrwt>
<pdfrwt beam="2">  1       -1 0.71115923E-01 0.14389574E+04</pdfrwt>
<totfact> 0.23784694E+01</totfact>
</mgrwt>
</event>
<event>
12    2  0.3555611E-008  0.1601715E+04  0.7818608E-02  0.8819495E-01
          2   -1    0    0  501    0  0.00000000000E+00  0.00000000000E+00  0.13086659525E+04  0.13086659525E+04  0.00000000000E+00 0. -1.
         -2   -1    0    0    0  501 -0.00000000000E+00 -0.00000000000E+00 -0.49009657654E+03  0.49009657654E+03  0.00000000000E+00 0.  1.
         23    2    1    2    0    0 -0.51979965363E+03  0.84886458507E+02  0.45848293348E+03  0.70500134019E+03  0.97071615957E+02 0.  0.
        254    2    1    2    0    0  0.51979965363E+03 -0.84886458507E+02  0.36008644253E+03  0.10937611889E+04  0.88839962939E+03 0.  0.
         23    2    4    4    0    0 -0.82969331507E+02 -0.10716784277E+03 -0.20495193412E+03  0.26226455607E+03  0.91698122000E+02 0.  0.
         23    2    4    4    0    0  0.60276898514E+03  0.22281384260E+02  0.56503837664E+03  0.83149663283E+03  0.91056981103E+02 0.  0.
          4    1    3    3  502    0 -0.48535149031E+03  0.10178288868E+03  0.43727127205E+03  0.66115958053E+03  0.00000000000E+00 0. -1.
         -4    1    3    3    0  502 -0.34448163324E+02 -0.16896430178E+02  0.21211661435E+02  0.43841759659E+02  0.00000000000E+00 0.  1.
         11    1    5    5    0    0 -0.56296575411E+02 -0.10772100224E+03 -0.20156028342E+03  0.23537133764E+03  0.00000000000E+00 0. -1.
        -11    1    5    5    0    0 -0.26672756096E+02  0.55315947764E+00 -0.33916506916E+01  0.26893218431E+02  0.00000000000E+00 0.  1.
          3    1    6    6  503    0  0.42678234177E+03  0.52274227516E+02  0.42539810457E+03  0.60484651729E+03  0.00000000000E+00 0. -1.
         -3    1    6    6    0  503  0.17598664337E+03 -0.29992843256E+02  0.13964027207E+03  0.22665011554E+03  0.00000000000E+00 0.  1.
<mgrwt>
<rscale>  0 0.16017150E+04</rscale>
<asrwt>0</asrwt>
<pdfrwt beam="1">  1        2 0.20133322E+00 0.16017150E+04</pdfrwt>
<pdfrwt beam="2">  1       -2 0.75399474E-01 0.16017150E+04</pdfrwt>
<totfact> 0.24725024E+01</totfact>
</mgrwt>
</event>
<event>
12    2  0.3555611E-008  0.1660450E+04  0.7818608E-02  0.8784248E-01
         -1   -1    0    0    0  501 -0.00000000000E+00  0.00000000000E+00  0.13704129747E+04  0.13704129747E+04  0.00000000000E+00 0.  1.
          1   -1    0    0  501    0  0.00000000000E+00 -0.00000000000E+00 -0.50296792967E+03  0.50296792967E+03  0.00000000000E+00 0. -1.
         23    2    1    2    0    0  0.30867521249E+03 -0.11679305632E+03  0.84290749572E+03  0.91128830130E+03  0.10503483676E+03 0.  0.
        254    2    1    2    0    0 -0.30867521249E+03  0.11679305632E+03  0.24537549298E+02  0.96209260307E+03  0.90338202370E+03 0.  0.
         23    2    4    4    0    0  0.69145998603E+02 -0.23586832345E+03 -0.25615567008E+03  0.36697594151E+03  0.92954715857E+02 0.  0.
         23    2    4    4    0    0 -0.37782121109E+03  0.35266137977E+03  0.28069321937E+03  0.59511666156E+03  0.90863860448E+02 0.  0.
          3    1    3    3  502    0  0.37117720172E+02  0.99242633651E+01  0.46210139016E+02  0.60096531530E+02  0.00000000000E+00 0. -1.
         -3    1    3    3    0  502  0.27155749231E+03 -0.12671731968E+03  0.79669735671E+03  0.85119176977E+03  0.00000000000E+00 0.  1.
         11    1    5    5    0    0  0.17170888615E+02 -0.68231754734E+02 -0.20769948619E+02  0.73360769731E+02  0.00000000000E+00 0. -1.
        -11    1    5    5    0    0  0.51975109988E+02 -0.16763656872E+03 -0.23538572146E+03  0.29361517177E+03  0.00000000000E+00 0.  1.
          4    1    6    6  503    0 -0.36876338122E+03  0.35316491643E+03  0.28534477953E+03  0.58492181762E+03  0.00000000000E+00 0.  1.
         -4    1    6    6    0  503 -0.90578298744E+01 -0.50353666048E+00 -0.46515601516E+01  0.10194843944E+02  0.00000000000E+00 0. -1.
<mgrwt>
<rscale>  0 0.16604503E+04</rscale>
<asrwt>0</asrwt>
<pdfrwt beam="1">  1        1 0.77379682E-01 0.16604503E+04</pdfrwt>
<pdfrwt beam="2">  1       -1 0.21083276E+00 0.16604503E+04</pdfrwt>
<totfact> 0.53251659E+00</totfact>
</mgrwt>
</event>
<event>
12    2  0.3555611E-008  0.1667305E+04  0.7818608E-02  0.8780234E-01
          2   -1    0    0  501    0  0.00000000000E+00  0.00000000000E+00  0.11665343978E+04  0.11665343978E+04  0.00000000000E+00 0. -1.
         -2   -1    0    0    0  501 -0.00000000000E+00 -0.00000000000E+00 -0.59576150529E+03  0.59576150529E+03  0.00000000000E+00 0.  1.
         23    2    1    2    0    0  0.50163116707E+02 -0.97558673047E+02 -0.40332145814E+03  0.42890260657E+03  0.96204024689E+02 0.  0.
        254    2    1    2    0    0 -0.50163116707E+02  0.97558673047E+02  0.97409435061E+03  0.13333932965E+04  0.90390477719E+03 0.  0.
         23    2    4    4    0    0  0.30837547076E+03 -0.12942486437E+03  0.10482682975E+03  0.36178713372E+03  0.89749871355E+02 0.  0.
         23    2    4    4    0    0 -0.35853858747E+03  0.22698353742E+03  0.86926752086E+03  0.97160616275E+03  0.91219886604E+02 0.  0.
          4    1    3    3  502    0  0.32811602754E+02 -0.77651262408E+02 -0.13414318303E+03  0.15843204657E+03  0.00000000000E+00 0. -1.
         -4    1    3    3    0  502  0.17351513953E+02 -0.19907410639E+02 -0.26917827511E+03  0.27047056000E+03  0.00000000000E+00 0.  1.
         11    1    5    5    0    0  0.16052637367E+03 -0.20231315139E+02  0.37856080706E+02  0.16616589783E+03  0.00000000000E+00 0.  1.
        -11    1    5    5    0    0  0.14784909709E+03 -0.10919354923E+03  0.66970749045E+02  0.19562123589E+03  0.00000000000E+00 0. -1.
          1    1    6    6  503    0 -0.65140674807E+02  0.74746183163E+02  0.26329924891E+03  0.28134817200E+03  0.00000000000E+00 0. -1.
         -1    1    6    6    0  503 -0.29339791266E+03  0.15223735425E+03  0.60596827194E+03  0.69025799074E+03  0.00000000000E+00 0.  1.
<mgrwt>
<rscale>  0 0.16673048E+04</rscale>
<asrwt>0</asrwt>
<pdfrwt beam="1">  1        2 0.17946683E+00 0.16673048E+04</pdfrwt>
<pdfrwt beam="2">  1       -2 0.91655616E-01 0.16673048E+04</pdfrwt>
<totfact> 0.19178470E+01</totfact>
</mgrwt>
</event>
<event>
12    2  0.3555611E-008  0.2128305E+04  0.7818608E-02  0.8548876E-01
         -2   -1    0    0    0  501 -0.00000000000E+00  0.00000000000E+00  0.45468277175E+03  0.45468277175E+03  0.00000000000E+00 0.  1.
          2   -1    0    0  501    0  0.00000000000E+00 -0.00000000000E+00 -0.24905733016E+04  0.24905733016E+04  0.00000000000E+00 0. -1.
         23    2    1    2    0    0 -0.74871226263E+03 -0.29345982117E+03 -0.13000568066E+04  0.15313707853E+04  0.90884888009E+02 0.  0.
        254    2    1    2    0    0  0.74871226263E+03  0.29345982117E+03 -0.73583372322E+03  0.14138852880E+04  0.90051741824E+03 0.  0.
         23    2    4    4    0    0  0.19518268326E+03  0.49435140019E+03 -0.11134911834E+03  0.55070014936E+03  0.91610270369E+02 0.  0.
         23    2    4    4    0    0  0.55352957937E+03 -0.20089157901E+03 -0.62448460488E+03  0.86318513865E+03  0.91406455451E+02 0.  0.
          1    1    3    3  502    0 -0.65198113315E+03 -0.24812733825E+03 -0.11789682063E+04  0.13698951074E+04  0.00000000000E+00 0. -1.
         -1    1    3    3    0  502 -0.96731129477E+02 -0.45332482920E+02 -0.12108860036E+03  0.16147567790E+03  0.00000000000E+00 0.  1.
         11    1    5    5    0    0  0.18967045439E+03  0.39435629533E+03 -0.73973579040E+02  0.44380610556E+03  0.00000000000E+00 0.  1.
        -11    1    5    5    0    0  0.55122288760E+01  0.99995104852E+02 -0.37375539301E+02  0.10689404380E+03  0.00000000000E+00 0. -1.
          2    1    6    6  503    0  0.23000685013E+02  0.31932281831E+01 -0.49398045897E+02  0.54583836030E+02  0.00000000000E+00 0. -1.
         -2    1    6    6    0  503  0.53052889436E+03 -0.20408480719E+03 -0.57508655898E+03  0.80860130262E+03  0.00000000000E+00 0.  1.
<mgrwt>
<rscale>  0 0.21283052E+04</rscale>
<asrwt>0</asrwt>
<pdfrwt beam="1">  1        2 0.38316513E+00 0.21283052E+04</pdfrwt>
<pdfrwt beam="2">  1       -2 0.69951195E-01 0.21283052E+04</pdfrwt>
<totfact> 0.60356189E+00</totfact>
</mgrwt>
</event>
<event>
12    2  0.3555611E-008  0.2409712E+04  0.7818608E-02  0.8435876E-01
          1   -1    0    0  501    0  0.00000000000E+00  0.00000000000E+00  0.22116915272E+04  0.22116915272E+04  0.00000000000E+00 0. -1.
         -1   -1    0    0    0  501 -0.00000000000E+00 -0.00000000000E+00 -0.65636572496E+03  0.65636572496E+03  0.00000000000E+00 0.  1.
         23    2    1    2    0    0  0.32863749935E+03 -0.49534684581E+02  0.18367893581E+04  0.18687305979E+04  0.88896627564E+02 0.  0.
        254    2    1    2    0    0 -0.32863749935E+03  0.49534684581E+02 -0.28146355590E+03  0.99932665426E+03  0.89943078536E+03 0.  0.
         23    2    4    4    0    0 -0.14122208321E+03 -0.33149199234E+03  0.13700612961E+03  0.39599502965E+03  0.90613278186E+02 0.  0.
         23    2    4    4    0    0 -0.18741541615E+03  0.38102667692E+03 -0.41846968551E+03  0.60333162461E+03  0.92662316134E+02 0.  0.
          1    1    3    3  502    0  0.19571818120E+03 -0.52999354600E+02  0.13000146868E+04  0.13157327707E+04  0.00000000000E+00 0. -1.
         -1    1    3    3    0  502  0.13291931816E+03  0.34646700191E+01  0.53677467131E+03  0.55299782715E+03  0.00000000000E+00 0.  1.
         11    1    5    5    0    0  0.58372490934E+00 -0.95758642139E+02  0.45987808893E+02  0.10623058338E+03  0.00000000000E+00 0.  1.
        -11    1    5    5    0    0 -0.14180580812E+03 -0.23573335020E+03  0.91018320716E+02  0.28976444627E+03  0.00000000000E+00 0. -1.
          4    1    6    6  503    0 -0.16493308390E+03  0.28651385754E+03 -0.36491453693E+03  0.49239794069E+03  0.00000000000E+00 0. -1.
         -4    1    6    6    0  503 -0.22482332244E+02  0.94512819379E+02 -0.53555148583E+02  0.11093368393E+03  0.00000000000E+00 0.  1.
<mgrwt>
<rscale>  0 0.24097124E+04</rscale>
<asrwt>0</asrwt>
<pdfrwt beam="1">  1        1 0.34026023E+00 0.24097124E+04</pdfrwt>
<pdfrwt beam="2">  1       -1 0.10097934E+00 0.24097124E+04</pdfrwt>
<totfact> 0.17844293E+00</totfact>
</mgrwt>
</event>
<event>
12    2  0.3555611E-008  0.1317306E+04  0.7818608E-02  0.9015953E-01
         -1   -1    0    0    0  501 -0.00000000000E+00  0.00000000000E+00  0.34426480858E+03  0.34426480858E+03  0.00000000000E+00 0.  1.
          1   -1    0    0  501    0  0.00000000000E+00 -0.00000000000E+00 -0.12601447873E+04  0.12601447873E+04  0.00000000000E+00 0. -1.
         23    2    1    2    0    0  0.94203440269E+02 -0.10689332912E+03  0.13716014127E+03  0.21723144726E+03  0.89867265215E+02 0.  0.
        254    2    1    2    0    0 -0.94203440269E+02  0.10689332912E+03 -0.10530401200E+04  0.13871781486E+04  0.89166655746E+03 0.  0.
         23    2    4    4    0    0  0.21945088954E+03 -0.27088208784E+03 -0.24601833704E+03  0.43792760832E+03  0.98588891503E+02 0.  0.
         23    2    4    4    0    0 -0.31365432981E+03  0.37777541696E+03 -0.80702178294E+03  0.94925054029E+03  0.93269104330E+02 0.  0.
          1    1    3    3  502    0 -0.84208054717E+01 -0.36825031861E+01 -0.76192150734E+01  0.11938309463E+02  0.00000000000E+00 0. -1.
         -1    1    3    3    0  502  0.10262424574E+03 -0.10321082594E+03  0.14477935634E+03  0.20529313780E+03  0.00000000000E+00 0.  1.
         11    1    5    5    0    0  0.16116095839E+03 -0.19339259963E+03 -0.11988318499E+03  0.27882885458E+03  0.00000000000E+00 0. -1.
        -11    1    5    5    0    0  0.58289931154E+02 -0.77489488210E+02 -0.12613515206E+03  0.15909875374E+03  0.00000000000E+00 0.  1.
          1    1    6    6  503    0 -0.30325435609E+03  0.34001406517E+03 -0.77345914366E+03  0.89767021557E+03  0.00000000000E+00 0. -1.
         -1    1    6    6    0  503 -0.10399973725E+02  0.37761351798E+02 -0.33562639275E+02  0.51580324720E+02  0.00000000000E+00 0.  1.
<mgrwt>
<rscale>  0 0.13173056E+04</rscale>
<asrwt>0</asrwt>
<pdfrwt beam="1">  1        1 0.19386843E+00 0.13173056E+04</pdfrwt>
<pdfrwt beam="2">  1       -1 0.52963817E-01 0.13173056E+04</pdfrwt>
<totfact> 0.34072216E+01</totfact>
</mgrwt>
</event>
<event>
12    2  0.3555611E-008  0.1324709E+04  0.7818608E-02  0.9010197E-01
         -1   -1    0    0    0  501 -0.00000000000E+00  0.00000000000E+00  0.12307440806E+04  0.12307440806E+04  0.00000000000E+00 0.  1.
          1   -1    0    0  501    0  0.00000000000E+00 -0.00000000000E+00 -0.35646221215E+03  0.35646221215E+03  0.00000000000E+00 0. -1.
         23    2    1    2    0    0 -0.30198165804E+02  0.14069556815E+03  0.61741453779E+03  0.64062787178E+03  0.92174760707E+02 0.  0.
        254    2    1    2    0    0  0.30198165804E+02 -0.14069556815E+03  0.25686733062E+03  0.94657842092E+03  0.89962364870E+03 0.  0.
         23    2    4    4    0    0 -0.15948811778E+03 -0.47071320955E+03  0.22826803269E+03  0.55416366868E+03  0.89351505743E+02 0.  0.
         23    2    4    4    0    0  0.18968628358E+03  0.33001764141E+03  0.28599297926E+02  0.39241475224E+03  0.90988395496E+02 0.  0.
          2    1    3    3  502    0  0.37997406288E+01  0.84001748725E+02  0.18530857398E+03  0.20349447022E+03  0.00000000000E+00 0. -1.
         -2    1    3    3    0  502 -0.33997906433E+02  0.56693819421E+02  0.43210596381E+03  0.43713340156E+03  0.00000000000E+00 0.  1.
         11    1    5    5    0    0 -0.12199636744E+03 -0.43801482680E+03  0.21316045611E+03  0.50217276132E+03  0.00000000000E+00 0. -1.
        -11    1    5    5    0    0 -0.37491750336E+02 -0.32698382755E+02  0.15107576580E+02  0.51990907361E+02  0.00000000000E+00 0.  1.
          4    1    6    6  503    0  0.45494037970E+02  0.16577018538E+03 -0.68737797947E+00  0.17190094339E+03  0.00000000000E+00 0. -1.
         -4    1    6    6    0  503  0.14419224561E+03  0.16424745603E+03  0.29286675905E+02  0.22051380885E+03  0.00000000000E+00 0.  1.
<mgrwt>
<rscale>  0 0.13247094E+04</rscale>
<asrwt>0</asrwt>
<pdfrwt beam="1">  1        1 0.54840341E-01 0.13247094E+04</pdfrwt>
<pdfrwt beam="2">  1       -1 0.18934524E+00 0.13247094E+04</pdfrwt>
<totfact> 0.12243164E+01</totfact>
</mgrwt>
</event>
<event>
12    2  0.3555611E-008  0.1685532E+04  0.7818608E-02  0.8769659E-01
         -2   -1    0    0    0  501 -0.00000000000E+00  0.00000000000E+00  0.34125873783E+03  0.34125873783E+03  0.00000000000E+00 0.  1.
          2   -1    0    0  501    0  0.00000000000E+00 -0.00000000000E+00 -0.20812779874E+04  0.20812779874E+04  0.00000000000E+00 0. -1.
         23    2    1    2    0    0  0.44262781644E+03 -0.36448121029E+03 -0.38154936160E+03  0.69457066406E+03  0.89903033824E+02 0.  0.
        254    2    1    2    0    0 -0.44262781644E+03  0.36448121029E+03 -0.13584698880E+04  0.17279660612E+04  0.90092193640E+03 0.  0.
         23    2    4    4    0    0 -0.60110109081E+03  0.10562295160E+02 -0.10880999367E+04  0.12465355015E+04  0.91952165145E+02 0.  0.
         23    2    4    4    0    0  0.15847327437E+03  0.35391891513E+03 -0.27036995128E+03  0.48143055973E+03  0.91121326296E+02 0.  0.
          1    1    3    3  502    0  0.68815397623E+02 -0.25319249179E+02 -0.70269397683E+02  0.10155989159E+03  0.00000000000E+00 0. -1.
         -1    1    3    3    0  502  0.37381241882E+03 -0.33916196111E+03 -0.31127996392E+03  0.59301077247E+03  0.00000000000E+00 0.  1.
         11    1    5    5    0    0 -0.25374102147E+03 -0.29690571325E+02 -0.52156387721E+03  0.58077096519E+03  0.00000000000E+00 0. -1.
        -11    1    5    5    0    0 -0.34736006935E+03  0.40252866485E+02 -0.56653605950E+03  0.66576453627E+03  0.00000000000E+00 0.  1.
          2    1    6    6  503    0  0.84994029328E+02  0.18635573666E+03 -0.19736061425E+03  0.28443568283E+03  0.00000000000E+00 0.  1.
         -2    1    6    6    0  503  0.73479245042E+02  0.16756317847E+03 -0.73009337030E+02  0.19699487690E+03  0.00000000000E+00 0. -1.
<mgrwt>
<rscale>  0 0.16855317E+04</rscale>
<asrwt>0</asrwt>
<pdfrwt beam="1">  1        2 0.32019661E+00 0.16855317E+04</pdfrwt>
<pdfrwt beam="2">  1       -2 0.52501344E-01 0.16855317E+04</pdfrwt>
<totfact> 0.19635033E+01</totfact>
</mgrwt>
</event>
<event>
12    2  0.3555611E-008  0.2092576E+04  0.7818608E-02  0.8564521E-01
          2   -1    0    0  501    0  0.00000000000E+00  0.00000000000E+00  0.10959155414E+04  0.10959155414E+04  0.00000000000E+00 0. -1.
         -2   -1    0    0    0  501 -0.00000000000E+00 -0.00000000000E+00 -0.99890742478E+03  0.99890742478E+03  0.00000000000E+00 0.  1.
         23    2    1    2    0    0  0.63096716813E+03  0.14889974781E+03 -0.50851427431E+03  0.83001646463E+03  0.10024900118E+03 0.  0.
        254    2    1    2    0    0 -0.63096716813E+03 -0.14889974781E+03  0.60552239091E+03  0.12648065015E+04  0.90154723575E+03 0.  0.
         23    2    4    4    0    0 -0.83496406078E+03 -0.31179857207E+02  0.36626275224E+03  0.91687035790E+03  0.91464108904E+02 0.  0.
         23    2    4    4    0    0  0.20399689266E+03 -0.11771989060E+03  0.23925963868E+03  0.34793614364E+03  0.91332800767E+02 0.  0.
          4    1    3    3  502    0  0.27149093984E+02 -0.97103198746E+01 -0.82074580406E+01  0.29978758875E+02  0.00000000000E+00 0. -1.
         -4    1    3    3    0  502  0.60381807414E+03  0.15861006769E+03 -0.50030681627E+03  0.80003770576E+03  0.00000000000E+00 0.  1.
         11    1    5    5    0    0 -0.75642027480E+02  0.53283297950E+01  0.72943129086E+01  0.76179488187E+02  0.00000000000E+00 0.  1.
        -11    1    5    5    0    0 -0.75932203330E+03 -0.36508187002E+02  0.35896843933E+03  0.84069086971E+03  0.00000000000E+00 0. -1.
          3    1    6    6  503    0  0.58638877140E+02 -0.60608188231E+02  0.36221743759E+02  0.91781725380E+02  0.00000000000E+00 0.  1.
         -3    1    6    6    0  503  0.14535801552E+03 -0.57111702374E+02  0.20303789492E+03  0.25615441826E+03  0.00000000000E+00 0. -1.
<mgrwt>
<rscale>  0 0.20925756E+04</rscale>
<asrwt>0</asrwt>
<pdfrwt beam="1">  1        2 0.16860239E+00 0.20925756E+04</pdfrwt>
<pdfrwt beam="2">  1       -2 0.15367807E+00 0.20925756E+04</pdfrwt>
<totfact> 0.56757421E+00</totfact>
</mgrwt>
</event>
<event>
12    2  0.3555611E-008  0.2090784E+04  0.7818608E-02  0.8565314E-01
         -1   -1    0    0    0  501 -0.00000000000E+00  0.00000000000E+00  0.50973223966E+03  0.50973223966E+03  0.00000000000E+00 0.  1.
          1   -1    0    0  501    0  0.00000000000E+00 -0.00000000000E+00 -0.21439577454E+04  0.21439577454E+04  0.00000000000E+00 0. -1.
         23    2    1    2    0    0  0.52897943966E+03 -0.23103421099E+03  0.12094006995E+03  0.59670735517E+03  0.90758542125E+02 0.  0.
        254    2    1    2    0    0 -0.52897943966E+03  0.23103421099E+03 -0.17551655757E+04  0.20569826299E+04  0.90408809712E+03 0.  0.
         23    2    4    4    0    0  0.15258667438E+03 -0.16712166637E+03 -0.22141714958E+03  0.32909909286E+03  0.89823795440E+02 0.  0.
         23    2    4    4    0    0 -0.68156611403E+03  0.39815587736E+03 -0.15337484262E+04  0.17278835371E+04  0.10068173842E+03 0.  0.
          1    1    3    3  502    0  0.36336948056E+03 -0.15730879395E+03  0.39337021277E+02  0.39790807644E+03  0.00000000000E+00 0. -1.
         -1    1    3    3    0  502  0.16560995910E+03 -0.73725417037E+02  0.81603048673E+02  0.19879927873E+03  0.00000000000E+00 0.  1.
         11    1    5    5    0    0  0.14992875691E+03 -0.14860418270E+03 -0.22659471836E+03  0.30968855590E+03  0.00000000000E+00 0.  1.
        -11    1    5    5    0    0  0.26579174657E+01 -0.18517483667E+02  0.51775687841E+01  0.19410536962E+02  0.00000000000E+00 0. -1.
          3    1    6    6  503    0 -0.64875848622E+02  0.20053538798E+02 -0.19050906285E+03  0.20224916114E+03  0.00000000000E+00 0. -1.
         -3    1    6    6    0  503 -0.61669026541E+03  0.37810233856E+03 -0.13432393633E+04  0.15256343759E+04  0.00000000000E+00 0.  1.
<mgrwt>
<rscale>  0 0.20907840E+04</rscale>
<asrwt>0</asrwt>
<pdfrwt beam="1">  1        1 0.32983966E+00 0.20907840E+04</pdfrwt>
<pdfrwt beam="2">  1       -1 0.78420344E-01 0.20907840E+04</pdfrwt>
<totfact> 0.35631355E+00</totfact>
</mgrwt>
</event>
<event>
12    2  0.3555611E-008  0.2598876E+04  0.7818608E-02  0.8368583E-01
          1   -1    0    0  501    0  0.00000000000E+00  0.00000000000E+00  0.32235788534E+04  0.32235788534E+04  0.00000000000E+00 0. -1.
         -1   -1    0    0    0  501 -0.00000000000E+00 -0.00000000000E+00 -0.52380901545E+03  0.52380901545E+03  0.00000000000E+00 0.  1.
         23    2    1    2    0    0  0.48991865650E+03  0.78994781558E+03  0.21371713978E+04  0.23322492865E+04  0.88585041256E+02 0.  0.
        254    2    1    2    0    0 -0.48991865650E+03 -0.78994781558E+03  0.56259844014E+03  0.14151385823E+04  0.90667654708E+03 0.  0.
         23    2    4    4    0    0 -0.73652786063E+02  0.82546349717E+02 -0.15015965553E+03  0.21060102513E+03  0.97807141302E+02 0.  0.
         23    2    4    4    0    0 -0.41626587044E+03 -0.87249416530E+03  0.71275809567E+03  0.12045375572E+04  0.91450972681E+02 0.  0.
          1    1    3    3  502    0  0.37468706651E+03  0.52836550116E+03  0.15034484404E+04  0.16370454220E+04  0.00000000000E+00 0. -1.
         -1    1    3    3    0  502  0.11523158999E+03  0.26158231442E+03  0.63372295737E+03  0.69520386453E+03  0.00000000000E+00 0.  1.
         11    1    5    5    0    0 -0.77747326168E+02  0.93248878373E+02 -0.94712086215E+02  0.15398174996E+03  0.00000000000E+00 0. -1.
        -11    1    5    5    0    0  0.40945401052E+01 -0.10702528655E+02 -0.55447569311E+02  0.56619275170E+02  0.00000000000E+00 0.  1.
          1    1    6    6  503    0 -0.30204880933E+03 -0.69539527522E+03  0.52394677244E+03  0.92159008912E+03  0.00000000000E+00 0. -1.
         -1    1    6    6    0  503 -0.11421706111E+03 -0.17709889008E+03  0.18881132323E+03  0.28294746809E+03  0.00000000000E+00 0.  1.
<mgrwt>
<rscale>  0 0.25988764E+04</rscale>
<asrwt>0</asrwt>
<pdfrwt beam="1">  1        1 0.49593520E+00 0.25988764E+04</pdfrwt>
<pdfrwt beam="2">  1       -1 0.80586004E-01 0.25988764E+04</pdfrwt>
<totfact> 0.55200391E-01</totfact>
</mgrwt>
</event>
<event>
12    2  0.3555611E-008  0.2837398E+04  0.7818608E-02  0.8291751E-01
          2   -1    0    0  501    0  0.00000000000E+00  0.00000000000E+00  0.14215155782E+04  0.14215155782E+04  0.00000000000E+00 0. -1.
         -2   -1    0    0    0  501 -0.00000000000E+00 -0.00000000000E+00 -0.14158882434E+04  0.14158882434E+04  0.00000000000E+00 0.  1.
         23    2    1    2    0    0 -0.12268691340E+04  0.33541349052E+03 -0.79189812783E+02  0.12776185916E+04  0.91258739359E+02 0.  0.
        254    2    1    2    0    0  0.12268691340E+04 -0.33541349052E+03  0.84817147552E+02  0.15597852300E+04  0.89890262737E+03 0.  0.
         23    2    4    4    0    0  0.93115016375E+03 -0.60900955458E+03 -0.69282554541E+02  0.11185549231E+04  0.91824717219E+02 0.  0.
         23    2    4    4    0    0  0.29571897028E+03  0.27359606407E+03  0.15409970209E+03  0.44123030684E+03  0.92913668710E+02 0.  0.
          3    1    3    3  502    0 -0.60701949278E+03  0.15788393676E+03  0.59917003465E+01  0.62724469115E+03  0.00000000000E+00 0. -1.
         -3    1    3    3    0  502 -0.61984964125E+03  0.17752955376E+03 -0.85181513129E+02  0.65037390045E+03  0.00000000000E+00 0.  1.
         11    1    5    5    0    0  0.87809364140E+03 -0.55295470380E+03 -0.49478709954E+02  0.10388722204E+04  0.00000000000E+00 0. -1.
        -11    1    5    5    0    0  0.53056522356E+02 -0.56054850783E+02 -0.19803844588E+02  0.79682702774E+02  0.00000000000E+00 0.  1.
          3    1    6    6  503    0  0.28036730290E+03  0.25157289769E+03  0.11509553738E+03  0.39388034999E+03  0.00000000000E+00 0. -1.
         -3    1    6    6    0  503  0.15351667382E+02  0.22023166381E+02  0.39004164710E+02  0.47349956849E+02  0.00000000000E+00 0.  1.
<mgrwt>
<rscale>  0 0.28373982E+04</rscale>
<asrwt>0</asrwt>
<pdfrwt beam="1">  1        2 0.21869470E+00 0.28373982E+04</pdfrwt>
<pdfrwt beam="2">  1       -2 0.21782896E+00 0.28373982E+04</pdfrwt>
<totfact> 0.12450116E+00</totfact>
</mgrwt>
</event>
<event>
12    2  0.3555611E-008  0.1926001E+04  0.7818608E-02  0.8642021E-01
          1   -1    0    0  501    0  0.00000000000E+00  0.00000000000E+00  0.13869920314E+04  0.13869920314E+04  0.00000000000E+00 0. -1.
         -1   -1    0    0    0  501 -0.00000000000E+00 -0.00000000000E+00 -0.66861919572E+03  0.66861919572E+03  0.00000000000E+00 0.  1.
         23    2    1    2    0    0 -0.39360221021E+03  0.30859866829E+03 -0.31364145516E+03  0.59652661320E+03  0.85540633047E+02 0.  0.
        254    2    1    2    0    0  0.39360221021E+03 -0.30859866829E+03  0.10320142909E+04  0.14590846139E+04  0.90206351003E+03 0.  0.
         23    2    4    4    0    0 -0.29953411415E+02 -0.28319787360E+03  0.97752661337E+03  0.10222980645E+04  0.91852111261E+02 0.  0.
         23    2    4    4    0    0  0.42355562163E+03 -0.25400794687E+02  0.54487677491E+02  0.43678654945E+03  0.88142031967E+02 0.  0.
          3    1    3    3  502    0 -0.20946620231E+03  0.21649609926E+03 -0.17636476605E+03  0.34907188602E+03  0.00000000000E+00 0. -1.
         -3    1    3    3    0  502 -0.18413600791E+03  0.92102569022E+02 -0.13727668912E+03  0.24745472718E+03  0.00000000000E+00 0.  1.
         11    1    5    5    0    0 -0.50457069475E+01 -0.37714881745E+02  0.51935126506E+02  0.64382674912E+02  0.00000000000E+00 0.  1.
        -11    1    5    5    0    0 -0.24907704467E+02 -0.24548299185E+03  0.92559148686E+03  0.95791538957E+03  0.00000000000E+00 0. -1.
          3    1    6    6  503    0  0.42625508195E+03 -0.27649728389E+02  0.48568655100E+02  0.42990326427E+03  0.00000000000E+00 0. -1.
         -3    1    6    6    0  503 -0.26994603244E+01  0.22489337025E+01  0.59190223908E+01  0.68832851825E+01  0.00000000000E+00 0.  1.
<mgrwt>
<rscale>  0 0.19260005E+04</rscale>
<asrwt>0</asrwt>
<pdfrwt beam="1">  1        1 0.21338339E+00 0.19260005E+04</pdfrwt>
<pdfrwt beam="2">  1       -1 0.10286449E+00 0.19260005E+04</pdfrwt>
<totfact> 0.65415854E+00</totfact>
</mgrwt>
</event>
<event>
12    2  0.3555611E-008  0.1911171E+04  0.7818608E-02  0.8649316E-01
          2   -1    0    0  501    0  0.00000000000E+00  0.00000000000E+00  0.14332591676E+04  0.14332591676E+04  0.00000000000E+00 0. -1.
         -2   -1    0    0    0  501 -0.00000000000E+00 -0.00000000000E+00 -0.63710996774E+03  0.63710996774E+03  0.00000000000E+00 0.  1.
         23    2    1    2    0    0  0.30291203079E+03 -0.65601380823E+03  0.48069036342E+03  0.87262348579E+03  0.91097241893E+02 0.  0.
        254    2    1    2    0    0 -0.30291203079E+03  0.65601380823E+03  0.31545883643E+03  0.11977456496E+04  0.90164879447E+03 0.  0.
         23    2    4    4    0    0 -0.31249505470E+03 -0.51408879109E+02 -0.13276527188E+03  0.35542394646E+03  0.91670781797E+02 0.  0.
         23    2    4    4    0    0  0.95830239024E+01  0.70742268733E+03  0.44822410832E+03  0.84232170310E+03  0.89790352122E+02 0.  0.
          3    1    3    3  502    0  0.12916585929E+03 -0.18038260880E+03  0.14131800317E+03  0.26304464029E+03  0.00000000000E+00 0. -1.
         -3    1    3    3    0  502  0.17374617150E+03 -0.47563119943E+03  0.33937236026E+03  0.60957884550E+03  0.00000000000E+00 0.  1.
         11    1    5    5    0    0 -0.55378279100E+02  0.19636745490E+02 -0.31292012809E+01  0.58840015892E+02  0.00000000000E+00 0. -1.
        -11    1    5    5    0    0 -0.25711677560E+03 -0.71045624598E+02 -0.12963607060E+03  0.29658393056E+03  0.00000000000E+00 0.  1.
          3    1    6    6  503    0 -0.84680014145E+01  0.36552207589E+03  0.28193607130E+03  0.46169908307E+03  0.00000000000E+00 0. -1.
         -3    1    6    6    0  503  0.18051025317E+02  0.34190061144E+03  0.16628803702E+03  0.38062262003E+03  0.00000000000E+00 0.  1.
<mgrwt>
<rscale>  0 0.19111711E+04</rscale>
<asrwt>0</asrwt>
<pdfrwt beam="1">  1        2 0.22050141E+00 0.19111711E+04</pdfrwt>
<pdfrwt beam="2">  1       -2 0.98016919E-01 0.19111711E+04</pdfrwt>
<totfact> 0.11225805E+01</totfact>
</mgrwt>
</event>
<event>
12    2  0.3555611E-008  0.1361468E+04  0.7818608E-02  0.8982192E-01
         -2   -1    0    0    0  501 -0.00000000000E+00  0.00000000000E+00  0.18663990582E+03  0.18663990582E+03  0.00000000000E+00 0.  1.
          2   -1    0    0  501    0  0.00000000000E+00 -0.00000000000E+00 -0.24828497838E+04  0.24828497838E+04  0.00000000000E+00 0. -1.
         23    2    1    2    0    0 -0.68239589769E+02 -0.28859668580E+03 -0.20757215377E+03  0.37237518869E+03  0.87363570592E+02 0.  0.
        254    2    1    2    0    0  0.68239589769E+02  0.28859668580E+03 -0.20886377242E+04  0.22971145009E+04  0.90905599318E+03 0.  0.
         23    2    4    4    0    0  0.46484962672E+03  0.46147236214E+02 -0.11824921758E+04  0.12746149372E+04  0.90226102033E+02 0.  0.
         23    2    4    4    0    0 -0.39661003695E+03  0.24244944958E+03 -0.90614554841E+03  0.10224995637E+04  0.91237853268E+02 0.  0.
          1    1    3    3  502    0 -0.10340913109E+02 -0.10594057797E+03 -0.12374713481E+03  0.16322896164E+03  0.00000000000E+00 0. -1.
         -1    1    3    3    0  502 -0.57898676660E+02 -0.18265610783E+03 -0.83825018961E+02  0.20914622705E+03  0.00000000000E+00 0.  1.
         11    1    5    5    0    0  0.43901760762E+03  0.21519634678E+02 -0.11085052824E+04  0.11924695030E+04  0.00000000000E+00 0. -1.
        -11    1    5    5    0    0  0.25832019100E+02  0.24627601536E+02 -0.73986893358E+02  0.82145434182E+02  0.00000000000E+00 0.  1.
          1    1    6    6  503    0 -0.36622400104E+03  0.24645981568E+03 -0.86572467411E+03  0.97177243789E+03  0.00000000000E+00 0. -1.
         -1    1    6    6    0  503 -0.30386035911E+02 -0.40103660958E+01 -0.40420874303E+02  0.50727125821E+02  0.00000000000E+00 0.  1.
<mgrwt>
<rscale>  0 0.13614681E+04</rscale>
<asrwt>0</asrwt>
<pdfrwt beam="1">  1        2 0.38197690E+00 0.13614681E+04</pdfrwt>
<pdfrwt beam="2">  1       -2 0.28713831E-01 0.13614681E+04</pdfrwt>
<totfact> 0.38827839E+01</totfact>
</mgrwt>
</event>
<event>
12    2  0.3555611E-008  0.2364785E+04  0.7818608E-02  0.8452806E-01
          1   -1    0    0  501    0  0.00000000000E+00  0.00000000000E+00  0.20835995627E+04  0.20835995627E+04  0.00000000000E+00 0. -1.
         -1   -1    0    0    0  501 -0.00000000000E+00 -0.00000000000E+00 -0.67097942493E+03  0.67097942493E+03  0.00000000000E+00 0.  1.
         23    2    1    2    0    0 -0.34442016121E+03 -0.16486976648E+03 -0.48462071520E+03  0.62362155380E+03  0.90770685864E+02 0.  0.
        254    2    1    2    0    0  0.34442016121E+03  0.16486976648E+03  0.18972408530E+04  0.21309574339E+04  0.89199184035E+03 0.  0.
         23    2    4    4    0    0  0.59660800381E+03  0.56833871346E+02  0.16217246772E+04  0.17312972265E+04  0.90708096154E+02 0.  0.
         23    2    4    4    0    0 -0.25218784260E+03  0.10803589513E+03  0.27551617578E+03  0.39966020733E+03  0.92458940170E+02 0.  0.
          3    1    3    3  502    0 -0.70455896189E+02 -0.36873833011E+02 -0.49243594999E+02  0.93534189028E+02  0.00000000000E+00 0. -1.
         -3    1    3    3    0  502 -0.27396426502E+03 -0.12799593347E+03 -0.43537712021E+03  0.53008736477E+03  0.00000000000E+00 0.  1.
         11    1    5    5    0    0  0.58882581230E+03  0.62764198680E+02  0.16127234650E+04  0.17180023738E+04  0.00000000000E+00 0.  1.
        -11    1    5    5    0    0  0.77821915150E+01 -0.59303273340E+01  0.90012122154E+01  0.13294852704E+02  0.00000000000E+00 0. -1.
          1    1    6    6  503    0 -0.46765567914E+02  0.34719941695E+02  0.11479812102E+03  0.12872878965E+03  0.00000000000E+00 0. -1.
         -1    1    6    6    0  503 -0.20542227468E+03  0.73315953437E+02  0.16071805476E+03  0.27093141769E+03  0.00000000000E+00 0.  1.
<mgrwt>
<rscale>  0 0.23647853E+04</rscale>
<asrwt>0</asrwt>
<pdfrwt beam="1">  1        1 0.32055378E+00 0.23647853E+04</pdfrwt>
<pdfrwt beam="2">  1       -1 0.10322760E+00 0.23647853E+04</pdfrwt>
<totfact> 0.20813040E+00</totfact>
</mgrwt>
</event>
<event>
12    2  0.3555611E-008  0.1968017E+04  0.7818608E-02  0.8621721E-01
          2   -1    0    0  501    0  0.00000000000E+00  0.00000000000E+00  0.16638179498E+04  0.16638179498E+04  0.00000000000E+00 0. -1.
         -2   -1    0    0    0  501 -0.00000000000E+00 -0.00000000000E+00 -0.58195836413E+03  0.58195836413E+03  0.00000000000E+00 0.  1.
         23    2    1    2    0    0  0.34302847141E+03  0.54757569116E+03  0.85819785547E+03  0.10781592752E+04  0.91739816054E+02 0.  0.
        254    2    1    2    0    0 -0.34302847141E+03 -0.54757569116E+03  0.22366173024E+03  0.11676170387E+04  0.94646569397E+03 0.  0.
         23    2    4    4    0    0 -0.32938062099E+03 -0.53399678769E+03  0.54357290952E+03  0.83411435822E+03  0.81431516533E+02 0.  0.
         23    2    4    4    0    0 -0.13647850418E+02 -0.13578903470E+02 -0.31991117928E+03  0.33350268053E+03  0.92250879939E+02 0.  0.
          1    1    3    3  502    0  0.36306193211E+02  0.82518155944E+02  0.17287239238E+03  0.19496730437E+03  0.00000000000E+00 0. -1.
         -1    1    3    3    0  502  0.30672227820E+03  0.46505753521E+03  0.68532546309E+03  0.88319197084E+03  0.00000000000E+00 0.  1.
         11    1    5    5    0    0 -0.15559789821E+03 -0.22185864084E+03  0.18614832637E+03  0.32876003688E+03  0.00000000000E+00 0.  1.
        -11    1    5    5    0    0 -0.17378272278E+03 -0.31213814685E+03  0.35742458315E+03  0.50535432134E+03  0.00000000000E+00 0. -1.
          1    1    6    6  503    0 -0.26513628753E+02 -0.14733162930E+02 -0.31912293041E+03  0.32056120058E+03  0.00000000000E+00 0. -1.
         -1    1    6    6    0  503  0.12865778335E+02  0.11542594601E+01 -0.78824886927E+00  0.12941479952E+02  0.00000000000E+00 0.  1.
<mgrwt>
<rscale>  0 0.19680170E+04</rscale>
<asrwt>0</asrwt>
<pdfrwt beam="1">  1        2 0.25597199E+00 0.19680170E+04</pdfrwt>
<pdfrwt beam="2">  1       -2 0.89532057E-01 0.19680170E+04</pdfrwt>
<totfact> 0.10234805E+01</totfact>
</mgrwt>
</event>
<event>
12    2  0.3555611E-008  0.1804396E+04  0.7818608E-02  0.8703965E-01
          2   -1    0    0  501    0  0.00000000000E+00  0.00000000000E+00  0.23289724855E+04  0.23289724855E+04  0.00000000000E+00 0.  1.
         -2   -1    0    0    0  501 -0.00000000000E+00 -0.00000000000E+00 -0.34949356592E+03  0.34949356592E+03  0.00000000000E+00 0. -1.
         23    2    1    2    0    0 -0.24970506656E+03 -0.35246177286E+03 -0.20307895461E+02  0.44219759922E+03  0.92435840151E+02 0.  0.
        254    2    1    2    0    0  0.24970506656E+03  0.35246177286E+03  0.19997868151E+04  0.22362684522E+04  0.90286619336E+03 0.  0.
         23    2    4    4    0    0 -0.58530307562E+02  0.48980740896E+03  0.17100343632E+04  0.17821085655E+04  0.91412915933E+02 0.  0.
         23    2    4    4    0    0  0.30823537412E+03 -0.13734563610E+03  0.28975245188E+03  0.45415988672E+03  0.91825103967E+02 0.  0.
          2    1    3    3  502    0 -0.13853221312E+03 -0.26665403254E+03 -0.14103379500E+01  0.30049548448E+03  0.00000000000E+00 0. -1.
         -2    1    3    3    0  502 -0.11117285344E+03 -0.85807740319E+02 -0.18897557511E+02  0.14170211474E+03  0.00000000000E+00 0.  1.
         11    1    5    5    0    0  0.11570302961E+02  0.16861864055E+03  0.69038003113E+03  0.71076768725E+03  0.00000000000E+00 0.  1.
        -11    1    5    5    0    0 -0.70100610523E+02  0.32118876841E+03  0.10196543320E+04  0.10713408782E+04  0.00000000000E+00 0. -1.
          3    1    6    6  503    0  0.21391278435E+03 -0.60180468908E+02  0.22468187977E+03  0.31600999232E+03  0.00000000000E+00 0. -1.
         -3    1    6    6    0  503  0.94322589771E+02 -0.77165167191E+02  0.65070572110E+02  0.13814989440E+03  0.00000000000E+00 0.  1.
<mgrwt>
<rscale>  0 0.18043956E+04</rscale>
<asrwt>0</asrwt>
<pdfrwt beam="1">  1        2 0.35830345E+00 0.18043956E+04</pdfrwt>
<pdfrwt beam="2">  1       -2 0.53768243E-01 0.18043956E+04</pdfrwt>
<totfact> 0.13431701E+01</totfact>
</mgrwt>
</event>
<event>
12    2  0.3555611E-008  0.1212006E+04  0.7818608E-02  0.9102412E-01
         -2   -1    0    0    0  501 -0.00000000000E+00  0.00000000000E+00  0.28831915451E+03  0.28831915451E+03  0.00000000000E+00 0. -1.
          2   -1    0    0  501    0  0.00000000000E+00 -0.00000000000E+00 -0.12737259814E+04  0.12737259814E+04  0.00000000000E+00 0.  1.
         23    2    1    2    0    0  0.44729821481E+02  0.20420646361E+03 -0.44511137031E+03  0.50006181295E+03  0.90755980996E+02 0.  0.
        254    2    1    2    0    0 -0.44729821481E+02 -0.20420646361E+03 -0.54029545660E+03  0.10619833230E+04  0.89004963971E+03 0.  0.
         23    2    4    4    0    0  0.36224376216E+03 -0.27599436969E+03 -0.15065507540E+03  0.48660608395E+03  0.81823553279E+02 0.  0.
         23    2    4    4    0    0 -0.40697358364E+03  0.71787906079E+02 -0.38964038121E+03  0.57537723903E+03  0.91969230091E+02 0.  0.
          3    1    3    3  502    0 -0.21071437769E+02  0.31390760797E+02 -0.41700724343E+02  0.56287971751E+02  0.00000000000E+00 0. -1.
         -3    1    3    3    0  502  0.65801259250E+02  0.17281570282E+03 -0.40341064596E+03  0.44377384120E+03  0.00000000000E+00 0.  1.
         11    1    5    5    0    0  0.11835546701E+03 -0.68096335880E+02 -0.80615426858E+02  0.15856851698E+03  0.00000000000E+00 0.  1.
        -11    1    5    5    0    0  0.24388829515E+03 -0.20789803381E+03 -0.70039648537E+02  0.32803756697E+03  0.00000000000E+00 0. -1.
          2    1    6    6  503    0 -0.96723867952E+02  0.68142456298E+01 -0.14739682274E+03  0.17643062073E+03  0.00000000000E+00 0. -1.
         -2    1    6    6    0  503 -0.31024971568E+03  0.64973660449E+02 -0.24224355846E+03  0.39894661830E+03  0.00000000000E+00 0.  1.
<mgrwt>
<rscale>  0 0.12120059E+04</rscale>
<asrwt>0</asrwt>
<pdfrwt beam="1">  1        2 0.19595784E+00 0.12120059E+04</pdfrwt>
<pdfrwt beam="2">  1       -2 0.44356793E-01 0.12120059E+04</pdfrwt>
<totfact> 0.81357614E+01</totfact>
</mgrwt>
</event>
<event>
12    2  0.3555611E-008  0.1595275E+04  0.7818608E-02  0.8823456E-01
          2   -1    0    0  501    0  0.00000000000E+00  0.00000000000E+00  0.23968413189E+04  0.23968413189E+04  0.00000000000E+00 0.  1.
         -2   -1    0    0    0  501 -0.00000000000E+00 -0.00000000000E+00 -0.26544329402E+03  0.26544329402E+03  0.00000000000E+00 0. -1.
         23    2    1    2    0    0  0.33570010068E+03  0.41448610967E+03  0.90237055697E+03  0.10520387734E+04  0.89552587670E+02 0.  0.
        254    2    1    2    0    0 -0.33570010068E+03 -0.41448610967E+03  0.12290274679E+04  0.16102458395E+04  0.89324680468E+03 0.  0.
         23    2    4    4    0    0  0.20488512022E+03  0.11447474893E+03  0.16340571528E+03  0.30037998705E+03  0.91893025869E+02 0.  0.
         23    2    4    4    0    0 -0.54058522089E+03 -0.52896085861E+03  0.10656217526E+04  0.13098658525E+04  0.90370685428E+02 0.  0.
          4    1    3    3  502    0  0.19148516056E+03  0.27150003635E+03  0.48497858789E+03  0.58786313642E+03  0.00000000000E+00 0. -1.
         -4    1    3    3    0  502  0.14421494012E+03  0.14298607332E+03  0.41739196908E+03  0.46417563698E+03  0.00000000000E+00 0.  1.
         11    1    5    5    0    0  0.67695511200E+01  0.13959628568E+02  0.47164937937E+02  0.49651076753E+02  0.00000000000E+00 0. -1.
        -11    1    5    5    0    0  0.19811556910E+03  0.10051512036E+03  0.11624077734E+03  0.25072891030E+03  0.00000000000E+00 0.  1.
          4    1    6    6  503    0 -0.54249861727E+03 -0.52358007487E+03  0.10458112233E+04  0.12892486026E+04  0.00000000000E+00 0.  1.
         -4    1    6    6    0  503  0.19133963716E+01 -0.53807837383E+01  0.19810529354E+02  0.20617249880E+02  0.00000000000E+00 0. -1.
<mgrwt>
<rscale>  0 0.15952748E+04</rscale>
<asrwt>0</asrwt>
<pdfrwt beam="1">  1        2 0.36874480E+00 0.15952748E+04</pdfrwt>
<pdfrwt beam="2">  1       -2 0.40837431E-01 0.15952748E+04</pdfrwt>
<totfact> 0.21780963E+01</totfact>
</mgrwt>
</event>
<event>
12    2  0.3555611E-008  0.2944140E+04  0.7818608E-02  0.8259864E-01
         -2   -1    0    0    0  501 -0.00000000000E+00  0.00000000000E+00  0.88407579438E+03  0.88407579438E+03  0.00000000000E+00 0. -1.
          2   -1    0    0  501    0  0.00000000000E+00 -0.00000000000E+00 -0.24511358099E+04  0.24511358099E+04  0.00000000000E+00 0.  1.
         23    2    1    2    0    0 -0.98748024437E+03  0.83630891230E+03 -0.53520142616E+03  0.14030904733E+04  0.87706783716E+02 0.  0.
        254    2    1    2    0    0  0.98748024437E+03 -0.83630891230E+03 -0.10318585894E+04  0.19321211309E+04  0.99691027000E+03 0.  0.
         23    2    4    4    0    0  0.56697521121E+02 -0.51029705816E+03 -0.28227970237E+02  0.52227919465E+03  0.91438735750E+02 0.  0.
         23    2    4    4    0    0  0.93078272325E+03 -0.32601185414E+03 -0.10036306191E+04  0.14098419363E+04  0.87975330500E+02 0.  0.
          3    1    3    3  502    0 -0.91686120245E+03  0.79054235358E+03 -0.52002634101E+03  0.13175807652E+04  0.00000000000E+00 0. -1.
         -3    1    3    3    0  502 -0.70619041924E+02  0.45766558722E+02 -0.15175085143E+02  0.85509708154E+02  0.00000000000E+00 0.  1.
         11    1    5    5    0    0  0.44449581288E+02 -0.19290034510E+03 -0.49124519332E+02  0.20395962055E+03  0.00000000000E+00 0. -1.
        -11    1    5    5    0    0  0.12247939833E+02 -0.31739671306E+03  0.20896549094E+02  0.31831957410E+03  0.00000000000E+00 0.  1.
          4    1    6    6  503    0  0.19093234463E+03 -0.71012739485E+02 -0.26010146806E+03  0.33037969532E+03  0.00000000000E+00 0. -1.
         -4    1    6    6    0  503  0.73985037862E+03 -0.25499911466E+03 -0.74352915105E+03  0.10794622410E+04  0.00000000000E+00 0.  1.
<mgrwt>
<rscale>  0 0.29441398E+04</rscale>
<asrwt>0</asrwt>
<pdfrwt beam="1">  1        2 0.37709782E+00 0.29441398E+04</pdfrwt>
<pdfrwt beam="2">  1       -2 0.13601166E+00 0.29441398E+04</pdfrwt>
<totfact> 0.12363369E+00</totfact>
</mgrwt>
</event>
<event>
12    2  0.3555611E-008  0.1674869E+04  0.7818608E-02  0.8775829E-01
          1   -1    0    0  501    0  0.00000000000E+00  0.00000000000E+00  0.16697998727E+04  0.16697998727E+04  0.00000000000E+00 0. -1.
         -1   -1    0    0    0  501 -0.00000000000E+00 -0.00000000000E+00 -0.41998845717E+03  0.41998845717E+03  0.00000000000E+00 0.  1.
         23    2    1    2    0    0 -0.81204626015E+02 -0.37631376939E+03 -0.11630521794E+03  0.41232542669E+03  0.90989611816E+02 0.  0.
        254    2    1    2    0    0  0.81204626015E+02  0.37631376939E+03  0.13661166334E+04  0.16774629031E+04  0.89409221615E+03 0.  0.
         23    2    4    4    0    0  0.46686716958E+03  0.31835647201E+03  0.79150720104E+03  0.97689179915E+03  0.92293773615E+02 0.  0.
         23    2    4    4    0    0 -0.38566254356E+03  0.57957297375E+02  0.57460943238E+03  0.70057110399E+03  0.92353809547E+02 0.  0.
          4    1    3    3  502    0 -0.50850473451E+02 -0.33198372559E+03 -0.73923314075E+02  0.34389478198E+03  0.00000000000E+00 0. -1.
         -4    1    3    3    0  502 -0.30354152564E+02 -0.44330043799E+02 -0.42381903862E+02  0.68430644715E+02  0.00000000000E+00 0.  1.
         11    1    5    5    0    0  0.28071351031E+02  0.83393922877E+01  0.15739451864E+02  0.33245699833E+02  0.00000000000E+00 0. -1.
        -11    1    5    5    0    0  0.43879581855E+03  0.31001707973E+03  0.77576774917E+03  0.94364609932E+03  0.00000000000E+00 0.  1.
          2    1    6    6  503    0 -0.24303407822E+03  0.18268323575E+02  0.28261774392E+03  0.37319175232E+03  0.00000000000E+00 0. -1.
         -2    1    6    6    0  503 -0.14262846534E+03  0.39688973800E+02  0.29199168847E+03  0.32737935167E+03  0.00000000000E+00 0.  1.
<mgrwt>
<rscale>  0 0.16748692E+04</rscale>
<asrwt>0</asrwt>
<pdfrwt beam="1">  1        1 0.25689229E+00 0.16748692E+04</pdfrwt>
<pdfrwt beam="2">  1       -1 0.64613609E-01 0.16748692E+04</pdfrwt>
<totfact> 0.11575324E+01</totfact>
</mgrwt>
</event>
<event>
12    2  0.3555611E-008  0.2006327E+04  0.7818608E-02  0.8603668E-01
         -1   -1    0    0    0  501 -0.00000000000E+00  0.00000000000E+00  0.55113092626E+03  0.55113092626E+03  0.00000000000E+00 0.  1.
          1   -1    0    0  501    0  0.00000000000E+00 -0.00000000000E+00 -0.18259482983E+04  0.18259482983E+04  0.00000000000E+00 0. -1.
         23    2    1    2    0    0 -0.13918057002E+03 -0.12837991866E+03 -0.14333367249E+04  0.14486065703E+04  0.90300575211E+02 0.  0.
        254    2    1    2    0    0  0.13918057002E+03  0.12837991866E+03  0.15851935282E+03  0.92847265434E+03  0.89503097715E+03 0.  0.
         23    2    4    4    0    0  0.25505551268E+02  0.28548736959E+03  0.46469329289E+03  0.55336511142E+03  0.90108372219E+02 0.  0.
         23    2    4    4    0    0  0.11367501875E+03 -0.15710745093E+03 -0.30617394007E+03  0.37510754292E+03  0.96738958802E+02 0.  0.
          4    1    3    3  502    0 -0.74677940736E+02 -0.10511573151E+02 -0.51677853994E+03  0.52225218749E+03  0.00000000000E+00 0.  1.
         -4    1    3    3    0  502 -0.64502629284E+02 -0.11786834551E+03 -0.91655818495E+03  0.92635438276E+03  0.00000000000E+00 0. -1.
         11    1    5    5    0    0  0.65613226322E+01  0.23597293112E+03  0.42834408896E+03  0.48908581428E+03  0.00000000000E+00 0.  1.
        -11    1    5    5    0    0  0.18944228636E+02  0.49514438473E+02  0.36349203924E+02  0.64279297148E+02  0.00000000000E+00 0. -1.
          4    1    6    6  503    0  0.36342539960E+02  0.52877804593E+01 -0.56642611940E+02  0.67506490949E+02  0.00000000000E+00 0. -1.
         -4    1    6    6    0  503  0.77332478791E+02 -0.16239523139E+03 -0.24953132813E+03  0.30760105197E+03  0.00000000000E+00 0.  1.
<mgrwt>
<rscale>  0 0.20063266E+04</rscale>
<asrwt>0</asrwt>
<pdfrwt beam="1">  1        1 0.28091512E+00 0.20063266E+04</pdfrwt>
<pdfrwt beam="2">  1       -1 0.84789375E-01 0.20063266E+04</pdfrwt>
<totfact> 0.49917579E+00</totfact>
</mgrwt>
</event>
<event>
12    2  0.3555611E-008  0.1472407E+04  0.7818608E-02  0.8903012E-01
          1   -1    0    0  501    0  0.00000000000E+00  0.00000000000E+00  0.10860800458E+04  0.10860800458E+04  0.00000000000E+00 0. -1.
         -1   -1    0    0    0  501 -0.00000000000E+00 -0.00000000000E+00 -0.49903816804E+03  0.49903816804E+03  0.00000000000E+00 0.  1.
         23    2    1    2    0    0  0.17312495325E+03  0.32991331184E+02  0.63554900352E+03  0.66743853360E+03  0.10242549920E+03 0.  0.
        254    2    1    2    0    0 -0.17312495325E+03 -0.32991331184E+02 -0.48507125761E+02  0.91767968024E+03  0.89928992928E+03 0.  0.
         23    2    4    4    0    0 -0.36596774773E+02  0.22101060076E+03 -0.39190498431E+03  0.46003425535E+03  0.88639662641E+02 0.  0.
         23    2    4    4    0    0 -0.13652817848E+03 -0.25400193194E+03  0.34339785855E+03  0.45764542489E+03  0.91434789416E+02 0.  0.
          2    1    3    3  502    0  0.15260703117E+03 -0.13312718646E+02  0.47486173738E+03  0.49895871980E+03  0.00000000000E+00 0. -1.
         -2    1    3    3    0  502  0.20517922084E+02  0.46304049830E+02  0.16068726614E+03  0.16847981380E+03  0.00000000000E+00 0.  1.
         11    1    5    5    0    0 -0.47126566177E+02  0.21887026466E+03 -0.38912422370E+03  0.44893514839E+03  0.00000000000E+00 0.  1.
        -11    1    5    5    0    0  0.10529791404E+02  0.21403360989E+01 -0.27807606121E+01  0.11099106955E+02  0.00000000000E+00 0. -1.
          2    1    6    6  503    0 -0.14097314536E+03 -0.20942579878E+03  0.25658715991E+03  0.35995772465E+03  0.00000000000E+00 0. -1.
         -2    1    6    6    0  503  0.44449668848E+01 -0.44576133160E+02  0.86810698644E+02  0.97687700235E+02  0.00000000000E+00 0.  1.
<mgrwt>
<rscale>  0 0.14724067E+04</rscale>
<asrwt>0</asrwt>
<pdfrwt beam="1">  1        1 0.16708924E+00 0.14724067E+04</pdfrwt>
<pdfrwt beam="2">  1       -1 0.76775103E-01 0.14724067E+04</pdfrwt>
<totfact> 0.21439028E+01</totfact>
</mgrwt>
</event>
<event>
12    2  0.3555611E-008  0.2210500E+04  0.7818608E-02  0.8514071E-01
          2   -1    0    0  501    0  0.00000000000E+00  0.00000000000E+00  0.83788114459E+03  0.83788114459E+03  0.00000000000E+00 0. -1.
         -2   -1    0    0    0  501 -0.00000000000E+00 -0.00000000000E+00 -0.14579364435E+04  0.14579364435E+04  0.00000000000E+00 0.  1.
         23    2    1    2    0    0 -0.69531818747E+02 -0.91768939271E+03 -0.24333619001E+03  0.95641020919E+03  0.92301091881E+02 0.  0.
        254    2    1    2    0    0  0.69531818747E+02  0.91768939271E+03 -0.37671910894E+03  0.13394073790E+04  0.89727718373E+03 0.  0.
         23    2    4    4    0    0 -0.35942285199E+02 -0.42586526627E+02  0.18947893323E+03  0.21536082815E+03  0.85863613061E+02 0.  0.
         23    2    4    4    0    0  0.10547410395E+03  0.96027591934E+03 -0.56619804216E+03  0.11240465508E+04  0.98213021380E+02 0.  0.
          3    1    3    3  502    0 -0.10473920830E+02 -0.50440224733E+02 -0.35761749988E+02  0.62712216121E+02  0.00000000000E+00 0. -1.
         -3    1    3    3    0  502 -0.59057897918E+02 -0.86724916798E+03 -0.20757444003E+03  0.89369799307E+03  0.00000000000E+00 0.  1.
         11    1    5    5    0    0  0.19094724221E+02 -0.70872749897E+01  0.70844397546E+01  0.21564490406E+02  0.00000000000E+00 0. -1.
        -11    1    5    5    0    0 -0.55037009419E+02 -0.35499251637E+02  0.18239449347E+03  0.19379633774E+03  0.00000000000E+00 0.  1.
          4    1    6    6  503    0  0.66012603086E+02  0.85868856208E+03 -0.48757006722E+03  0.98966068976E+03  0.00000000000E+00 0. -1.
         -4    1    6    6    0  503  0.39461500859E+02  0.10158735726E+03 -0.78627974949E+02  0.13438586105E+03  0.00000000000E+00 0.  1.
<mgrwt>
<rscale>  0 0.22104999E+04</rscale>
<asrwt>0</asrwt>
<pdfrwt beam="1">  1        2 0.12890479E+00 0.22104999E+04</pdfrwt>
<pdfrwt beam="2">  1       -2 0.22429791E+00 0.22104999E+04</pdfrwt>
<totfact> 0.27433984E+00</totfact>
</mgrwt>
</event>
<event>
12    2  0.3555611E-008  0.1532453E+04  0.7818608E-02  0.8863154E-01
          2   -1    0    0  501    0  0.00000000000E+00  0.00000000000E+00  0.23336277547E+04  0.23336277547E+04  0.00000000000E+00 0.  1.
         -2   -1    0    0    0  501 -0.00000000000E+00 -0.00000000000E+00 -0.25158376576E+03  0.25158376576E+03  0.00000000000E+00 0. -1.
         23    2    1    2    0    0 -0.23891028709E+03  0.33203771576E+03  0.45090514106E+03  0.61519042931E+03  0.88411809836E+02 0.  0.
        254    2    1    2    0    0  0.23891028709E+03 -0.33203771576E+03  0.16311388478E+04  0.19700210911E+04  0.10261783415E+04 0.  0.
         23    2    4    4    0    0  0.24659985503E+02 -0.66686028366E+03  0.81377639232E+03  0.10563567679E+04  0.91361105709E+02 0.  0.
         23    2    4    4    0    0  0.21425030159E+03  0.33482256790E+03  0.81736245551E+03  0.91366432318E+03  0.93229652345E+02 0.  0.
          1    1    3    3  502    0 -0.26978719361E+02  0.69363867251E+02  0.43738828771E+02  0.86326603783E+02  0.00000000000E+00 0. -1.
         -1    1    3    3    0  502 -0.21193156773E+03  0.26267384851E+03  0.40716631229E+03  0.52886382553E+03  0.00000000000E+00 0.  1.
         11    1    5    5    0    0  0.43058196035E+01 -0.11129225047E+03  0.86987072819E+02  0.14131969408E+03  0.00000000000E+00 0.  1.
        -11    1    5    5    0    0  0.20354165900E+02 -0.55556803319E+03  0.72678931950E+03  0.91503707384E+03  0.00000000000E+00 0. -1.
          1    1    6    6  503    0  0.20068806490E+03  0.32801873621E+03  0.73094870459E+03  0.82592856800E+03  0.00000000000E+00 0. -1.
         -1    1    6    6    0  503  0.13562236692E+02  0.68038316897E+01  0.86413750916E+02  0.87735755180E+02  0.00000000000E+00 0.  1.
<mgrwt>
<rscale>  0 0.15324528E+04</rscale>
<asrwt>0</asrwt>
<pdfrwt beam="1">  1        2 0.35901964E+00 0.15324528E+04</pdfrwt>
<pdfrwt beam="2">  1       -2 0.38705196E-01 0.15324528E+04</pdfrwt>
<totfact> 0.26414910E+01</totfact>
</mgrwt>
</event>
<event>
12    2  0.3555611E-008  0.1290416E+04  0.7818608E-02  0.9037200E-01
         -2   -1    0    0    0  501 -0.00000000000E+00  0.00000000000E+00  0.11822467044E+04  0.11822467044E+04  0.00000000000E+00 0. -1.
          2   -1    0    0  501    0  0.00000000000E+00 -0.00000000000E+00 -0.35212070774E+03  0.35212070774E+03  0.00000000000E+00 0.  1.
         23    2    1    2    0    0 -0.72305336381E+02 -0.28996666738E+03  0.25902507860E+03  0.40583181747E+03  0.91086458196E+02 0.  0.
        254    2    1    2    0    0  0.72305336381E+02  0.28996666738E+03  0.57110091810E+03  0.11285355947E+04  0.92635176906E+03 0.  0.
         23    2    4    4    0    0  0.14200238375E+03  0.25520369004E+02  0.76252762499E+03  0.78183052633E+03  0.94840006342E+02 0.  0.
         23    2    4    4    0    0 -0.69697047368E+02  0.26444629837E+03 -0.19142670689E+03  0.34670506839E+03  0.93652000536E+02 0.  0.
          3    1    3    3  502    0 -0.36336649959E+02 -0.66214586680E+02  0.23782290688E+02  0.79185358305E+02  0.00000000000E+00 0.  1.
         -3    1    3    3    0  502 -0.35968686422E+02 -0.22375208070E+03  0.23524278791E+03  0.32664645916E+03  0.00000000000E+00 0. -1.
         11    1    5    5    0    0  0.10962454908E+03  0.17189636580E+02  0.33295245193E+03  0.35095635144E+03  0.00000000000E+00 0.  1.
        -11    1    5    5    0    0  0.32377834667E+02  0.83307324233E+01  0.42957517306E+03  0.43087417489E+03  0.00000000000E+00 0. -1.
          4    1    6    6  503    0 -0.22067246278E+02  0.18038437879E+03 -0.16754909813E+03  0.24718047607E+03  0.00000000000E+00 0. -1.
         -4    1    6    6    0  503 -0.47629801089E+02  0.84061919586E+02 -0.23877608761E+02  0.99524592320E+02  0.00000000000E+00 0.  1.
<mgrwt>
<rscale>  0 0.12904163E+04</rscale>
<asrwt>0</asrwt>
<pdfrwt beam="1">  1        2 0.54172417E-01 0.12904163E+04</pdfrwt>
<pdfrwt beam="2">  1       -2 0.18188411E+00 0.12904163E+04</pdfrwt>
<totfact> 0.15824604E+01</totfact>
</mgrwt>
</event>
<event>
12    2  0.3555611E-008  0.1690865E+04  0.7818608E-02  0.8766592E-01
         -4   -1    0    0    0  501 -0.00000000000E+00  0.00000000000E+00  0.59490214077E+03  0.59490214077E+03  0.00000000000E+00 0.  1.
          4   -1    0    0  501    0  0.00000000000E+00 -0.00000000000E+00 -0.12014683351E+04  0.12014683351E+04  0.00000000000E+00 0. -1.
         23    2    1    2    0    0  0.26416737961E+01 -0.48709192671E+03 -0.59209218478E+03  0.77303805857E+03  0.98737840832E+02 0.  0.
        254    2    1    2    0    0 -0.26416737961E+01  0.48709192671E+03 -0.14474009546E+02  0.10233324173E+04  0.89985233001E+03 0.  0.
         23    2    4    4    0    0 -0.11534751610E+02  0.25359134540E+03  0.43347203095E+03  0.51034318547E+03  0.90058560851E+02 0.  0.
         23    2    4    4    0    0  0.88930778137E+01  0.23350058131E+03 -0.44794604050E+03  0.51298923183E+03  0.88885817032E+02 0.  0.
          2    1    3    3  502    0  0.47359832747E+02 -0.22561868142E+03 -0.24862539054E+03  0.33905947559E+03  0.00000000000E+00 0. -1.
         -2    1    3    3    0  502 -0.44718158951E+02 -0.26147324528E+03 -0.34346679424E+03  0.43397858298E+03  0.00000000000E+00 0.  1.
         11    1    5    5    0    0  0.55751059568E+01  0.17374771535E+03  0.36301658668E+03  0.40249272366E+03  0.00000000000E+00 0.  1.
        -11    1    5    5    0    0 -0.17109857567E+02  0.79843630043E+02  0.70455444275E+02  0.10785046181E+03  0.00000000000E+00 0. -1.
          4    1    6    6  503    0  0.13546758201E+02 -0.45025195287E+00 -0.11513483847E+02  0.17784197898E+02  0.00000000000E+00 0. -1.
         -4    1    6    6    0  503 -0.46536803873E+01  0.23395083326E+03 -0.43643255665E+03  0.49520503393E+03  0.00000000000E+00 0.  1.
<mgrwt>
<rscale>  0 0.16908650E+04</rscale>
<asrwt>0</asrwt>
<pdfrwt beam="1">  1        4 0.18484128E+00 0.16908650E+04</pdfrwt>
<pdfrwt beam="2">  1       -4 0.91523408E-01 0.16908650E+04</pdfrwt>
<totfact> 0.32265365E-01</totfact>
</mgrwt>
</event>
<event>
12    2  0.3555611E-008  0.1131190E+04  0.7818608E-02  0.9175314E-01
          2   -1    0    0  501    0  0.00000000000E+00  0.00000000000E+00  0.20805171576E+04  0.20805171576E+04  0.00000000000E+00 0. -1.
         -2   -1    0    0    0  501 -0.00000000000E+00 -0.00000000000E+00 -0.15375883614E+03  0.15375883614E+03  0.00000000000E+00 0.  1.
         23    2    1    2    0    0 -0.19920351260E+03  0.53758395006E+02  0.30583341816E+03  0.37987626822E+03  0.90553271768E+02 0.  0.
        254    2    1    2    0    0  0.19920351260E+03 -0.53758395006E+02  0.16209249033E+04  0.18543997256E+04  0.87682882902E+03 0.  0.
         23    2    4    4    0    0  0.17494562331E+03 -0.21657647319E+03  0.16391690400E+04  0.16651925135E+04  0.92084882229E+02 0.  0.
         23    2    4    4    0    0  0.24257889298E+02  0.16281807819E+03 -0.18244136677E+02  0.18920721202E+03  0.91478679371E+02 0.  0.
          3    1    3    3  502    0 -0.13618812098E+02 -0.19131104543E+01 -0.41111386206E+01  0.14353866912E+02  0.00000000000E+00 0. -1.
         -3    1    3    3    0  502 -0.18558470051E+03  0.55671505460E+02  0.30994455678E+03  0.36552240131E+03  0.00000000000E+00 0.  1.
         11    1    5    5    0    0  0.99096708594E+02 -0.18366004725E+03  0.12542728787E+04  0.12715154835E+04  0.00000000000E+00 0. -1.
        -11    1    5    5    0    0  0.75848914713E+02 -0.32916425946E+02  0.38489616130E+03  0.39367702999E+03  0.00000000000E+00 0.  1.
          2    1    6    6  503    0  0.57688825150E+02  0.78483306238E+02 -0.50692678668E+01  0.97536287513E+02  0.00000000000E+00 0. -1.
         -2    1    6    6    0  503 -0.33430935852E+02  0.84334771948E+02 -0.13174868810E+02  0.91670924505E+02  0.00000000000E+00 0.  1.
<mgrwt>
<rscale>  0 0.11311903E+04</rscale>
<asrwt>0</asrwt>
<pdfrwt beam="1">  1        2 0.32007954E+00 0.11311903E+04</pdfrwt>
<pdfrwt beam="2">  1       -2 0.23655207E-01 0.11311903E+04</pdfrwt>
<totfact> 0.94915667E+01</totfact>
</mgrwt>
</event>
<event>
12    2  0.3555611E-008  0.1726937E+04  0.7818608E-02  0.8746148E-01
          1   -1    0    0  501    0  0.00000000000E+00  0.00000000000E+00  0.10524807185E+04  0.10524807185E+04  0.00000000000E+00 0. -1.
         -1   -1    0    0    0  501 -0.00000000000E+00 -0.00000000000E+00 -0.70840073627E+03  0.70840073627E+03  0.00000000000E+00 0.  1.
         23    2    1    2    0    0 -0.10722148339E+03 -0.47855868397E+03 -0.25757046453E+03  0.56203064724E+03  0.94979175286E+02 0.  0.
        254    2    1    2    0    0  0.10722148339E+03  0.47855868397E+03  0.60165044673E+03  0.11988508075E+04  0.91364387926E+03 0.  0.
         23    2    4    4    0    0 -0.32830898365E+02  0.35692211308E+03 -0.16523351669E+03  0.40408740542E+03  0.86679025650E+02 0.  0.
         23    2    4    4    0    0  0.14005238176E+03  0.12163657089E+03  0.76688396342E+03  0.79476340208E+03  0.95539138221E+02 0.  0.
          2    1    3    3  502    0 -0.46513770273E+01 -0.30902216794E+02 -0.47859690268E+02  0.57158833644E+02  0.00000000000E+00 0. -1.
         -2    1    3    3    0  502 -0.10257010637E+03 -0.44765646718E+03 -0.20971077426E+03  0.50487181360E+03  0.00000000000E+00 0.  1.
         11    1    5    5    0    0 -0.19841857962E+02  0.33778493848E+03 -0.17255711826E+03  0.37982670135E+03  0.00000000000E+00 0.  1.
        -11    1    5    5    0    0 -0.12989040403E+02  0.19137174600E+02  0.73236015708E+01  0.24260704075E+02  0.00000000000E+00 0. -1.
          4    1    6    6  503    0 -0.10240650284E+02  0.96600541684E+01  0.13326348248E+03  0.13400501233E+03  0.00000000000E+00 0. -1.
         -4    1    6    6    0  503  0.15029303204E+03  0.11197651672E+03  0.63362048093E+03  0.66075838976E+03  0.00000000000E+00 0.  1.
<mgrwt>
<rscale>  0 0.17269373E+04</rscale>
<asrwt>0</asrwt>
<pdfrwt beam="1">  1        1 0.16192011E+00 0.17269373E+04</pdfrwt>
<pdfrwt beam="2">  1       -1 0.10898473E+00 0.17269373E+04</pdfrwt>
<totfact> 0.10207402E+01</totfact>
</mgrwt>
</event>
<event>
12    2  0.3555611E-008  0.1996096E+04  0.7818608E-02  0.8608448E-01
         -2   -1    0    0    0  501 -0.00000000000E+00  0.00000000000E+00  0.50970121608E+03  0.50970121608E+03  0.00000000000E+00 0. -1.
          2   -1    0    0  501    0  0.00000000000E+00 -0.00000000000E+00 -0.19542817377E+04  0.19542817377E+04  0.00000000000E+00 0.  1.
         23    2    1    2    0    0 -0.15014586102E+03 -0.70329886788E+03 -0.94110225059E+03  0.11879527121E+04  0.91570317734E+02 0.  0.
        254    2    1    2    0    0  0.15014586102E+03  0.70329886788E+03 -0.50347827100E+03  0.12760302416E+04  0.92606140777E+03 0.  0.
         23    2    4    4    0    0 -0.62020316379E+02 -0.18009849197E+03 -0.25557646147E+03  0.33026992064E+03  0.86469106438E+02 0.  0.
         23    2    4    4    0    0  0.21216617740E+03  0.88339735985E+03 -0.24790180953E+03  0.94576032096E+03  0.87188848575E+02 0.  0.
          3    1    3    3  502    0 -0.10991616831E+03 -0.31655878803E+03 -0.40418470589E+03  0.52502981516E+03  0.00000000000E+00 0. -1.
         -3    1    3    3    0  502 -0.40229692705E+02 -0.38674007985E+03 -0.53691754471E+03  0.66292289699E+03  0.00000000000E+00 0.  1.
         11    1    5    5    0    0 -0.69062135609E+02 -0.13216101393E+03 -0.23343590609E+03  0.27699897911E+03  0.00000000000E+00 0.  1.
        -11    1    5    5    0    0  0.70418192305E+01 -0.47937478034E+02 -0.22140555383E+02  0.53270941525E+02  0.00000000000E+00 0. -1.
          1    1    6    6  503    0  0.60458538916E+02  0.21784053690E+03 -0.10046201144E+03  0.24739108753E+03  0.00000000000E+00 0. -1.
         -1    1    6    6    0  503  0.15170763848E+03  0.66555682295E+03 -0.14743979809E+03  0.69836923343E+03  0.00000000000E+00 0.  1.
<mgrwt>
<rscale>  0 0.19960960E+04</rscale>
<asrwt>0</asrwt>
<pdfrwt beam="1">  1        2 0.30065873E+00 0.19960960E+04</pdfrwt>
<pdfrwt beam="2">  1       -2 0.78415572E-01 0.19960960E+04</pdfrwt>
<totfact> 0.95179482E+00</totfact>
</mgrwt>
</event>
<event>
12    2  0.3555611E-008  0.2130120E+04  0.7818608E-02  0.8548090E-01
          3   -1    0    0  501    0  0.00000000000E+00  0.00000000000E+00  0.56282166286E+03  0.56282166286E+03  0.00000000000E+00 0. -1.
         -3   -1    0    0    0  501 -0.00000000000E+00 -0.00000000000E+00 -0.20154749264E+04  0.20154749264E+04  0.00000000000E+00 0.  1.
         23    2    1    2    0    0 -0.82030477234E+03 -0.27255537252E+03 -0.47100846179E+03  0.99139989465E+03  0.11763685395E+03 0.  0.
        254    2    1    2    0    0  0.82030477234E+03  0.27255537252E+03 -0.98164480177E+03  0.15868966946E+04  0.89857011522E+03 0.  0.
         23    2    4    4    0    0  0.97014175115E+03  0.34480869392E+03 -0.70162986749E+03  0.12492044568E+04  0.90328573927E+02 0.  0.
         23    2    4    4    0    0 -0.14983697881E+03 -0.72253321402E+02 -0.28001493428E+03  0.33769223781E+03  0.89196532337E+02 0.  0.
          2    1    3    3  502    0 -0.46985744138E+03 -0.12735272075E+03 -0.32294367032E+03  0.58418947689E+03  0.00000000000E+00 0.  1.
         -2    1    3    3    0  502 -0.35044733096E+03 -0.14520265177E+03 -0.14806479147E+03  0.40721041776E+03  0.00000000000E+00 0. -1.
         11    1    5    5    0    0  0.19534425044E+03  0.94713755389E+02 -0.11464806636E+03  0.24550814806E+03  0.00000000000E+00 0. -1.
        -11    1    5    5    0    0  0.77479750071E+03  0.25009493853E+03 -0.58698180112E+03  0.10036963088E+04  0.00000000000E+00 0.  1.
          4    1    6    6  503    0 -0.11653263058E+02 -0.28264973073E+02 -0.11030366765E+03  0.11446224854E+03  0.00000000000E+00 0. -1.
         -4    1    6    6    0  503 -0.13818371575E+03 -0.43988348329E+02 -0.16971126663E+03  0.22322998927E+03  0.00000000000E+00 0.  1.
<mgrwt>
<rscale>  0 0.21301201E+04</rscale>
<asrwt>0</asrwt>
<pdfrwt beam="1">  1        3 0.86587949E-01 0.21301201E+04</pdfrwt>
<pdfrwt beam="2">  1       -3 0.31007306E+00 0.21301201E+04</pdfrwt>
<totfact> 0.97675356E-02</totfact>
</mgrwt>
</event>
<event>
12    2  0.3555611E-008  0.1480312E+04  0.7818608E-02  0.8897652E-01
          1   -1    0    0  501    0  0.00000000000E+00  0.00000000000E+00  0.63581467145E+03  0.63581467145E+03  0.00000000000E+00 0. -1.
         -1   -1    0    0    0  501 -0.00000000000E+00 -0.00000000000E+00 -0.86162038471E+03  0.86162038471E+03  0.00000000000E+00 0.  1.
         23    2    1    2    0    0 -0.27883056939E+03 -0.33706035542E+03  0.52083282909E+02  0.44957832499E+03  0.89732002772E+02 0.  0.
        254    2    1    2    0    0  0.27883056939E+03  0.33706035542E+03 -0.27788899617E+03  0.10478567312E+04  0.91072787661E+03 0.  0.
         23    2    4    4    0    0 -0.66294050152E+02  0.20061620116E+03  0.28652737238E+03  0.36626578009E+03  0.86086731201E+02 0.  0.
         23    2    4    4    0    0  0.34512461954E+03  0.13644415426E+03 -0.56441636855E+03  0.68159095107E+03  0.90952609903E+02 0.  0.
          3    1    3    3  502    0 -0.25212099811E+03 -0.33243581064E+03  0.59565365194E+02  0.42145770679E+03  0.00000000000E+00 0. -1.
         -3    1    3    3    0  502 -0.26709571286E+02 -0.46245447770E+01 -0.74820822848E+01  0.28120618200E+02  0.00000000000E+00 0.  1.
         11    1    5    5    0    0 -0.85554031805E+02  0.13644654642E+03  0.20730220433E+03  0.26250972612E+03  0.00000000000E+00 0. -1.
        -11    1    5    5    0    0  0.19259981654E+02  0.64169654740E+02  0.79225168053E+02  0.10375605397E+03  0.00000000000E+00 0.  1.
          3    1    6    6  503    0  0.19276207671E+03  0.70846926072E+02 -0.23034876640E+03  0.30860502157E+03  0.00000000000E+00 0. -1.
         -3    1    6    6    0  503  0.15236254283E+03  0.65597228188E+02 -0.33406760215E+03  0.37298592951E+03  0.00000000000E+00 0.  1.
<mgrwt>
<rscale>  0 0.14803120E+04</rscale>
<asrwt>0</asrwt>
<pdfrwt beam="1">  1        1 0.97817642E-01 0.14803120E+04</pdfrwt>
<pdfrwt beam="2">  1       -1 0.13255698E+00 0.14803120E+04</pdfrwt>
<totfact> 0.14719072E+01</totfact>
</mgrwt>
</event>
<event>
12    2  0.3555611E-008  0.1778908E+04  0.7818608E-02  0.8717597E-01
          1   -1    0    0  501    0  0.00000000000E+00  0.00000000000E+00  0.94421861630E+03  0.94421861630E+03  0.00000000000E+00 0. -1.
         -1   -1    0    0    0  501 -0.00000000000E+00 -0.00000000000E+00 -0.83786553308E+03  0.83786553308E+03  0.00000000000E+00 0.  1.
         23    2    1    2    0    0 -0.11014608419E+03 -0.28530958824E+03  0.66843970509E+03  0.74071722912E+03  0.91195686113E+02 0.  0.
        254    2    1    2    0    0  0.11014608419E+03  0.28530958824E+03 -0.56208662186E+03  0.10413669203E+04  0.82156556107E+03 0.  0.
         23    2    4    4    0    0 -0.28863060277E+03 -0.45856031930E+02 -0.54538256691E+02  0.31011035716E+03  0.88224779140E+02 0.  0.
         23    2    4    4    0    0  0.39877668696E+03  0.33116562017E+03 -0.50754836517E+03  0.73125656311E+03  0.91854798780E+02 0.  0.
          4    1    3    3  502    0 -0.93839289985E+02 -0.25414840972E+03  0.64167020391E+03  0.69651839681E+03  0.00000000000E+00 0. -1.
         -4    1    3    3    0  502 -0.16306794206E+02 -0.31161178519E+02  0.26769501183E+02  0.44198832310E+02  0.00000000000E+00 0.  1.
         11    1    5    5    0    0 -0.59742081998E+02  0.35404800626E+01 -0.46544682292E+02  0.75815953534E+02  0.00000000000E+00 0. -1.
        -11    1    5    5    0    0 -0.22888852077E+03 -0.49396511993E+02 -0.79935743985E+01  0.23429440362E+03  0.00000000000E+00 0.  1.
          4    1    6    6  503    0  0.34835743644E+03  0.27867939050E+03 -0.38768930734E+03  0.59103139108E+03  0.00000000000E+00 0. -1.
         -4    1    6    6    0  503  0.50419250522E+02  0.52486229671E+02 -0.11985905783E+03  0.14022517203E+03  0.00000000000E+00 0.  1.
<mgrwt>
<rscale>  0 0.17789078E+04</rscale>
<asrwt>0</asrwt>
<pdfrwt beam="1">  1        1 0.14526440E+00 0.17789078E+04</pdfrwt>
<pdfrwt beam="2">  1       -1 0.12890239E+00 0.17789078E+04</pdfrwt>
<totfact> 0.82065013E+00</totfact>
</mgrwt>
</event>
<event>
12    2  0.3555611E-008  0.1328752E+04  0.7818608E-02  0.9007070E-01
         -1   -1    0    0    0  501 -0.00000000000E+00  0.00000000000E+00  0.20700003814E+03  0.20700003814E+03  0.00000000000E+00 0.  1.
          1   -1    0    0  501    0  0.00000000000E+00 -0.00000000000E+00 -0.21323459356E+04  0.21323459356E+04  0.00000000000E+00 0. -1.
         23    2    1    2    0    0 -0.96992819693E+02  0.18094852053E+03 -0.18268718538E+02  0.22577889282E+03  0.92154154622E+02 0.  0.
        254    2    1    2    0    0  0.96992819693E+02 -0.18094852053E+03 -0.19070771789E+04  0.21135670809E+04  0.88773445638E+03 0.  0.
         23    2    4    4    0    0  0.38943732854E+03  0.27832653402E+02 -0.41492113095E+03  0.57608555273E+03  0.85316643758E+02 0.  0.
         23    2    4    4    0    0 -0.29244450885E+03 -0.20878117393E+03 -0.14921560479E+04  0.15374815282E+04  0.90589230463E+02 0.  0.
          2    1    3    3  502    0 -0.21108977303E+02 -0.68468322698E+01 -0.53058657629E+01  0.22817104251E+02  0.00000000000E+00 0. -1.
         -2    1    3    3    0  502 -0.75883842390E+02  0.18779535280E+03 -0.12962852775E+02  0.20296178857E+03  0.00000000000E+00 0.  1.
         11    1    5    5    0    0  0.55246520201E+02  0.32968371834E+02 -0.83321892429E+02  0.10526931791E+03  0.00000000000E+00 0.  1.
        -11    1    5    5    0    0  0.33419080834E+03 -0.51357184329E+01 -0.33159923852E+03  0.47081623482E+03  0.00000000000E+00 0. -1.
          2    1    6    6  503    0 -0.52911967582E+02 -0.20069009345E+02 -0.38349580144E+03  0.38764864397E+03  0.00000000000E+00 0. -1.
         -2    1    6    6    0  503 -0.23953254127E+03 -0.18871216459E+03 -0.11086602465E+04  0.11498328842E+04  0.00000000000E+00 0.  1.
<mgrwt>
<rscale>  0 0.13287523E+04</rscale>
<asrwt>0</asrwt>
<pdfrwt beam="1">  1        1 0.32805323E+00 0.13287523E+04</pdfrwt>
<pdfrwt beam="2">  1       -1 0.31846159E-01 0.13287523E+04</pdfrwt>
<totfact> 0.21850260E+01</totfact>
</mgrwt>
</event>
<event>
12    2  0.3555611E-008  0.1405892E+04  0.7818608E-02  0.8949564E-01
          1   -1    0    0  501    0  0.00000000000E+00  0.00000000000E+00  0.23740110459E+04  0.23740110459E+04  0.00000000000E+00 0. -1.
         -1   -1    0    0    0  501 -0.00000000000E+00 -0.00000000000E+00 -0.20814280038E+03  0.20814280038E+03  0.00000000000E+00 0.  1.
         23    2    1    2    0    0  0.21762119485E+03  0.93212937709E+01  0.11951403640E+04  0.12183824842E+04  0.93002780497E+02 0.  0.
        254    2    1    2    0    0 -0.21762119485E+03 -0.93212937709E+01  0.97072788152E+03  0.13637713621E+04  0.93279892641E+03 0.  0.
         23    2    4    4    0    0  0.15356327419E+03 -0.33084638806E+03  0.15495139192E+03  0.40739334762E+03  0.94437249834E+02 0.  0.
         23    2    4    4    0    0 -0.37118446904E+03  0.32152509429E+03  0.81577648960E+03  0.95637801446E+03  0.89506029136E+02 0.  0.
          2    1    3    3  502    0  0.86411808313E+02 -0.57910972884E+01  0.72124412638E+03  0.72642523859E+03  0.00000000000E+00 0. -1.
         -2    1    3    3    0  502  0.13120938653E+03  0.15112391059E+02  0.47389623764E+03  0.49195724563E+03  0.00000000000E+00 0.  1.
         11    1    5    5    0    0  0.56835635266E+02 -0.21762547431E+03  0.68122474143E+02  0.23501448463E+03  0.00000000000E+00 0.  1.
        -11    1    5    5    0    0  0.96727638925E+02 -0.11322091375E+03  0.86828917779E+02  0.17237886299E+03  0.00000000000E+00 0. -1.
          1    1    6    6  503    0 -0.39217885681E+02  0.72442750604E+01  0.44074277264E+02  0.59439582728E+02  0.00000000000E+00 0. -1.
         -1    1    6    6    0  503 -0.33196658336E+03  0.31428081923E+03  0.77170221233E+03  0.89693843173E+03  0.00000000000E+00 0.  1.
<mgrwt>
<rscale>  0 0.14058923E+04</rscale>
<asrwt>0</asrwt>
<pdfrwt beam="1">  1        1 0.36523245E+00 0.14058923E+04</pdfrwt>
<pdfrwt beam="2">  1       -1 0.32021971E-01 0.14058923E+04</pdfrwt>
<totfact> 0.14712462E+01</totfact>
</mgrwt>
</event>
<event>
12    2  0.3555611E-008  0.1672505E+04  0.7818608E-02  0.8777203E-01
          2   -1    0    0  501    0  0.00000000000E+00  0.00000000000E+00  0.13315192660E+04  0.13315192660E+04  0.00000000000E+00 0.  1.
         -2   -1    0    0    0  501 -0.00000000000E+00 -0.00000000000E+00 -0.52520298286E+03  0.52520298286E+03  0.00000000000E+00 0. -1.
         23    2    1    2    0    0  0.43039356940E+03  0.60612041380E+02 -0.13630733898E+03  0.46540064051E+03  0.95423379662E+02 0.  0.
        254    2    1    2    0    0 -0.43039356940E+03 -0.60612041380E+02  0.94262362213E+03  0.13913216084E+04  0.92645781379E+03 0.  0.
         23    2    4    4    0    0 -0.57396349311E+03 -0.22965028682E+03  0.96580463938E+03  0.11503188847E+04  0.91003238442E+02 0.  0.
         23    2    4    4    0    0  0.14356992371E+03  0.16903824544E+03 -0.23181017259E+02  0.24100272364E+03  0.91425936301E+02 0.  0.
          1    1    3    3  502    0  0.33321033017E+03  0.70113760288E+02 -0.70724931192E+02  0.34777446630E+03  0.00000000000E+00 0. -1.
         -1    1    3    3    0  502  0.97183239230E+02 -0.95017189072E+01 -0.65582407789E+02  0.11762617422E+03  0.00000000000E+00 0.  1.
         11    1    5    5    0    0 -0.55972571051E+03 -0.20691413953E+03  0.90727999635E+03  0.10859389135E+04  0.00000000000E+00 0.  1.
        -11    1    5    5    0    0 -0.14237782601E+02 -0.22736147288E+02  0.58524643033E+02  0.64379971179E+02  0.00000000000E+00 0. -1.
          1    1    6    6  503    0  0.40876785601E+02  0.97973002174E+02 -0.43035290364E+02  0.11454980128E+03  0.00000000000E+00 0. -1.
         -1    1    6    6    0  503  0.10269313811E+03  0.71065243262E+02  0.19854273105E+02  0.12645292236E+03  0.00000000000E+00 0.  1.
<mgrwt>
<rscale>  0 0.16725046E+04</rscale>
<asrwt>0</asrwt>
<pdfrwt beam="1">  1        2 0.20484912E+00 0.16725046E+04</pdfrwt>
<pdfrwt beam="2">  1       -2 0.80800460E-01 0.16725046E+04</pdfrwt>
<totfact> 0.20427448E+01</totfact>
</mgrwt>
</event>
<event>
12    2  0.3555611E-008  0.2728063E+04  0.7818608E-02  0.8325956E-01
         -2   -1    0    0    0  501 -0.00000000000E+00  0.00000000000E+00  0.88841873525E+03  0.88841873525E+03  0.00000000000E+00 0.  1.
          2   -1    0    0  501    0  0.00000000000E+00 -0.00000000000E+00 -0.20942626993E+04  0.20942626993E+04  0.00000000000E+00 0. -1.
         23    2    1    2    0    0 -0.97164936881E+03  0.73055710536E+03 -0.50899919819E+03  0.13211279889E+04  0.92102112893E+02 0.  0.
        254    2    1    2    0    0  0.97164936881E+03 -0.73055710536E+03 -0.69684476583E+03  0.16615534456E+04  0.89294515225E+03 0.  0.
         23    2    4    4    0    0  0.14524251793E+03 -0.60793895293E+03 -0.12310856135E+03  0.64372258563E+03  0.92400702725E+02 0.  0.
         23    2    4    4    0    0  0.82640685087E+03 -0.12261815243E+03 -0.57373620448E+03  0.10178308600E+04  0.93930467695E+02 0.  0.
          4    1    3    3  502    0 -0.29494104315E+02  0.49163576527E+01 -0.13966524022E+02  0.33002068953E+02  0.00000000000E+00 0. -1.
         -4    1    3    3    0  502 -0.94215526449E+03  0.72564074771E+03 -0.49503267417E+03  0.12881259199E+04  0.00000000000E+00 0.  1.
         11    1    5    5    0    0  0.10495643703E+03 -0.30264287684E+03 -0.96926361489E+02  0.33466891718E+03  0.00000000000E+00 0. -1.
        -11    1    5    5    0    0  0.40286080907E+02 -0.30529607610E+03 -0.26182199862E+02  0.30905366846E+03  0.00000000000E+00 0.  1.
          2    1    6    6  503    0  0.29301081602E+03 -0.65663981085E+02 -0.15901829899E+03  0.33978510287E+03  0.00000000000E+00 0. -1.
         -2    1    6    6    0  503  0.53339603485E+03 -0.56954171345E+02 -0.41471790550E+03  0.67804575713E+03  0.00000000000E+00 0.  1.
<mgrwt>
<rscale>  0 0.27280632E+04</rscale>
<asrwt>0</asrwt>
<pdfrwt beam="1">  1        2 0.32219426E+00 0.27280632E+04</pdfrwt>
<pdfrwt beam="2">  1       -2 0.13667981E+00 0.27280632E+04</pdfrwt>
<totfact> 0.19803272E+00</totfact>
</mgrwt>
</event>
<event>
12    2  0.3555611E-008  0.1260448E+04  0.7818608E-02  0.9061532E-01
          2   -1    0    0  501    0  0.00000000000E+00  0.00000000000E+00  0.20423451790E+04  0.20423451790E+04  0.00000000000E+00 0. -1.
         -2   -1    0    0    0  501 -0.00000000000E+00 -0.00000000000E+00 -0.19447371134E+03  0.19447371134E+03  0.00000000000E+00 0.  1.
         23    2    1    2    0    0  0.21103318853E+03 -0.30064292549E+02  0.10603318805E+03  0.25466673968E+03  0.90405989751E+02 0.  0.
        254    2    1    2    0    0 -0.21103318853E+03  0.30064292549E+02  0.17418382796E+04  0.19821521506E+04  0.92167656348E+03 0.  0.
         23    2    4    4    0    0 -0.26823665227E+03 -0.32313327822E+03  0.14467403898E+04  0.15093704016E+04  0.93676232389E+02 0.  0.
         23    2    4    4    0    0  0.57203463735E+02  0.35319757077E+03  0.29509788975E+03  0.47278174904E+03  0.91755421772E+02 0.  0.
          3    1    3    3  502    0  0.36288163660E+02 -0.29884854140E+02  0.55557658100E+02  0.72777666233E+02  0.00000000000E+00 0. -1.
         -3    1    3    3    0  502  0.17474502487E+03 -0.17943840897E+00  0.50475529950E+02  0.18188907345E+03  0.00000000000E+00 0.  1.
         11    1    5    5    0    0 -0.11152539262E+03 -0.20174096619E+03  0.71391143353E+03  0.75020454914E+03  0.00000000000E+00 0. -1.
        -11    1    5    5    0    0 -0.15671125965E+03 -0.12139231204E+03  0.73282895629E+03  0.75916585243E+03  0.00000000000E+00 0.  1.
          3    1    6    6  503    0 -0.76454481428E+01  0.13274180827E+03  0.15255704048E+03  0.20236721855E+03  0.00000000000E+00 0. -1.
         -3    1    6    6    0  503  0.64848911878E+02  0.22045576250E+03  0.14254084926E+03  0.27041453049E+03  0.00000000000E+00 0.  1.
<mgrwt>
<rscale>  0 0.12604482E+04</rscale>
<asrwt>0</asrwt>
<pdfrwt beam="1">  1        2 0.31420694E+00 0.12604482E+04</pdfrwt>
<pdfrwt beam="2">  1       -2 0.29919034E-01 0.12604482E+04</pdfrwt>
<totfact> 0.64179792E+01</totfact>
</mgrwt>
</event>
<event>
12    2  0.3555611E-008  0.1932781E+04  0.7818608E-02  0.8638709E-01
         -2   -1    0    0    0  501 -0.00000000000E+00  0.00000000000E+00  0.13279519179E+04  0.13279519179E+04  0.00000000000E+00 0.  1.
          2   -1    0    0  501    0  0.00000000000E+00 -0.00000000000E+00 -0.70327104535E+03  0.70327104535E+03  0.00000000000E+00 0. -1.
         23    2    1    2    0    0  0.46159047600E+02  0.63361999192E+03 -0.19932612543E+03  0.67255288348E+03  0.94823651904E+02 0.  0.
        254    2    1    2    0    0 -0.46159047600E+02 -0.63361999192E+03  0.82400699797E+03  0.13586700798E+04  0.87372301166E+03 0.  0.
         23    2    4    4    0    0  0.14733488295E+03 -0.46967221378E+03  0.10172762622E+02  0.50123862002E+03  0.94005919833E+02 0.  0.
         23    2    4    4    0    0 -0.19349393055E+03 -0.16394777813E+03  0.81383423535E+03  0.85743145974E+03  0.92432518206E+02 0.  0.
          4    1    3    3  502    0 -0.49482022041E+01  0.40360505624E+03 -0.15733743812E+03  0.43321656889E+03  0.00000000000E+00 0.  1.
         -4    1    3    3    0  502  0.51107249805E+02  0.23001493568E+03 -0.41988687310E+02  0.23933631459E+03  0.00000000000E+00 0. -1.
         11    1    5    5    0    0  0.39528553340E+02 -0.12985857048E+03  0.45074691320E+02  0.14302965656E+03  0.00000000000E+00 0. -1.
        -11    1    5    5    0    0  0.10780632961E+03 -0.33981364330E+03 -0.34901928698E+02  0.35820896346E+03  0.00000000000E+00 0.  1.
          2    1    6    6  503    0 -0.13111295760E+02 -0.81425679821E+01  0.17330686236E+03  0.17399274706E+03  0.00000000000E+00 0. -1.
         -2    1    6    6    0  503 -0.18038263479E+03 -0.15580521015E+03  0.64052737299E+03  0.68343871268E+03  0.00000000000E+00 0.  1.
<mgrwt>
<rscale>  0 0.19327805E+04</rscale>
<asrwt>0</asrwt>
<pdfrwt beam="1">  1        2 0.10819555E+00 0.19327805E+04</pdfrwt>
<pdfrwt beam="2">  1       -2 0.20430030E+00 0.19327805E+04</pdfrwt>
<totfact> 0.47398711E+00</totfact>
</mgrwt>
</event>
<event>
12    2  0.3555611E-008  0.2167633E+04  0.7818608E-02  0.8532022E-01
          2   -1    0    0  501    0  0.00000000000E+00  0.00000000000E+00  0.75026042864E+03  0.75026042864E+03  0.00000000000E+00 0. -1.
         -2   -1    0    0    0  501 -0.00000000000E+00 -0.00000000000E+00 -0.15656679638E+04  0.15656679638E+04  0.00000000000E+00 0.  1.
         23    2    1    2    0    0 -0.60050674550E+03 -0.61048394807E+03 -0.58462477535E+02  0.86320258750E+03  0.91661570708E+02 0.  0.
        254    2    1    2    0    0  0.60050674550E+03  0.61048394807E+03 -0.75694505760E+03  0.14527258049E+04  0.89674268427E+03 0.  0.
         23    2    4    4    0    0  0.71033699379E+03  0.68833834902E+03 -0.81031870175E+03  0.12819518924E+04  0.91629299999E+02 0.  0.
         23    2    4    4    0    0 -0.10983024829E+03 -0.77854400957E+02  0.53373644150E+02  0.17077391248E+03  0.90504099936E+02 0.  0.
          1    1    3    3  502    0 -0.56028716927E+03 -0.55940767313E+03 -0.77324034532E+02  0.79551094470E+03  0.00000000000E+00 0. -1.
         -1    1    3    3    0  502 -0.40219576223E+02 -0.51076274933E+02  0.18861556997E+02  0.67691642800E+02  0.00000000000E+00 0.  1.
         11    1    5    5    0    0  0.42005656626E+03  0.34720472708E+03 -0.42507310673E+03  0.69114816604E+03  0.00000000000E+00 0.  1.
        -11    1    5    5    0    0  0.29028042753E+03  0.34113362194E+03 -0.38524559502E+03  0.59080372639E+03  0.00000000000E+00 0. -1.
          1    1    6    6  503    0 -0.11837168995E+03 -0.86192089906E+02  0.58633434831E+02  0.15773019059E+03  0.00000000000E+00 0. -1.
         -1    1    6    6    0  503  0.85414416598E+01  0.83376889487E+01 -0.52597906808E+01  0.13043721886E+02  0.00000000000E+00 0.  1.
<mgrwt>
<rscale>  0 0.21676335E+04</rscale>
<asrwt>0</asrwt>
<pdfrwt beam="1">  1        2 0.11542468E+00 0.21676335E+04</pdfrwt>
<pdfrwt beam="2">  1       -2 0.24087199E+00 0.21676335E+04</pdfrwt>
<totfact> 0.25124744E+00</totfact>
</mgrwt>
</event>
<event>
12    2  0.3555611E-008  0.1356330E+04  0.7818608E-02  0.8986050E-01
         -1   -1    0    0    0  501 -0.00000000000E+00  0.00000000000E+00  0.40510808466E+03  0.40510808466E+03  0.00000000000E+00 0.  1.
          1   -1    0    0  501    0  0.00000000000E+00 -0.00000000000E+00 -0.11352720476E+04  0.11352720476E+04  0.00000000000E+00 0. -1.
         23    2    1    2    0    0 -0.24803377706E+03 -0.98660550425E+02 -0.47694697481E+03  0.55416671967E+03  0.91475010959E+02 0.  0.
        254    2    1    2    0    0  0.24803377706E+03  0.98660550425E+02 -0.25321698817E+03  0.98621341264E+03  0.91501005098E+03 0.  0.
         23    2    4    4    0    0  0.37117511398E+03 -0.25889157212E+02  0.24159022444E+03  0.45293367374E+03  0.91333797474E+02 0.  0.
         23    2    4    4    0    0 -0.12314133692E+03  0.12454970764E+03 -0.49480721261E+03  0.53327973890E+03  0.94216154371E+02 0.  0.
          4    1    3    3  502    0 -0.11891478388E+03 -0.38271626527E+01 -0.24383040241E+03  0.27130911916E+03  0.00000000000E+00 0. -1.
         -4    1    3    3    0  502 -0.12911899318E+03 -0.94833387772E+02 -0.23311657240E+03  0.28285760051E+03  0.00000000000E+00 0.  1.
         11    1    5    5    0    0 -0.14534693479E+01 -0.74809394722E+01  0.13921192077E+02  0.15870621203E+02  0.00000000000E+00 0. -1.
        -11    1    5    5    0    0  0.37262858333E+03 -0.18408217740E+02  0.22766903236E+03  0.43706305253E+03  0.00000000000E+00 0.  1.
          3    1    6    6  503    0  0.15007429441E+02  0.11360748393E+02 -0.30900580387E+02  0.36181976324E+02  0.00000000000E+00 0. -1.
         -3    1    6    6    0  503 -0.13814876636E+03  0.11318895924E+03 -0.46390663222E+03  0.49709776258E+03  0.00000000000E+00 0.  1.
<mgrwt>
<rscale>  0 0.13563302E+04</rscale>
<asrwt>0</asrwt>
<pdfrwt beam="1">  1        1 0.17465723E+00 0.13563302E+04</pdfrwt>
<pdfrwt beam="2">  1       -1 0.62324322E-01 0.13563302E+04</pdfrwt>
<totfact> 0.30476931E+01</totfact>
</mgrwt>
</event>
<event>
12    2  0.3555611E-008  0.2780520E+04  0.7818608E-02  0.8309342E-01
         -1   -1    0    0    0  501 -0.00000000000E+00  0.00000000000E+00  0.60069114446E+03  0.60069114446E+03  0.00000000000E+00 0.  1.
          1   -1    0    0  501    0  0.00000000000E+00 -0.00000000000E+00 -0.32176643549E+04  0.32176643549E+04  0.00000000000E+00 0. -1.
         23    2    1    2    0    0 -0.37073209890E+03 -0.58739360838E+02 -0.28392887058E+04  0.28654624216E+04  0.91771090141E+02 0.  0.
        254    2    1    2    0    0  0.37073209890E+03  0.58739360838E+02  0.22231549537E+03  0.95289307776E+03  0.84716494054E+03 0.  0.
         23    2    4    4    0    0  0.31396425358E+03 -0.20143157574E+03 -0.20900540987E+03  0.43764626988E+03  0.93288605682E+02 0.  0.
         23    2    4    4    0    0  0.56767845318E+02  0.26017093658E+03  0.43132090524E+03  0.51524680788E+03  0.92358243956E+02 0.  0.
          3    1    3    3  502    0 -0.36037763963E+03 -0.64398633136E+02 -0.28120264144E+04  0.28357559455E+04  0.00000000000E+00 0. -1.
         -3    1    3    3    0  502 -0.10354459274E+02  0.56592722979E+01 -0.27262291383E+02  0.29706476082E+02  0.00000000000E+00 0.  1.
         11    1    5    5    0    0  0.17272723690E+03 -0.57339594562E+02 -0.85498310805E+02  0.20107831465E+03  0.00000000000E+00 0. -1.
        -11    1    5    5    0    0  0.14123701668E+03 -0.14409198118E+03 -0.12350709906E+03  0.23656795523E+03  0.00000000000E+00 0.  1.
          4    1    6    6  503    0 -0.16545900554E+02  0.13351045716E+03  0.18527242281E+03  0.22896436327E+03  0.00000000000E+00 0. -1.
         -4    1    6    6    0  503  0.73313745871E+02  0.12666047942E+03  0.24604848243E+03  0.28628244460E+03  0.00000000000E+00 0.  1.
<mgrwt>
<rscale>  0 0.27805197E+04</rscale>
<asrwt>0</asrwt>
<pdfrwt beam="1">  1        1 0.49502529E+00 0.27805197E+04</pdfrwt>
<pdfrwt beam="2">  1       -1 0.92414022E-01 0.27805197E+04</pdfrwt>
<totfact> 0.40701260E-01</totfact>
</mgrwt>
</event>
<event>
12    2  0.3555611E-008  0.1820079E+04  0.7818608E-02  0.8695694E-01
         -1   -1    0    0    0  501 -0.00000000000E+00  0.00000000000E+00  0.11299138965E+04  0.11299138965E+04  0.00000000000E+00 0.  1.
          1   -1    0    0  501    0  0.00000000000E+00 -0.00000000000E+00 -0.73295128318E+03  0.73295128318E+03  0.00000000000E+00 0. -1.
         23    2    1    2    0    0 -0.16857261894E+03  0.47492076932E+02 -0.52370352820E+03  0.56027529990E+03  0.94714312522E+02 0.  0.
        254    2    1    2    0    0  0.16857261894E+03 -0.47492076932E+02  0.92066614157E+03  0.13025898798E+04  0.90467785734E+03 0.  0.
         23    2    4    4    0    0  0.29678804535E+03  0.14648216074E+03 -0.45049773931E+01  0.34421879731E+03  0.94478136722E+02 0.  0.
         23    2    4    4    0    0 -0.12821542642E+03 -0.19397423767E+03  0.92517111896E+03  0.95837108252E+03  0.92023540450E+02 0.  0.
          2    1    3    3  502    0 -0.74357815457E+02  0.40494810441E+02 -0.12814011174E+03  0.15358646629E+03  0.00000000000E+00 0.  1.
         -2    1    3    3    0  502 -0.94214803481E+02  0.69972664915E+01 -0.39556341647E+03  0.40668883361E+03  0.00000000000E+00 0. -1.
         11    1    5    5    0    0  0.22255767184E+03  0.64104547366E+02 -0.19014862951E+02  0.23238518735E+03  0.00000000000E+00 0. -1.
        -11    1    5    5    0    0  0.74230373518E+02  0.82377613370E+02  0.14509885558E+02  0.11183360996E+03  0.00000000000E+00 0.  1.
          2    1    6    6  503    0 -0.10967910795E+03 -0.18130232585E+03  0.90014192868E+03  0.92474619861E+03  0.00000000000E+00 0. -1.
         -2    1    6    6    0  503 -0.18536318470E+02 -0.12671911822E+02  0.25029190281E+02  0.33624883907E+02  0.00000000000E+00 0.  1.
<mgrwt>
<rscale>  0 0.18200789E+04</rscale>
<asrwt>0</asrwt>
<pdfrwt beam="1">  1        1 0.11276174E+00 0.18200789E+04</pdfrwt>
<pdfrwt beam="2">  1       -1 0.17383291E+00 0.18200789E+04</pdfrwt>
<totfact> 0.55154608E+00</totfact>
</mgrwt>
</event>
<event>
12    2  0.3555611E-008  0.1225229E+04  0.7818608E-02  0.9091055E-01
          2   -1    0    0  501    0  0.00000000000E+00  0.00000000000E+00  0.50640286821E+04  0.50640286821E+04  0.00000000000E+00 0. -1.
         -2   -1    0    0    0  501 -0.00000000000E+00 -0.00000000000E+00 -0.74110315321E+02  0.74110315321E+02  0.00000000000E+00 0.  1.
         23    2    1    2    0    0 -0.50251632129E+02  0.11607447214E+03  0.21675751852E+04  0.21731643157E+04  0.90898020036E+02 0.  0.
        254    2    1    2    0    0  0.50251632129E+02 -0.11607447214E+03  0.28223431816E+04  0.29649746817E+04  0.89969734848E+03 0.  0.
         23    2    4    4    0    0 -0.39986476153E+03 -0.55700787527E+02  0.17223068654E+04  0.17712979991E+04  0.90339679815E+02 0.  0.
         23    2    4    4    0    0  0.45011639366E+03 -0.60373684610E+02  0.11000363162E+04  0.11936766826E+04  0.92381686657E+02 0.  0.
          4    1    3    3  502    0 -0.64511467088E+02  0.81495477548E+02  0.19166998424E+04  0.19195159619E+04  0.00000000000E+00 0. -1.
         -4    1    3    3    0  502  0.14259834959E+02  0.34578994589E+02  0.25087534282E+03  0.25364835382E+03  0.00000000000E+00 0.  1.
         11    1    5    5    0    0 -0.10363990597E+03  0.24053214828E+02  0.40496005948E+03  0.41870328041E+03  0.00000000000E+00 0.  1.
        -11    1    5    5    0    0 -0.29622485556E+03 -0.79754002356E+02  0.13173468060E+04  0.13525947187E+04  0.00000000000E+00 0. -1.
          3    1    6    6  503    0  0.38841415272E+03 -0.33379752085E+02  0.85741463036E+03  0.94188088963E+03  0.00000000000E+00 0. -1.
         -3    1    6    6    0  503  0.61702240939E+02 -0.26993932525E+02  0.24262168580E+03  0.25179579296E+03  0.00000000000E+00 0.  1.
<mgrwt>
<rscale>  0 0.12252294E+04</rscale>
<asrwt>0</asrwt>
<pdfrwt beam="1">  1        2 0.77908106E+00 0.12252294E+04</pdfrwt>
<pdfrwt beam="2">  1       -2 0.11401591E-01 0.12252294E+04</pdfrwt>
<totfact> 0.16822489E+00</totfact>
</mgrwt>
</event>
<event>
12    2  0.3555611E-008  0.1853480E+04  0.7818608E-02  0.8678365E-01
          1   -1    0    0  501    0  0.00000000000E+00  0.00000000000E+00  0.86009921052E+03  0.86009921052E+03  0.00000000000E+00 0. -1.
         -1   -1    0    0    0  501 -0.00000000000E+00 -0.00000000000E+00 -0.99854380738E+03  0.99854380738E+03  0.00000000000E+00 0.  1.
         23    2    1    2    0    0  0.96086855295E+02 -0.50686872859E+03  0.41550593485E+03  0.66686101008E+03  0.76875438769E+02 0.  0.
        254    2    1    2    0    0 -0.96086855295E+02  0.50686872859E+03 -0.55395053171E+03  0.11917820078E+04  0.92050777878E+03 0.  0.
         23    2    4    4    0    0  0.36226368307E+02 -0.53938336645E+02  0.20371931063E+03  0.23562066482E+03  0.98963863337E+02 0.  0.
         23    2    4    4    0    0 -0.13231322360E+03  0.56080706523E+03 -0.75766984233E+03  0.95616134300E+03  0.90385675360E+02 0.  0.
          2    1    3    3  502    0  0.81707870374E+02 -0.36812271813E+03  0.34256532084E+03  0.50945216726E+03  0.00000000000E+00 0. -1.
         -2    1    3    3    0  502  0.14378984922E+02 -0.13874601045E+03  0.72940614013E+02  0.15740884282E+03  0.00000000000E+00 0.  1.
         11    1    5    5    0    0  0.16560409121E+02 -0.56428818918E+02  0.20729698402E+03  0.21547737314E+03  0.00000000000E+00 0. -1.
        -11    1    5    5    0    0  0.19665959185E+02  0.24904822727E+01 -0.35776733893E+01  0.20143291675E+02  0.00000000000E+00 0.  1.
          4    1    6    6  503    0 -0.63547003100E+02  0.43349984441E+03 -0.55352221435E+03  0.70593709244E+03  0.00000000000E+00 0. -1.
         -4    1    6    6    0  503 -0.68766220502E+02  0.12730722082E+03 -0.20414762798E+03  0.25022425056E+03  0.00000000000E+00 0.  1.
<mgrwt>
<rscale>  0 0.18534797E+04</rscale>
<asrwt>0</asrwt>
<pdfrwt beam="1">  1        1 0.13232296E+00 0.18534797E+04</pdfrwt>
<pdfrwt beam="2">  1       -1 0.15362212E+00 0.18534797E+04</pdfrwt>
<totfact> 0.60330343E+00</totfact>
</mgrwt>
</event>
<event>
12    2  0.3555611E-008  0.2349443E+04  0.7818608E-02  0.8458678E-01
          1   -1    0    0  501    0  0.00000000000E+00  0.00000000000E+00  0.14191244861E+04  0.14191244861E+04  0.00000000000E+00 0. -1.
         -1   -1    0    0    0  501 -0.00000000000E+00 -0.00000000000E+00 -0.97240962686E+03  0.97240962686E+03  0.00000000000E+00 0.  1.
         23    2    1    2    0    0 -0.18193633840E+03  0.18743174560E+03 -0.79143275704E+03  0.84300535772E+03  0.12673095019E+03 0.  0.
        254    2    1    2    0    0  0.18193633840E+03 -0.18743174560E+03  0.12381476163E+04  0.15485287553E+04  0.89258069419E+03 0.  0.
         23    2    4    4    0    0  0.15256132352E+03  0.28752507516E+03  0.88984611879E+03  0.95185790840E+03  0.90894094219E+02 0.  0.
         23    2    4    4    0    0  0.29375014880E+02 -0.47495682076E+03  0.34830149752E+03  0.59667084687E+03  0.90858644353E+02 0.  0.
          3    1    3    3  502    0  0.18626736063E+02  0.26241719732E+02 -0.69504264891E+02  0.76592597481E+02  0.00000000000E+00 0. -1.
         -3    1    3    3    0  502 -0.20056307446E+03  0.16119002587E+03 -0.72192849215E+03  0.76641276024E+03  0.00000000000E+00 0.  1.
         11    1    5    5    0    0  0.10968395668E+03  0.13118748858E+03  0.53665469853E+03  0.56323972957E+03  0.00000000000E+00 0. -1.
        -11    1    5    5    0    0  0.42877366836E+02  0.15633758658E+03  0.35319142027E+03  0.38861817883E+03  0.00000000000E+00 0.  1.
          1    1    6    6  503    0  0.16849091257E+02 -0.11557719298E+03  0.41416503706E+02  0.12392459882E+03  0.00000000000E+00 0. -1.
         -1    1    6    6    0  503  0.12525923623E+02 -0.35937962778E+03  0.30688499381E+03  0.47274624806E+03  0.00000000000E+00 0.  1.
<mgrwt>
<rscale>  0 0.23494428E+04</rscale>
<asrwt>0</asrwt>
<pdfrwt beam="1">  1        1 0.21832684E+00 0.23494428E+04</pdfrwt>
<pdfrwt beam="2">  1       -1 0.14960148E+00 0.23494428E+04</pdfrwt>
<totfact> 0.23561271E+00</totfact>
</mgrwt>
</event>
<event>
12    2  0.3555611E-008  0.1207513E+04  0.7818608E-02  0.9106305E-01
         -1   -1    0    0    0  501 -0.00000000000E+00  0.00000000000E+00  0.91899959703E+03  0.91899959703E+03  0.00000000000E+00 0.  1.
          1   -1    0    0  501    0  0.00000000000E+00 -0.00000000000E+00 -0.39665107804E+03  0.39665107804E+03  0.00000000000E+00 0. -1.
         23    2    1    2    0    0  0.10301735343E+03  0.65079220380E+02  0.37030726232E+03  0.40047874482E+03  0.91694473654E+02 0.  0.
        254    2    1    2    0    0 -0.10301735343E+03 -0.65079220380E+02  0.15204125668E+03  0.91517193024E+03  0.89418971037E+03 0.  0.
         23    2    4    4    0    0 -0.30282761860E+03  0.21638715008E+03 -0.18327166836E+03  0.42563121257E+03  0.95107620023E+02 0.  0.
         23    2    4    4    0    0  0.19981026516E+03 -0.28146637046E+03  0.33531292504E+03  0.48954071767E+03  0.89821471814E+02 0.  0.
          3    1    3    3  502    0 -0.29143766594E+01  0.14347601662E+02  0.15092810244E+03  0.15163653706E+03  0.00000000000E+00 0. -1.
         -3    1    3    3    0  502  0.10593173009E+03  0.50731618717E+02  0.21937915987E+03  0.24884220777E+03  0.00000000000E+00 0.  1.
         11    1    5    5    0    0 -0.11137225826E+03  0.43272688584E+02 -0.22626134505E+02  0.12160693833E+03  0.00000000000E+00 0. -1.
        -11    1    5    5    0    0 -0.19145536034E+03  0.17311446149E+03 -0.16064553386E+03  0.30402427424E+03  0.00000000000E+00 0.  1.
          3    1    6    6  503    0  0.91808640904E+02 -0.58858653271E+02  0.95230206327E+02  0.14478245683E+03  0.00000000000E+00 0. -1.
         -3    1    6    6    0  503  0.10800162426E+03 -0.22260771719E+03  0.24008271871E+03  0.34475826084E+03  0.00000000000E+00 0.  1.
<mgrwt>
<rscale>  0 0.12075134E+04</rscale>
<asrwt>0</asrwt>
<pdfrwt beam="1">  1        1 0.61023243E-01 0.12075134E+04</pdfrwt>
<pdfrwt beam="2">  1       -1 0.14138455E+00 0.12075134E+04</pdfrwt>
<totfact> 0.24519164E+01</totfact>
</mgrwt>
</event>
<event>
12    2  0.3555611E-008  0.2323171E+04  0.7818608E-02  0.8468841E-01
          2   -1    0    0  501    0  0.00000000000E+00  0.00000000000E+00  0.26207718473E+04  0.26207718473E+04  0.00000000000E+00 0. -1.
         -2   -1    0    0    0  501 -0.00000000000E+00 -0.00000000000E+00 -0.51484111979E+03  0.51484111979E+03  0.00000000000E+00 0.  1.
         23    2    1    2    0    0 -0.16558893212E+01  0.34980085599E+03  0.21360634504E+04  0.21664137659E+04  0.90654070439E+02 0.  0.
        254    2    1    2    0    0  0.16558893212E+01 -0.34980085599E+03 -0.30132722814E+02  0.96919920117E+03  0.90336909940E+03 0.  0.
         23    2    4    4    0    0  0.28642150675E+03 -0.41142687695E+03 -0.27371614337E+03  0.57831577835E+03  0.90660122119E+02 0.  0.
         23    2    4    4    0    0 -0.28476561743E+03  0.61626020957E+02  0.24358342056E+03  0.39088342282E+03  0.92562109609E+02 0.  0.
          2    1    3    3  502    0  0.43790993280E+02  0.18079607662E+03  0.11466901095E+04  0.11616811437E+04  0.00000000000E+00 0. -1.
         -2    1    3    3    0  502 -0.45446882601E+02  0.16900477937E+03  0.98937334091E+03  0.10047326223E+04  0.00000000000E+00 0.  1.
         11    1    5    5    0    0  0.93919290707E+02 -0.15426989787E+03 -0.51811354361E+02  0.18789478704E+03  0.00000000000E+00 0. -1.
        -11    1    5    5    0    0  0.19250221605E+03 -0.25715697907E+03 -0.22190478901E+03  0.39042099131E+03  0.00000000000E+00 0.  1.
          4    1    6    6  503    0 -0.12556758306E+03  0.48724966220E+02  0.59724300370E+02  0.14733747759E+03  0.00000000000E+00 0. -1.
         -4    1    6    6    0  503 -0.15919803437E+03  0.12901054737E+02  0.18385912019E+03  0.24354594523E+03  0.00000000000E+00 0.  1.
<mgrwt>
<rscale>  0 0.23231712E+04</rscale>
<asrwt>0</asrwt>
<pdfrwt beam="1">  1        2 0.40319566E+00 0.23231712E+04</pdfrwt>
<pdfrwt beam="2">  1       -2 0.79206327E-01 0.23231712E+04</pdfrwt>
<totfact> 0.37850853E+00</totfact>
</mgrwt>
</event>
<event>
12    2  0.3555611E-008  0.2789619E+04  0.7818608E-02  0.8306499E-01
          2   -1    0    0  501    0  0.00000000000E+00  0.00000000000E+00  0.13904869751E+04  0.13904869751E+04  0.00000000000E+00 0.  1.
         -2   -1    0    0    0  501 -0.00000000000E+00 -0.00000000000E+00 -0.13991453517E+04  0.13991453517E+04  0.00000000000E+00 0. -1.
         23    2    1    2    0    0 -0.78393418998E+00 -0.94149014430E+03  0.81163717070E+03  0.12463341376E+04  0.90496294526E+02 0.  0.
        254    2    1    2    0    0  0.78393418998E+00  0.94149014430E+03 -0.82029554728E+03  0.15432981892E+04  0.90690694646E+03 0.  0.
         23    2    4    4    0    0  0.26637035878E+03  0.71352454590E+03 -0.14998705652E+03  0.78131123595E+03  0.88773220419E+02 0.  0.
         23    2    4    4    0    0 -0.26558642459E+03  0.22796559840E+03 -0.67030849076E+03  0.76198695324E+03  0.93841255046E+02 0.  0.
          3    1    3    3  502    0  0.11034492010E+02 -0.48934350136E+03  0.47933570725E+03  0.68508506230E+03  0.00000000000E+00 0. -1.
         -3    1    3    3    0  502 -0.11818426200E+02 -0.45214664294E+03  0.33230146345E+03  0.56124907530E+03  0.00000000000E+00 0.  1.
         11    1    5    5    0    0  0.14243539642E+03  0.47645501591E+03 -0.12417122937E+03  0.51255801480E+03  0.00000000000E+00 0.  1.
        -11    1    5    5    0    0  0.12393496236E+03  0.23706953000E+03 -0.25815827153E+02  0.26875322115E+03  0.00000000000E+00 0. -1.
          3    1    6    6  503    0  0.67361934975E+01  0.54666380687E+01 -0.32706121017E+02  0.33837121428E+02  0.00000000000E+00 0. -1.
         -3    1    6    6    0  503 -0.27232261809E+03  0.22249896033E+03 -0.63760236974E+03  0.72814983182E+03  0.00000000000E+00 0.  1.
<mgrwt>
<rscale>  0 0.27896189E+04</rscale>
<asrwt>0</asrwt>
<pdfrwt beam="1">  1        2 0.21392107E+00 0.27896189E+04</pdfrwt>
<pdfrwt beam="2">  1       -2 0.21525313E+00 0.27896189E+04</pdfrwt>
<totfact> 0.13522515E+00</totfact>
</mgrwt>
</event>
<event>
12    2  0.3555611E-008  0.1211789E+04  0.7818608E-02  0.9102600E-01
          2   -1    0    0  501    0  0.00000000000E+00  0.00000000000E+00  0.86305855447E+03  0.86305855447E+03  0.00000000000E+00 0. -1.
         -2   -1    0    0    0  501 -0.00000000000E+00 -0.00000000000E+00 -0.42535698428E+03  0.42535698428E+03  0.00000000000E+00 0.  1.
         23    2    1    2    0    0 -0.82202956360E+02  0.39545578831E+02 -0.15550500189E+03  0.20122429328E+03  0.89376908401E+02 0.  0.
        254    2    1    2    0    0  0.82202956360E+02 -0.39545578831E+02  0.59320657208E+03  0.10871912455E+04  0.90651507888E+03 0.  0.
         23    2    4    4    0    0  0.19432052987E+03  0.27754672530E+03 -0.51794546864E+02  0.35475890608E+03  0.91534437801E+02 0.  0.
         23    2    4    4    0    0 -0.11211757351E+03 -0.31709230413E+03  0.64500111894E+03  0.73243233939E+03  0.85514961964E+02 0.  0.
          3    1    3    3  502    0  0.16140195465E+02  0.74590068338E+01 -0.51716659265E+02  0.54687800633E+02  0.00000000000E+00 0. -1.
         -3    1    3    3    0  502 -0.98343151825E+02  0.32086571998E+02 -0.10378834262E+03  0.14653649265E+03  0.00000000000E+00 0.  1.
         11    1    5    5    0    0  0.14139351987E+03  0.25747576937E+03 -0.35671545828E+02  0.29590261650E+03  0.00000000000E+00 0.  1.
        -11    1    5    5    0    0  0.52927010007E+02  0.20070955931E+02 -0.16123001036E+02  0.58856289576E+02  0.00000000000E+00 0. -1.
          1    1    6    6  503    0 -0.48169932346E+02 -0.41190628292E+02  0.10426396329E+03  0.12201632794E+03  0.00000000000E+00 0. -1.
         -1    1    6    6    0  503 -0.63947641166E+02 -0.27590167584E+03  0.54073715565E+03  0.61041601146E+03  0.00000000000E+00 0.  1.
<mgrwt>
<rscale>  0 0.12117887E+04</rscale>
<asrwt>0</asrwt>
<pdfrwt beam="1">  1        2 0.13277824E+00 0.12117887E+04</pdfrwt>
<pdfrwt beam="2">  1       -2 0.65439536E-01 0.12117887E+04</pdfrwt>
<totfact> 0.65962778E+01</totfact>
</mgrwt>
</event>
<event>
12    2  0.3555611E-008  0.1279633E+04  0.7818608E-02  0.9045874E-01
          2   -1    0    0  501    0  0.00000000000E+00  0.00000000000E+00  0.81662259774E+03  0.81662259774E+03  0.00000000000E+00 0. -1.
         -2   -1    0    0    0  501 -0.00000000000E+00 -0.00000000000E+00 -0.50129039303E+03  0.50129039303E+03  0.00000000000E+00 0.  1.
         23    2    1    2    0    0 -0.25136562300E+03 -0.10988642344E+03  0.22773877274E+03  0.36818057372E+03  0.91827467419E+02 0.  0.
        254    2    1    2    0    0  0.25136562300E+03  0.10988642344E+03  0.87593431971E+02  0.94973241705E+03  0.90501897891E+03 0.  0.
         23    2    4    4    0    0  0.54907132013E+03 -0.10560349308E+03  0.46660181622E+02  0.56742005544E+03  0.84598666762E+02 0.  0.
         23    2    4    4    0    0 -0.29770569713E+03  0.21548991652E+03  0.40933250349E+02  0.38231236162E+03  0.97070204690E+02 0.  0.
          3    1    3    3  502    0 -0.24664955451E+03 -0.12060755428E+03  0.22733755893E+03  0.35646114878E+03  0.00000000000E+00 0. -1.
         -3    1    3    3    0  502 -0.47160684956E+01  0.10721130836E+02  0.40121380605E+00  0.11719424942E+02  0.00000000000E+00 0.  1.
         11    1    5    5    0    0  0.44779236450E+03 -0.11224195890E+03  0.58075651014E+02  0.46528382767E+03  0.00000000000E+00 0. -1.
        -11    1    5    5    0    0  0.10127895563E+03  0.66384658208E+01 -0.11415469392E+02  0.10213622777E+03  0.00000000000E+00 0.  1.
          3    1    6    6  503    0 -0.59893971210E+02  0.97749004558E+02  0.80780340686E+01  0.11492349766E+03  0.00000000000E+00 0. -1.
         -3    1    6    6    0  503 -0.23781172592E+03  0.11774091196E+03  0.32855216280E+02  0.26738886396E+03  0.00000000000E+00 0.  1.
<mgrwt>
<rscale>  0 0.12796329E+04</rscale>
<asrwt>0</asrwt>
<pdfrwt beam="1">  1        2 0.12563425E+00 0.12796329E+04</pdfrwt>
<pdfrwt beam="2">  1       -2 0.77121598E-01 0.12796329E+04</pdfrwt>
<totfact> 0.49380420E+01</totfact>
</mgrwt>
</event>
<event>
12    2  0.3555611E-008  0.1835546E+04  0.7818608E-02  0.8687622E-01
          2   -1    0    0  501    0  0.00000000000E+00  0.00000000000E+00  0.20097561325E+04  0.20097561325E+04  0.00000000000E+00 0. -1.
         -2   -1    0    0    0  501 -0.00000000000E+00 -0.00000000000E+00 -0.41910922212E+03  0.41910922212E+03  0.00000000000E+00 0.  1.
         23    2    1    2    0    0  0.16310970406E+03 -0.35828927768E+03 -0.15210421786E+03  0.43129827095E+03  0.88918633444E+02 0.  0.
        254    2    1    2    0    0 -0.16310970406E+03  0.35828927768E+03  0.17427511282E+04  0.19975670836E+04  0.89337381691E+03 0.  0.
         23    2    4    4    0    0  0.22636964435E+03  0.61656685595E+01  0.12428851815E+04  0.12668238435E+04  0.93796826716E+02 0.  0.
         23    2    4    4    0    0 -0.38947934840E+03  0.35212360912E+03  0.49986594671E+03  0.73074324015E+03  0.91839639706E+02 0.  0.
          1    1    3    3  502    0  0.63069058154E+02 -0.77953052457E+02 -0.79775764967E+01  0.10058839998E+03  0.00000000000E+00 0. -1.
         -1    1    3    3    0  502  0.10004064590E+03 -0.28033622522E+03 -0.14412664136E+03  0.33070987097E+03  0.00000000000E+00 0.  1.
         11    1    5    5    0    0  0.18176145981E+03 -0.33359670481E+02  0.97944613555E+03  0.99672705809E+03  0.00000000000E+00 0.  1.
        -11    1    5    5    0    0  0.44608184538E+02  0.39525339040E+02  0.26343904593E+03  0.27009678538E+03  0.00000000000E+00 0. -1.
          2    1    6    6  503    0 -0.23705301384E+03  0.17079379700E+03  0.31994484505E+03  0.43327745884E+03  0.00000000000E+00 0. -1.
         -2    1    6    6    0  503 -0.15242633456E+03  0.18132981212E+03  0.17992110165E+03  0.29746578131E+03  0.00000000000E+00 0.  1.
<mgrwt>
<rscale>  0 0.18355461E+04</rscale>
<asrwt>0</asrwt>
<pdfrwt beam="1">  1        2 0.30919325E+00 0.18355461E+04</pdfrwt>
<pdfrwt beam="2">  1       -2 0.64478343E-01 0.18355461E+04</pdfrwt>
<totfact> 0.13797242E+01</totfact>
</mgrwt>
</event>
<event>
12    2  0.3555611E-008  0.2446788E+04  0.7818608E-02  0.8422192E-01
         -1   -1    0    0    0  501 -0.00000000000E+00  0.00000000000E+00  0.87970815788E+03  0.87970815788E+03  0.00000000000E+00 0.  1.
          1   -1    0    0  501    0  0.00000000000E+00 -0.00000000000E+00 -0.17013511621E+04  0.17013511621E+04  0.00000000000E+00 0. -1.
         23    2    1    2    0    0 -0.51572616452E+03 -0.67343004769E+03  0.31396310083E+03  0.90998801338E+03  0.10011917850E+03 0.  0.
        254    2    1    2    0    0  0.51572616452E+03  0.67343004769E+03 -0.11356061051E+04  0.16710713067E+04  0.88509693259E+03 0.  0.
         23    2    4    4    0    0  0.51270781702E+03  0.79343203913E+03 -0.62250145896E+03  0.11350366120E+04  0.91631533000E+02 0.  0.
         23    2    4    4    0    0  0.30183475085E+01 -0.12000199144E+03 -0.51310464614E+03  0.53603469465E+03  0.98220301381E+02 0.  0.
          3    1    3    3  502    0 -0.65727926172E+02 -0.60572614445E+02  0.57450683221E+01  0.89566777935E+02  0.00000000000E+00 0. -1.
         -3    1    3    3    0  502 -0.44999823835E+03 -0.61285743324E+03  0.30821803251E+03  0.82042123544E+03  0.00000000000E+00 0.  1.
         11    1    5    5    0    0  0.22004033893E+02  0.78388038387E+02 -0.43741436991E+02  0.92423889660E+02  0.00000000000E+00 0.  1.
        -11    1    5    5    0    0  0.49070378312E+03  0.71504400074E+03 -0.57876002197E+03  0.10426127223E+04  0.00000000000E+00 0. -1.
          1    1    6    6  503    0  0.28439846158E+02 -0.68614183530E+02 -0.13935271401E+03  0.15791108236E+03  0.00000000000E+00 0. -1.
         -1    1    6    6    0  503 -0.25421498650E+02 -0.51387807910E+02 -0.37375193214E+03  0.37812361229E+03  0.00000000000E+00 0.  1.
<mgrwt>
<rscale>  0 0.24467877E+04</rscale>
<asrwt>0</asrwt>
<pdfrwt beam="1">  1        1 0.26174633E+00 0.24467877E+04</pdfrwt>
<pdfrwt beam="2">  1       -1 0.13533972E+00 0.24467877E+04</pdfrwt>
<totfact> 0.19426058E+00</totfact>
</mgrwt>
</event>
<event>
12    2  0.3555611E-008  0.1347934E+04  0.7818608E-02  0.8992394E-01
         -1   -1    0    0    0  501 -0.00000000000E+00  0.00000000000E+00  0.15063147151E+03  0.15063147151E+03  0.00000000000E+00 0.  1.
          1   -1    0    0  501    0  0.00000000000E+00 -0.00000000000E+00 -0.30155148763E+04  0.30155148763E+04  0.00000000000E+00 0. -1.
         23    2    1    2    0    0 -0.18184002367E+03 -0.32207111081E+03 -0.10494704864E+04  0.11165505130E+04  0.92201689996E+02 0.  0.
        254    2    1    2    0    0  0.18184002367E+03  0.32207111081E+03 -0.18154129184E+04  0.20495958348E+04  0.87654060213E+03 0.  0.
         23    2    4    4    0    0 -0.18467692969E+02  0.35515481878E+03 -0.17884275196E+04  0.18257066673E+04  0.90861658556E+02 0.  0.
         23    2    4    4    0    0  0.20030771664E+03 -0.33083707967E+02 -0.26985398805E+02  0.22388916757E+03  0.90445754617E+02 0.  0.
          4    1    3    3  502    0 -0.85983329640E+02 -0.83583844172E+02 -0.26065583354E+03  0.28691611237E+03  0.00000000000E+00 0. -1.
         -4    1    3    3    0  502 -0.95856694035E+02 -0.23848726664E+03 -0.78881465287E+03  0.82963440064E+03  0.00000000000E+00 0.  1.
         11    1    5    5    0    0 -0.35784077373E+02  0.13787239811E+03 -0.54431102873E+03  0.56264002199E+03  0.00000000000E+00 0. -1.
        -11    1    5    5    0    0  0.17316384404E+02  0.21728242066E+03 -0.12441164909E+04  0.12630666453E+04  0.00000000000E+00 0.  1.
          2    1    6    6  503    0  0.30504257506E+02  0.27317309670E+02 -0.13678717893E+02  0.43172357555E+02  0.00000000000E+00 0. -1.
         -2    1    6    6    0  503  0.16980345914E+03 -0.60401017637E+02 -0.13306680911E+02  0.18071681002E+03  0.00000000000E+00 0.  1.
<mgrwt>
<rscale>  0 0.13479339E+04</rscale>
<asrwt>0</asrwt>
<pdfrwt beam="1">  1        1 0.46392532E+00 0.13479339E+04</pdfrwt>
<pdfrwt beam="2">  1       -1 0.23174075E-01 0.13479339E+04</pdfrwt>
<totfact> 0.91754583E+00</totfact>
</mgrwt>
</event>
<event>
12    2  0.3555611E-008  0.1678222E+04  0.7818608E-02  0.8773883E-01
          2   -1    0    0  501    0  0.00000000000E+00  0.00000000000E+00  0.12931029781E+04  0.12931029781E+04  0.00000000000E+00 0. -1.
         -2   -1    0    0    0  501 -0.00000000000E+00 -0.00000000000E+00 -0.54450996204E+03  0.54450996204E+03  0.00000000000E+00 0.  1.
         23    2    1    2    0    0 -0.27159699508E+03  0.21899629244E+03 -0.25861819660E+03  0.44352946077E+03  0.90059464369E+02 0.  0.
        254    2    1    2    0    0  0.27159699508E+03 -0.21899629244E+03  0.10072112126E+04  0.13940834793E+04  0.89848206251E+03 0.  0.
         23    2    4    4    0    0  0.44837456706E+03 -0.20046811284E+03  0.16160866446E+03  0.52509903923E+03  0.91566500027E+02 0.  0.
         23    2    4    4    0    0 -0.17677757198E+03 -0.18528179605E+02  0.84560254817E+03  0.86898444009E+03  0.92177460663E+02 0.  0.
          4    1    3    3  502    0 -0.24899638849E+02 -0.37277108428E+01 -0.55371210895E+01  0.25778819851E+02  0.00000000000E+00 0. -1.
         -4    1    3    3    0  502 -0.24669735623E+03  0.22272400328E+03 -0.25308107551E+03  0.41775064092E+03  0.00000000000E+00 0.  1.
         11    1    5    5    0    0  0.14461660367E+03 -0.10808189117E+03  0.38708834572E+02  0.18464569080E+03  0.00000000000E+00 0.  1.
        -11    1    5    5    0    0  0.30375796339E+03 -0.92386221665E+02  0.12289982988E+03  0.34045334843E+03  0.00000000000E+00 0. -1.
          3    1    6    6  503    0 -0.52674395139E+02  0.35162308966E+02  0.32459994725E+03  0.33072058544E+03  0.00000000000E+00 0. -1.
         -3    1    6    6    0  503 -0.12410317684E+03 -0.53690488571E+02  0.52100260092E+03  0.53826385465E+03  0.00000000000E+00 0.  1.
<mgrwt>
<rscale>  0 0.16782222E+04</rscale>
<asrwt>0</asrwt>
<pdfrwt beam="1">  1        2 0.19893892E+00 0.16782222E+04</pdfrwt>
<pdfrwt beam="2">  1       -2 0.83770763E-01 0.16782222E+04</pdfrwt>
<totfact> 0.19810914E+01</totfact>
</mgrwt>
</event>
<event>
12    2  0.3555611E-008  0.2235443E+04  0.7818608E-02  0.8503819E-01
         -2   -1    0    0    0  501 -0.00000000000E+00  0.00000000000E+00  0.55323982061E+03  0.55323982061E+03  0.00000000000E+00 0.  1.
          2   -1    0    0  501    0  0.00000000000E+00 -0.00000000000E+00 -0.22581557202E+04  0.22581557202E+04  0.00000000000E+00 0. -1.
         23    2    1    2    0    0 -0.67726060509E+03 -0.22092448229E+03 -0.14733563182E+04  0.16391087613E+04  0.91701344969E+02 0.  0.
        254    2    1    2    0    0  0.67726060509E+03  0.22092448229E+03 -0.23155958142E+03  0.11722867796E+04  0.90174658292E+03 0.  0.
         23    2    4    4    0    0  0.49253653662E+03 -0.30128733805E+03 -0.16348508651E+03  0.60666990326E+03  0.89189113860E+02 0.  0.
         23    2    4    4    0    0  0.18472406847E+03  0.52221182034E+03 -0.68074494906E+02  0.56561687634E+03  0.91979058352E+02 0.  0.
          3    1    3    3  502    0 -0.59437753214E+03 -0.21898931257E+03 -0.12613602305E+04  0.14114781617E+04  0.00000000000E+00 0. -1.
         -3    1    3    3    0  502 -0.82883072953E+02 -0.19351697242E+01 -0.21199608769E+03  0.22763059957E+03  0.00000000000E+00 0.  1.
         11    1    5    5    0    0  0.29999233407E+03 -0.23255554115E+03 -0.98525592512E+02  0.39215401643E+03  0.00000000000E+00 0. -1.
        -11    1    5    5    0    0  0.19254420256E+03 -0.68731796894E+02 -0.64959493998E+02  0.21451588683E+03  0.00000000000E+00 0.  1.
          1    1    6    6  503    0  0.10876505818E+03  0.20399631780E+03  0.13117477715E+01  0.23118403111E+03  0.00000000000E+00 0. -1.
         -1    1    6    6    0  503  0.75959010286E+02  0.31821550254E+03 -0.69386242678E+02  0.33443284524E+03  0.00000000000E+00 0.  1.
<mgrwt>
<rscale>  0 0.22354433E+04</rscale>
<asrwt>0</asrwt>
<pdfrwt beam="1">  1        2 0.34740857E+00 0.22354433E+04</pdfrwt>
<pdfrwt beam="2">  1       -2 0.85113818E-01 0.22354433E+04</pdfrwt>
<totfact> 0.52413051E+00</totfact>
</mgrwt>
</event>
<event>
12    2  0.3555611E-008  0.1503563E+04  0.7818608E-02  0.8882087E-01
          1   -1    0    0  501    0  0.00000000000E+00  0.00000000000E+00  0.39848372132E+03  0.39848372132E+03  0.00000000000E+00 0. -1.
         -1   -1    0    0    0  501 -0.00000000000E+00 -0.00000000000E+00 -0.14183155859E+04  0.14183155859E+04  0.00000000000E+00 0.  1.
         23    2    1    2    0    0 -0.25995834206E+03  0.18961441778E+03 -0.60478605793E+03  0.69169260864E+03  0.95606076956E+02 0.  0.
        254    2    1    2    0    0  0.25995834206E+03 -0.18961441778E+03 -0.41504580661E+03  0.11251066985E+04  0.99502266026E+03 0.  0.
         23    2    4    4    0    0  0.16768167529E+02 -0.31633284859E+03  0.24075616507E+03  0.40840138467E+03  0.92089724945E+02 0.  0.
         23    2    4    4    0    0  0.24319017453E+03  0.12671843081E+03 -0.65580197168E+03  0.71670531385E+03  0.91603816272E+02 0.  0.
          1    1    3    3  502    0 -0.14298129216E+02 -0.10363011469E+02 -0.47435143099E+02  0.50615425580E+02  0.00000000000E+00 0. -1.
         -1    1    3    3    0  502 -0.24566021285E+03  0.19997742925E+03 -0.55735091483E+03  0.64107718306E+03  0.00000000000E+00 0.  1.
         11    1    5    5    0    0  0.17248783093E+02 -0.26192142946E+03  0.23734215468E+03  0.35388084734E+03  0.00000000000E+00 0. -1.
        -11    1    5    5    0    0 -0.48061556366E+00 -0.54411419137E+02  0.34140103900E+01  0.54520537330E+02  0.00000000000E+00 0.  1.
          3    1    6    6  503    0  0.21154767560E+03  0.13989368908E+03 -0.59707907507E+03  0.64871109531E+03  0.00000000000E+00 0. -1.
         -3    1    6    6    0  503  0.31642498934E+02 -0.13175258269E+02 -0.58722896610E+02  0.67994218545E+02  0.00000000000E+00 0.  1.
<mgrwt>
<rscale>  0 0.15035633E+04</rscale>
<asrwt>0</asrwt>
<pdfrwt beam="1">  1        1 0.61305189E-01 0.15035633E+04</pdfrwt>
<pdfrwt beam="2">  1       -1 0.21820240E+00 0.15035633E+04</pdfrwt>
<totfact> 0.65984221E+00</totfact>
</mgrwt>
</event>
<event>
12    2  0.3555611E-008  0.2814236E+04  0.7818608E-02  0.8298862E-01
         -1   -1    0    0    0  501 -0.00000000000E+00  0.00000000000E+00  0.14812306230E+04  0.14812306230E+04  0.00000000000E+00 0.  1.
          1   -1    0    0  501    0  0.00000000000E+00 -0.00000000000E+00 -0.13367132259E+04  0.13367132259E+04  0.00000000000E+00 0. -1.
         23    2    1    2    0    0  0.68114267695E+02 -0.10667439969E+04 -0.60228205192E+03  0.12302618476E+04  0.90654482969E+02 0.  0.
        254    2    1    2    0    0 -0.68114267695E+02  0.10667439969E+04  0.74679944898E+03  0.15876820013E+04  0.90578276203E+03 0.  0.
         23    2    4    4    0    0 -0.40713787914E+03  0.26477455568E+03  0.43220123056E+03  0.65669665712E+03  0.92659472347E+02 0.  0.
         23    2    4    4    0    0  0.33902361144E+03  0.80196944117E+03  0.31459821843E+03  0.93098534419E+03  0.98334522790E+02 0.  0.
          3    1    3    3  502    0  0.78650091398E+02 -0.85398111907E+03 -0.45071762381E+03  0.96882194702E+03  0.00000000000E+00 0. -1.
         -3    1    3    3    0  502 -0.10535823703E+02 -0.21276287779E+03 -0.15156442812E+03  0.26143990058E+03  0.00000000000E+00 0.  1.
         11    1    5    5    0    0 -0.16475487588E+03  0.14663183354E+03  0.23743838861E+03  0.32407106029E+03  0.00000000000E+00 0.  1.
        -11    1    5    5    0    0 -0.24238300325E+03  0.11814272214E+03  0.19476284195E+03  0.33262559683E+03  0.00000000000E+00 0. -1.
          1    1    6    6  503    0  0.12500152785E+03  0.20396588845E+03  0.59410006187E+02  0.24648938000E+03  0.00000000000E+00 0.  1.
         -1    1    6    6    0  503  0.21402208359E+03  0.59800355272E+03  0.25518821224E+03  0.68449596420E+03  0.00000000000E+00 0. -1.
<mgrwt>
<rscale>  0 0.28142356E+04</rscale>
<asrwt>0</asrwt>
<pdfrwt beam="1">  1        1 0.20564819E+00 0.28142356E+04</pdfrwt>
<pdfrwt beam="2">  1       -1 0.22788163E+00 0.28142356E+04</pdfrwt>
<totfact> 0.71798850E-01</totfact>
</mgrwt>
</event>
<event>
12    2  0.3555611E-008  0.1083644E+04  0.7818608E-02  0.9221282E-01
          2   -1    0    0  501    0  0.00000000000E+00  0.00000000000E+00  0.21247837448E+03  0.21247837448E+03  0.00000000000E+00 0. -1.
         -2   -1    0    0    0  501 -0.00000000000E+00 -0.00000000000E+00 -0.13816521066E+04  0.13816521066E+04  0.00000000000E+00 0.  1.
         23    2    1    2    0    0  0.12829400996E+02  0.12308297140E+02  0.20901733382E+02  0.96574461957E+02  0.92594041577E+02 0.  0.
        254    2    1    2    0    0 -0.12829400996E+02 -0.12308297140E+02 -0.11900754655E+04  0.14975560191E+04  0.90888851303E+03 0.  0.
         23    2    4    4    0    0  0.12653702240E+03 -0.26676563168E+03 -0.43951410013E+02  0.31181893595E+03  0.90132136834E+02 0.  0.
         23    2    4    4    0    0 -0.13936642339E+03  0.25445733454E+03 -0.11461240555E+04  0.11857370832E+04  0.90556859383E+02 0.  0.
          2    1    3    3  502    0  0.52019970021E+02  0.65887597142E+01  0.14640256816E+01  0.52456004487E+02  0.00000000000E+00 0. -1.
         -2    1    3    3    0  502 -0.39190569025E+02  0.57195374260E+01  0.19437707700E+02  0.44118457470E+02  0.00000000000E+00 0.  1.
         11    1    5    5    0    0  0.28725026551E+02 -0.10086636313E+03 -0.55932599972E+02  0.11885960668E+03  0.00000000000E+00 0. -1.
        -11    1    5    5    0    0  0.97811995847E+02 -0.16589926855E+03  0.11981189959E+02  0.19295932927E+03  0.00000000000E+00 0.  1.
          4    1    6    6  503    0 -0.89478808941E+02  0.22162019812E+03 -0.99349551574E+03  0.10218391797E+04  0.00000000000E+00 0.  1.
         -4    1    6    6    0  503 -0.49887614453E+02  0.32837136423E+02 -0.15262853975E+03  0.16389790343E+03  0.00000000000E+00 0. -1.
<mgrwt>
<rscale>  0 0.10836442E+04</rscale>
<asrwt>0</asrwt>
<pdfrwt beam="1">  1        2 0.32688981E-01 0.10836442E+04</pdfrwt>
<pdfrwt beam="2">  1       -2 0.21256186E+00 0.10836442E+04</pdfrwt>
<totfact> 0.17721643E+01</totfact>
</mgrwt>
</event>
<event>
12    2  0.3555611E-008  0.1529182E+04  0.7818608E-02  0.8865276E-01
         -2   -1    0    0    0  501 -0.00000000000E+00  0.00000000000E+00  0.26964645495E+03  0.26964645495E+03  0.00000000000E+00 0.  1.
          2   -1    0    0  501    0  0.00000000000E+00 -0.00000000000E+00 -0.21680222325E+04  0.21680222325E+04  0.00000000000E+00 0. -1.
         23    2    1    2    0    0 -0.28373149366E+01 -0.38377930468E+03 -0.11466796490E+04  0.12127101531E+04  0.92179678679E+02 0.  0.
        254    2    1    2    0    0  0.28373149366E+01  0.38377930468E+03 -0.75169612859E+03  0.12249585343E+04  0.88779599906E+03 0.  0.
         23    2    4    4    0    0 -0.56700271278E+02  0.40721100416E+03 -0.92459308152E+03  0.10160312042E+04  0.91713242789E+02 0.  0.
         23    2    4    4    0    0  0.59537586215E+02 -0.23431699480E+02  0.17289695293E+03  0.20892733007E+03  0.98303124083E+02 0.  0.
          2    1    3    3  502    0  0.12565968884E+02 -0.37198261474E+03 -0.11158209896E+04  0.11762590914E+04  0.00000000000E+00 0. -1.
         -2    1    3    3    0  502 -0.15403283820E+02 -0.11796689936E+02 -0.30858659339E+02  0.36451061741E+02  0.00000000000E+00 0.  1.
         11    1    5    5    0    0 -0.62145948120E+02  0.14588842438E+03 -0.31126476253E+03  0.34932979207E+03  0.00000000000E+00 0. -1.
        -11    1    5    5    0    0  0.54456768417E+01  0.26132257977E+03 -0.61332831899E+03  0.66670141216E+03  0.00000000000E+00 0.  1.
          3    1    6    6  503    0 -0.15664214225E+02  0.14273803860E+02  0.59965493316E+01  0.22024252264E+02  0.00000000000E+00 0. -1.
         -3    1    6    6    0  503  0.75201800440E+02 -0.37705503340E+02  0.16690040360E+03  0.18690307780E+03  0.00000000000E+00 0.  1.
<mgrwt>
<rscale>  0 0.15291821E+04</rscale>
<asrwt>0</asrwt>
<pdfrwt beam="1">  1        2 0.33354188E+00 0.15291821E+04</pdfrwt>
<pdfrwt beam="2">  1       -2 0.41484071E-01 0.15291821E+04</pdfrwt>
<totfact> 0.28589965E+01</totfact>
</mgrwt>
</event>
<event>
12    2  0.3555611E-008  0.1459796E+04  0.7818608E-02  0.8911637E-01
         -1   -1    0    0    0  501 -0.00000000000E+00  0.00000000000E+00  0.10174563166E+04  0.10174563166E+04  0.00000000000E+00 0.  1.
          1   -1    0    0  501    0  0.00000000000E+00 -0.00000000000E+00 -0.52361103494E+03  0.52361103494E+03  0.00000000000E+00 0. -1.
         23    2    1    2    0    0  0.16778896200E+03  0.52570345993E+02  0.57251878633E+03  0.60649024831E+03  0.95581815972E+02 0.  0.
        254    2    1    2    0    0 -0.16778896200E+03 -0.52570345993E+02 -0.78673504694E+02  0.93457710321E+03  0.91450973994E+03 0.  0.
         23    2    4    4    0    0 -0.18246272547E+03 -0.17336324232E+03  0.37239644144E+03  0.45828902803E+03  0.89455372351E+02 0.  0.
         23    2    4    4    0    0  0.14673763468E+02  0.12079289633E+03 -0.45106994614E+03  0.47628807518E+03  0.92628241426E+02 0.  0.
          2    1    3    3  502    0 -0.74450792434E+01  0.20714939697E+02  0.60807259560E+02  0.64668854534E+02  0.00000000000E+00 0. -1.
         -2    1    3    3    0  502  0.17523404125E+03  0.31855406296E+02  0.51171152677E+03  0.54182139378E+03  0.00000000000E+00 0.  1.
         11    1    5    5    0    0 -0.49680563321E+02 -0.15338337001E+01  0.61798055949E+02  0.79306435658E+02  0.00000000000E+00 0.  1.
        -11    1    5    5    0    0 -0.13278216215E+03 -0.17182940862E+03  0.31059838549E+03  0.37898259237E+03  0.00000000000E+00 0. -1.
          1    1    6    6  503    0  0.16973046942E+02  0.11525019743E+03 -0.45462532343E+03  0.46931319716E+03  0.00000000000E+00 0. -1.
         -1    1    6    6    0  503 -0.22992834739E+01  0.55426988993E+01  0.35553772926E+01  0.69748780114E+01  0.00000000000E+00 0.  1.
<mgrwt>
<rscale>  0 0.14597964E+04</rscale>
<asrwt>0</asrwt>
<pdfrwt beam="1">  1        1 0.80555544E-01 0.14597964E+04</pdfrwt>
<pdfrwt beam="2">  1       -1 0.15653174E+00 0.14597964E+04</pdfrwt>
<totfact> 0.12529573E+01</totfact>
</mgrwt>
</event>
<event>
12    2  0.3555611E-008  0.2127545E+04  0.7818608E-02  0.8549206E-01
         -2   -1    0    0    0  501 -0.00000000000E+00  0.00000000000E+00  0.38296767052E+03  0.38296767052E+03  0.00000000000E+00 0.  1.
          2   -1    0    0  501    0  0.00000000000E+00 -0.00000000000E+00 -0.29548497551E+04  0.29548497551E+04  0.00000000000E+00 0. -1.
         23    2    1    2    0    0 -0.59331237182E+03  0.52718817331E+03 -0.11783814687E+04  0.14237058411E+04  0.91697849760E+02 0.  0.
        254    2    1    2    0    0  0.59331237182E+03 -0.52718817331E+03 -0.13935006159E+04  0.19141115845E+04  0.10450034693E+04 0.  0.
         23    2    4    4    0    0  0.53052129159E+03 -0.21667300562E+03 -0.14658644120E+04  0.15765552927E+04  0.91477233735E+02 0.  0.
         23    2    4    4    0    0  0.62791080227E+02 -0.31051516769E+03  0.72363796167E+02  0.33755629177E+03  0.91352843411E+02 0.  0.
          4    1    3    3  502    0 -0.12578026832E+03  0.96109253678E+02 -0.17699155234E+03  0.23745246712E+03  0.00000000000E+00 0. -1.
         -4    1    3    3    0  502 -0.46753210349E+03  0.43107891963E+03 -0.10013899164E+04  0.11862533740E+04  0.00000000000E+00 0.  1.
         11    1    5    5    0    0  0.26600619225E+03 -0.70991232497E+02 -0.77968743207E+03  0.82686851503E+03  0.00000000000E+00 0. -1.
        -11    1    5    5    0    0  0.26451509934E+03 -0.14568177312E+03 -0.68617697996E+03  0.74968677767E+03  0.00000000000E+00 0.  1.
          3    1    6    6  503    0  0.70607054191E+00 -0.39247505815E+02 -0.20377281720E+02  0.44227806396E+02  0.00000000000E+00 0. -1.
         -3    1    6    6    0  503  0.62085009685E+02 -0.27126766188E+03  0.92741077888E+02  0.29332848538E+03  0.00000000000E+00 0.  1.
<mgrwt>
<rscale>  0 0.21275450E+04</rscale>
<asrwt>0</asrwt>
<pdfrwt beam="1">  1        2 0.45459225E+00 0.21275450E+04</pdfrwt>
<pdfrwt beam="2">  1       -2 0.58918105E-01 0.21275450E+04</pdfrwt>
<totfact> 0.46047586E+00</totfact>
</mgrwt>
</event>
<event>
12    2  0.3555611E-008  0.2295288E+04  0.7818608E-02  0.8479781E-01
         -1   -1    0    0    0  501 -0.00000000000E+00  0.00000000000E+00  0.76953652841E+03  0.76953652841E+03  0.00000000000E+00 0.  1.
          1   -1    0    0  501    0  0.00000000000E+00 -0.00000000000E+00 -0.17115326004E+04  0.17115326004E+04  0.00000000000E+00 0. -1.
         23    2    1    2    0    0  0.75815783694E+03 -0.16917792344E+03 -0.10267094221E+04  0.12907893856E+04  0.92631123942E+02 0.  0.
        254    2    1    2    0    0 -0.75815783694E+03  0.16917792344E+03  0.84713350136E+02  0.11902797432E+04  0.89786693880E+03 0.  0.
         23    2    4    4    0    0 -0.79763184059E+03  0.30497492036E+03 -0.17972877589E+03  0.87763572142E+03  0.93358296193E+02 0.  0.
         23    2    4    4    0    0  0.39474003643E+02 -0.13579699693E+03  0.26444212602E+03  0.31264402174E+03  0.88417334138E+02 0.  0.
          2    1    3    3  502    0  0.65624844942E+03 -0.17593588750E+03 -0.91089708045E+03  0.11363753583E+04  0.00000000000E+00 0. -1.
         -2    1    3    3    0  502  0.10190938753E+03  0.67579640639E+01 -0.11581234165E+03  0.15441402729E+03  0.00000000000E+00 0.  1.
         11    1    5    5    0    0 -0.33696388451E+02  0.75704218071E+01  0.10446231854E+02  0.36081596984E+02  0.00000000000E+00 0.  1.
        -11    1    5    5    0    0 -0.76393545214E+03  0.29740449856E+03 -0.19017500774E+03  0.84155412444E+03  0.00000000000E+00 0. -1.
          2    1    6    6  503    0  0.14309967880E+02 -0.67584270762E+02  0.47485582138E+02  0.83828929053E+02  0.00000000000E+00 0.  1.
         -2    1    6    6    0  503  0.25164035764E+02 -0.68212726164E+02  0.21695654388E+03  0.22881509269E+03  0.00000000000E+00 0. -1.
<mgrwt>
<rscale>  0 0.22952881E+04</rscale>
<asrwt>0</asrwt>
<pdfrwt beam="1">  1        1 0.26331271E+00 0.22952881E+04</pdfrwt>
<pdfrwt beam="2">  1       -1 0.11839024E+00 0.22952881E+04</pdfrwt>
<totfact> 0.27079777E+00</totfact>
</mgrwt>
</event>
<event>
12    2  0.3555611E-008  0.1486699E+04  0.7818608E-02  0.8893346E-01
         -1   -1    0    0    0  501 -0.00000000000E+00  0.00000000000E+00  0.77306822453E+03  0.77306822453E+03  0.00000000000E+00 0.  1.
          1   -1    0    0  501    0  0.00000000000E+00 -0.00000000000E+00 -0.71477332903E+03  0.71477332903E+03  0.00000000000E+00 0. -1.
         23    2    1    2    0    0  0.20023505827E+03 -0.38171342812E+03  0.19869850341E+03  0.48253964409E+03  0.86972369655E+02 0.  0.
        254    2    1    2    0    0 -0.20023505827E+03  0.38171342812E+03 -0.14040360791E+03  0.10053019095E+04  0.89728453476E+03 0.  0.
         23    2    4    4    0    0  0.30519700876E+03  0.21152578177E+03 -0.24701552964E+03  0.45528102876E+03  0.91519248036E+02 0.  0.
         23    2    4    4    0    0 -0.50543206703E+03  0.17018764635E+03  0.10661192173E+03  0.55002088072E+03  0.82045463121E+02 0.  0.
          2    1    3    3  502    0  0.13429169108E+03 -0.17104712525E+03  0.78573089553E+02  0.23122523165E+03  0.00000000000E+00 0. -1.
         -2    1    3    3    0  502  0.65943367195E+02 -0.21066630287E+03  0.12012541386E+03  0.25131441243E+03  0.00000000000E+00 0.  1.
         11    1    5    5    0    0  0.11011642446E+03  0.12555438339E+03 -0.13320710822E+03  0.21362037310E+03  0.00000000000E+00 0. -1.
        -11    1    5    5    0    0  0.19508058429E+03  0.85971398383E+02 -0.11380842142E+03  0.24166065566E+03  0.00000000000E+00 0.  1.
          2    1    6    6  503    0 -0.30431120478E+03  0.67634127370E+02  0.37867708655E+02  0.31402810049E+03  0.00000000000E+00 0. -1.
         -2    1    6    6    0  503 -0.20112086225E+03  0.10255351898E+03  0.68744213072E+02  0.23599278022E+03  0.00000000000E+00 0.  1.
<mgrwt>
<rscale>  0 0.14866991E+04</rscale>
<asrwt>0</asrwt>
<pdfrwt beam="1">  1        1 0.10996513E+00 0.14866991E+04</pdfrwt>
<pdfrwt beam="2">  1       -1 0.11893357E+00 0.14866991E+04</pdfrwt>
<totfact> 0.16174788E+01</totfact>
</mgrwt>
</event>
<event>
12    2  0.3555611E-008  0.1532680E+04  0.7818608E-02  0.8863007E-01
          3   -1    0    0  501    0  0.00000000000E+00  0.00000000000E+00  0.57005008834E+03  0.57005008834E+03  0.00000000000E+00 0. -1.
         -3   -1    0    0    0  501 -0.00000000000E+00 -0.00000000000E+00 -0.10302199380E+04  0.10302199380E+04  0.00000000000E+00 0.  1.
         23    2    1    2    0    0 -0.41871515249E+02 -0.49204380703E+03 -0.16840650585E+03  0.52939760191E+03  0.89670161531E+02 0.  0.
        254    2    1    2    0    0  0.41871515249E+02  0.49204380703E+03 -0.29176334383E+03  0.10708724245E+04  0.90431276052E+03 0.  0.
         23    2    4    4    0    0  0.29875977112E+03 -0.13714587141E+03 -0.13972739593E+03  0.36847723583E+03  0.90472853789E+02 0.  0.
         23    2    4    4    0    0 -0.25688825587E+03  0.62918967843E+03 -0.15203594790E+03  0.70239518863E+03  0.91503246399E+02 0.  0.
          3    1    3    3  502    0 -0.41644103430E+02 -0.49609352427E+03 -0.16687982563E+03  0.52506370316E+03  0.00000000000E+00 0. -1.
         -3    1    3    3    0  502 -0.22741181925E+00  0.40497172414E+01 -0.15266802182E+01  0.43338987482E+01  0.00000000000E+00 0.  1.
         11    1    5    5    0    0  0.24894318677E+03 -0.10978746241E+03 -0.15005350349E+03  0.31071216753E+03  0.00000000000E+00 0.  1.
        -11    1    5    5    0    0  0.49816584346E+02 -0.27358409000E+02  0.10326107559E+02  0.57765068305E+02  0.00000000000E+00 0. -1.
          2    1    6    6  503    0 -0.57278624771E+02  0.25420808121E+03 -0.68901032667E+02  0.26953653131E+03  0.00000000000E+00 0. -1.
         -2    1    6    6    0  503 -0.19960963110E+03  0.37498159722E+03 -0.83134915235E+02  0.43285865732E+03  0.00000000000E+00 0.  1.
<mgrwt>
<rscale>  0 0.15326800E+04</rscale>
<asrwt>0</asrwt>
<pdfrwt beam="1">  1        3 0.87700014E-01 0.15326800E+04</pdfrwt>
<pdfrwt beam="2">  1       -3 0.15849538E+00 0.15326800E+04</pdfrwt>
<totfact> 0.83377629E-01</totfact>
</mgrwt>
</event>
<event>
12    2  0.3555611E-008  0.1341528E+04  0.7818608E-02  0.8997266E-01
          2   -1    0    0  501    0  0.00000000000E+00  0.00000000000E+00  0.68471456611E+03  0.68471456611E+03  0.00000000000E+00 0. -1.
         -2   -1    0    0    0  501 -0.00000000000E+00 -0.00000000000E+00 -0.65709799309E+03  0.65709799309E+03  0.00000000000E+00 0.  1.
         23    2    1    2    0    0  0.25907576179E+03 -0.10107706736E+03 -0.23838622796E+03  0.37767382933E+03  0.92047291068E+02 0.  0.
        254    2    1    2    0    0 -0.25907576179E+03  0.10107706736E+03  0.26600280098E+03  0.96413872986E+03  0.88400745269E+03 0.  0.
         23    2    4    4    0    0  0.69155491165E+02  0.41604992660E+03  0.48360559183E+01  0.43165452011E+03  0.91772620696E+02 0.  0.
         23    2    4    4    0    0 -0.32823125295E+03 -0.31497285925E+03  0.26116674506E+03  0.53248420975E+03  0.91584427893E+02 0.  0.
          1    1    3    3  502    0  0.64452788278E+01  0.91971825723E+01  0.26092580701E+01  0.11529874852E+02  0.00000000000E+00 0. -1.
         -1    1    3    3    0  502  0.25263048296E+03 -0.11027424993E+03 -0.24099548603E+03  0.36614395448E+03  0.00000000000E+00 0.  1.
         11    1    5    5    0    0  0.38451289532E+02  0.38810166123E+03  0.15434186943E+01  0.39000485030E+03  0.00000000000E+00 0. -1.
        -11    1    5    5    0    0  0.30704201633E+02  0.27948265371E+02  0.32926372240E+01  0.41649669808E+02  0.00000000000E+00 0.  1.
          4    1    6    6  503    0 -0.17100433504E+03 -0.11008356039E+03  0.88357592941E+02  0.22173844299E+03  0.00000000000E+00 0.  1.
         -4    1    6    6    0  503 -0.15722691791E+03 -0.20488929886E+03  0.17280915212E+03  0.31074576676E+03  0.00000000000E+00 0. -1.
<mgrwt>
<rscale>  0 0.13415283E+04</rscale>
<asrwt>0</asrwt>
<pdfrwt beam="1">  1        2 0.10534070E+00 0.13415283E+04</pdfrwt>
<pdfrwt beam="2">  1       -2 0.10109200E+00 0.13415283E+04</pdfrwt>
<totfact> 0.33153332E+01</totfact>
</mgrwt>
</event>
<event>
12    2  0.3555611E-008  0.1785071E+04  0.7818608E-02  0.8714279E-01
          2   -1    0    0  501    0  0.00000000000E+00  0.00000000000E+00  0.17909890755E+04  0.17909890755E+04  0.00000000000E+00 0.  1.
         -2   -1    0    0    0  501 -0.00000000000E+00 -0.00000000000E+00 -0.44479304630E+03  0.44479304630E+03  0.00000000000E+00 0. -1.
         23    2    1    2    0    0  0.43636055215E+03  0.42874238053E+03  0.80497930094E+03  0.10152315767E+04  0.92048460211E+02 0.  0.
        254    2    1    2    0    0 -0.43636055215E+03 -0.42874238053E+03  0.54121672827E+03  0.12205505451E+04  0.90697162355E+03 0.  0.
         23    2    4    4    0    0 -0.69665633109E+03 -0.40233521102E+03  0.34535067272E+03  0.88012525237E+03  0.90275727789E+02 0.  0.
         23    2    4    4    0    0  0.26029577895E+03 -0.26407169503E+02  0.19586605556E+03  0.34042529276E+03  0.95260889632E+02 0.  0.
          4    1    3    3  502    0  0.18683382114E+03  0.18179956146E+03  0.26965387215E+03  0.37506155233E+03  0.00000000000E+00 0. -1.
         -4    1    3    3    0  502  0.24952673100E+03  0.24694281906E+03  0.53532542879E+03  0.64017002436E+03  0.00000000000E+00 0.  1.
         11    1    5    5    0    0 -0.22771342682E+01 -0.59118949190E+01 -0.40783829706E+01  0.75345238511E+01  0.00000000000E+00 0.  1.
        -11    1    5    5    0    0 -0.69437919682E+03 -0.39642331611E+03  0.34942905569E+03  0.87259072852E+03  0.00000000000E+00 0. -1.
          3    1    6    6  503    0  0.25929340709E+03 -0.37402848930E+02  0.16999992239E+03  0.31230116504E+03  0.00000000000E+00 0. -1.
         -3    1    6    6    0  503  0.10023718549E+01  0.10995679428E+02  0.25866133165E+02  0.28124127725E+02  0.00000000000E+00 0.  1.
<mgrwt>
<rscale>  0 0.17850709E+04</rscale>
<asrwt>0</asrwt>
<pdfrwt beam="1">  1        2 0.27553678E+00 0.17850709E+04</pdfrwt>
<pdfrwt beam="2">  1       -2 0.68429700E-01 0.17850709E+04</pdfrwt>
<totfact> 0.16113179E+01</totfact>
</mgrwt>
</event>
<event>
12    2  0.3555611E-008  0.1664156E+04  0.7818608E-02  0.8782076E-01
         -2   -1    0    0    0  501 -0.00000000000E+00  0.00000000000E+00  0.36378870212E+03  0.36378870212E+03  0.00000000000E+00 0.  1.
          2   -1    0    0  501    0  0.00000000000E+00 -0.00000000000E+00 -0.19031748784E+04  0.19031748784E+04  0.00000000000E+00 0. -1.
         23    2    1    2    0    0  0.16543369429E+03 -0.56753807270E+03 -0.54416451766E+03  0.80862858145E+03  0.91090006474E+02 0.  0.
        254    2    1    2    0    0 -0.16543369429E+03  0.56753807270E+03 -0.99522165860E+03  0.14583349991E+04  0.88702144763E+03 0.  0.
         23    2    4    4    0    0 -0.17451890114E+03  0.78037509096E+03 -0.61378727809E+03  0.10122261160E+04  0.91786479450E+02 0.  0.
         23    2    4    4    0    0  0.90852068490E+01 -0.21283701826E+03 -0.38143438051E+03  0.44610888301E+03  0.90215362017E+02 0.  0.
          4    1    3    3  502    0  0.48205364503E+02 -0.18892335540E+03 -0.12423656485E+03  0.23119367515E+03  0.00000000000E+00 0. -1.
         -4    1    3    3    0  502  0.11722832979E+03 -0.37861471730E+03 -0.41992795281E+03  0.57743490630E+03  0.00000000000E+00 0.  1.
         11    1    5    5    0    0 -0.13688001339E+03  0.53380093671E+03 -0.37227804627E+03  0.66503422606E+03  0.00000000000E+00 0.  1.
        -11    1    5    5    0    0 -0.37638887749E+02  0.24657415425E+03 -0.24150923182E+03  0.34719188998E+03  0.00000000000E+00 0. -1.
          1    1    6    6  503    0  0.39028425099E+02 -0.85766497219E+02 -0.21373462021E+03  0.23358424152E+03  0.00000000000E+00 0. -1.
         -1    1    6    6    0  503 -0.29943218250E+02 -0.12707052104E+03 -0.16769976029E+03  0.21252464149E+03  0.00000000000E+00 0.  1.
<mgrwt>
<rscale>  0 0.16641557E+04</rscale>
<asrwt>0</asrwt>
<pdfrwt beam="1">  1        2 0.29279613E+00 0.16641557E+04</pdfrwt>
<pdfrwt beam="2">  1       -2 0.55967493E-01 0.16641557E+04</pdfrwt>
<totfact> 0.21634663E+01</totfact>
</mgrwt>
</event>
<event>
12    2  0.3555611E-008  0.3688095E+04  0.7818608E-02  0.8070605E-01
         -1   -1    0    0    0  501 -0.00000000000E+00  0.00000000000E+00  0.16706088756E+04  0.16706088756E+04  0.00000000000E+00 0.  1.
          1   -1    0    0  501    0  0.00000000000E+00 -0.00000000000E+00 -0.20354917486E+04  0.20354917486E+04  0.00000000000E+00 0. -1.
         23    2    1    2    0    0  0.17281461752E+03  0.14512718145E+04 -0.11092214498E+04  0.18370243965E+04  0.90728368807E+02 0.  0.
        254    2    1    2    0    0 -0.17281461752E+03 -0.14512718145E+04  0.74433857683E+03  0.18690762277E+04  0.89629864238E+03 0.  0.
         23    2    4    4    0    0 -0.42736460933E+01  0.14475945087E+02  0.31658793136E+03  0.33008820821E+03  0.92208946829E+02 0.  0.
         23    2    4    4    0    0 -0.16854097143E+03 -0.14657477596E+04  0.42775064547E+03  0.15389880195E+04  0.93225294817E+02 0.  0.
          3    1    3    3  502    0  0.16060801465E+03  0.10093934881E+04 -0.78821690747E+03  0.12907191954E+04  0.00000000000E+00 0. -1.
         -3    1    3    3    0  502  0.12206602864E+02  0.44187832637E+03 -0.32100454236E+03  0.54630520104E+03  0.00000000000E+00 0.  1.
         11    1    5    5    0    0  0.98936763864E+01 -0.94183838652E+01  0.14592445925E+01  0.13737546428E+02  0.00000000000E+00 0. -1.
        -11    1    5    5    0    0 -0.14167322480E+02  0.23894328953E+02  0.31512868677E+03  0.31635066178E+03  0.00000000000E+00 0.  1.
          4    1    6    6  503    0 -0.11918601156E+03 -0.96442685845E+03  0.32667727331E+03  0.10252036439E+04  0.00000000000E+00 0. -1.
         -4    1    6    6    0  503 -0.49354959864E+02 -0.50132090116E+03  0.10107337216E+03  0.51378437555E+03  0.00000000000E+00 0.  1.
<mgrwt>
<rscale>  0 0.36880947E+04</rscale>
<asrwt>0</asrwt>
<pdfrwt beam="1">  1        1 0.31315258E+00 0.36880947E+04</pdfrwt>
<pdfrwt beam="2">  1       -1 0.25701675E+00 0.36880947E+04</pdfrwt>
<totfact> 0.14207055E-01</totfact>
</mgrwt>
</event>
<event>
12    2  0.3555611E-008  0.3581416E+04  0.7818608E-02  0.8094762E-01
          1   -1    0    0  501    0  0.00000000000E+00  0.00000000000E+00  0.22123719421E+04  0.22123719421E+04  0.00000000000E+00 0. -1.
         -1   -1    0    0    0  501 -0.00000000000E+00 -0.00000000000E+00 -0.14494106341E+04  0.14494106341E+04  0.00000000000E+00 0.  1.
         23    2    1    2    0    0 -0.53266620693E+03 -0.75910147270E+02  0.19822559833E+04  0.20562137042E+04  0.95814276794E+02 0.  0.
        254    2    1    2    0    0  0.53266620693E+03  0.75910147270E+02 -0.12192946753E+04  0.16055688720E+04  0.89536375797E+03 0.  0.
         23    2    4    4    0    0  0.40763224403E+03 -0.37476039696E+03 -0.75281369544E+03  0.93877218959E+03  0.89192838319E+02 0.  0.
         23    2    4    4    0    0  0.12503396290E+03  0.45067054423E+03 -0.46648097981E+03  0.66679668238E+03  0.90971862646E+02 0.  0.
          1    1    3    3  502    0 -0.35930206876E+03 -0.86587686998E+01  0.13683829818E+04  0.14147950154E+04  0.00000000000E+00 0. -1.
         -1    1    3    3    0  502 -0.17336413817E+03 -0.67251378571E+02  0.61387300155E+03  0.64141868881E+03  0.00000000000E+00 0.  1.
         11    1    5    5    0    0  0.31389046061E+03 -0.23376180116E+03 -0.51470105204E+03  0.64659800024E+03  0.00000000000E+00 0. -1.
        -11    1    5    5    0    0  0.93741783415E+02 -0.14099859580E+03 -0.23811264340E+03  0.29217418935E+03  0.00000000000E+00 0.  1.
          1    1    6    6  503    0  0.74816458281E+02  0.38213501570E+03 -0.35752694122E+03  0.52863048186E+03  0.00000000000E+00 0. -1.
         -1    1    6    6    0  503  0.50217504623E+02  0.68535528536E+02 -0.10895403859E+03  0.13816620053E+03  0.00000000000E+00 0.  1.
<mgrwt>
<rscale>  0 0.35814162E+04</rscale>
<asrwt>0</asrwt>
<pdfrwt beam="1">  1        1 0.34036491E+00 0.35814162E+04</pdfrwt>
<pdfrwt beam="2">  1       -1 0.22298625E+00 0.35814162E+04</pdfrwt>
<totfact> 0.18197127E-01</totfact>
</mgrwt>
</event>
<event>
12    2  0.3555611E-008  0.2309198E+04  0.7818608E-02  0.8474303E-01
          2   -1    0    0  501    0  0.00000000000E+00  0.00000000000E+00  0.17510733606E+04  0.17510733606E+04  0.00000000000E+00 0. -1.
         -2   -1    0    0    0  501 -0.00000000000E+00 -0.00000000000E+00 -0.76130373597E+03  0.76130373597E+03  0.00000000000E+00 0.  1.
         23    2    1    2    0    0 -0.49905142790E+03 -0.54334701995E+03  0.11133408317E+04  0.13387756926E+04  0.92272616709E+02 0.  0.
        254    2    1    2    0    0  0.49905142790E+03  0.54334701995E+03 -0.12357120700E+03  0.11736014040E+04  0.90431858355E+03 0.  0.
         23    2    4    4    0    0  0.60308545403E+03  0.84025162189E+02  0.13232443111E+03  0.62982046347E+03  0.91606595820E+02 0.  0.
         23    2    4    4    0    0 -0.10403402613E+03  0.45932185777E+03 -0.25589563812E+03  0.54378094056E+03  0.91735958557E+02 0.  0.
          1    1    3    3  502    0 -0.45076321473E+03 -0.47632114703E+03  0.93305946879E+03  0.11404688874E+04  0.00000000000E+00 0. -1.
         -1    1    3    3    0  502 -0.48288213164E+02 -0.67025872925E+02  0.18028136288E+03  0.19830680516E+03  0.00000000000E+00 0.  1.
         11    1    5    5    0    0  0.49056016582E+03  0.70769704249E+02  0.14342881116E+03  0.51597427378E+03  0.00000000000E+00 0. -1.
        -11    1    5    5    0    0  0.11252528820E+03  0.13255457940E+02 -0.11104380052E+02  0.11384618969E+03  0.00000000000E+00 0.  1.
          1    1    6    6  503    0 -0.64912481895E+02  0.18011640329E+03 -0.14767059484E+03  0.24178948203E+03  0.00000000000E+00 0. -1.
         -1    1    6    6    0  503 -0.39121544237E+02  0.27920545447E+03 -0.10822504328E+03  0.30199145853E+03  0.00000000000E+00 0.  1.
<mgrwt>
<rscale>  0 0.23091979E+04</rscale>
<asrwt>0</asrwt>
<pdfrwt beam="1">  1        2 0.26939590E+00 0.23091979E+04</pdfrwt>
<pdfrwt beam="2">  1       -2 0.11712365E+00 0.23091979E+04</pdfrwt>
<totfact> 0.46924335E+00</totfact>
</mgrwt>
</event>
<event>
12    2  0.3555611E-008  0.1215358E+04  0.7818608E-02  0.9099519E-01
         -1   -1    0    0    0  501 -0.00000000000E+00  0.00000000000E+00  0.60962051450E+03  0.60962051450E+03  0.00000000000E+00 0.  1.
          1   -1    0    0  501    0  0.00000000000E+00 -0.00000000000E+00 -0.60574345334E+03  0.60574345334E+03  0.00000000000E+00 0. -1.
         23    2    1    2    0    0  0.12027455516E+03  0.21015468817E+03 -0.96964694293E+02  0.27639921909E+03  0.91451707470E+02 0.  0.
        254    2    1    2    0    0 -0.12027455516E+03 -0.21015468817E+03  0.10084175545E+03  0.93896474875E+03  0.90158459291E+03 0.  0.
         23    2    4    4    0    0 -0.21448554747E+03  0.21843131978E+03 -0.21982254189E+03  0.38786385448E+03  0.91652213021E+02 0.  0.
         23    2    4    4    0    0  0.94210992307E+02 -0.42858600795E+03  0.32066429734E+03  0.55110089427E+03  0.91241036797E+02 0.  0.
          1    1    3    3  502    0  0.80372209437E+02  0.15733142725E+03 -0.11110754109E+03  0.20870494900E+03  0.00000000000E+00 0. -1.
         -1    1    3    3    0  502  0.39902345723E+02  0.52823260913E+02  0.14142846796E+02  0.67694270091E+02  0.00000000000E+00 0.  1.
         11    1    5    5    0    0 -0.18842476191E+03  0.21652600042E+03 -0.22014160197E+03  0.36173156439E+03  0.00000000000E+00 0.  1.
        -11    1    5    5    0    0 -0.26060785560E+02  0.19053193602E+01  0.31906007651E+00  0.26132290087E+02  0.00000000000E+00 0. -1.
          2    1    6    6  503    0  0.21475460033E+02 -0.73445374173E+02  0.17421266986E+02  0.78478780027E+02  0.00000000000E+00 0. -1.
         -2    1    6    6    0  503  0.72735532274E+02 -0.35514063378E+03  0.30324303035E+03  0.47262211424E+03  0.00000000000E+00 0.  1.
<mgrwt>
<rscale>  0 0.12153578E+04</rscale>
<asrwt>0</asrwt>
<pdfrwt beam="1">  1        1 0.93191300E-01 0.12153578E+04</pdfrwt>
<pdfrwt beam="2">  1       -1 0.93787772E-01 0.12153578E+04</pdfrwt>
<totfact> 0.36824001E+01</totfact>
</mgrwt>
</event>
<event>
12    2  0.3555611E-008  0.2482752E+04  0.7818608E-02  0.8409156E-01
          1   -1    0    0  501    0  0.00000000000E+00  0.00000000000E+00  0.13176539349E+04  0.13176539349E+04  0.00000000000E+00 0. -1.
         -1   -1    0    0    0  501 -0.00000000000E+00 -0.00000000000E+00 -0.11695135950E+04  0.11695135950E+04  0.00000000000E+00 0.  1.
         23    2    1    2    0    0 -0.78025917532E+03  0.50182690850E+03  0.60915023736E+03  0.11136049682E+04  0.91746317287E+02 0.  0.
        254    2    1    2    0    0  0.78025917532E+03 -0.50182690850E+03 -0.46100989748E+03  0.13735625617E+04  0.90194753647E+03 0.  0.
         23    2    4    4    0    0  0.34755149796E+02  0.32541280566E+01 -0.45817830083E+03  0.46849638001E+03  0.91339985440E+02 0.  0.
         23    2    4    4    0    0  0.74550402553E+03 -0.50508103655E+03 -0.28315966499E+01  0.90506618168E+03  0.90849709552E+02 0.  0.
          4    1    3    3  502    0 -0.75681712669E+03  0.46415541662E+03  0.57775712268E+03  0.10592524283E+04  0.00000000000E+00 0. -1.
         -4    1    3    3    0  502 -0.23442048634E+02  0.37671491880E+02  0.31393114684E+02  0.54352539906E+02  0.00000000000E+00 0.  1.
         11    1    5    5    0    0 -0.18969705650E+02  0.25971277781E+02 -0.86830738852E+02  0.92595540991E+02  0.00000000000E+00 0. -1.
        -11    1    5    5    0    0  0.53724855445E+02 -0.22717149724E+02 -0.37134756198E+03  0.37590083902E+03  0.00000000000E+00 0.  1.
          4    1    6    6  503    0  0.17037294476E+03 -0.72638822709E+02  0.84949412642E+01  0.18540631839E+03  0.00000000000E+00 0. -1.
         -4    1    6    6    0  503  0.57513108076E+03 -0.43244221384E+03 -0.11326537914E+02  0.71965986329E+03  0.00000000000E+00 0.  1.
<mgrwt>
<rscale>  0 0.24827519E+04</rscale>
<asrwt>0</asrwt>
<pdfrwt beam="1">  1        1 0.20271599E+00 0.24827519E+04</pdfrwt>
<pdfrwt beam="2">  1       -1 0.17992517E+00 0.24827519E+04</pdfrwt>
<totfact> 0.16290781E+00</totfact>
</mgrwt>
</event>
<event>
12    2  0.3555611E-008  0.1038741E+04  0.7818608E-02  0.9267047E-01
          1   -1    0    0  501    0  0.00000000000E+00  0.00000000000E+00  0.12641010166E+04  0.12641010166E+04  0.00000000000E+00 0. -1.
         -1   -1    0    0    0  501 -0.00000000000E+00 -0.00000000000E+00 -0.21338917362E+03  0.21338917362E+03  0.00000000000E+00 0.  1.
         23    2    1    2    0    0 -0.24799267213E+02 -0.29415898451E+02  0.26454650797E+03  0.28207160186E+03  0.89995749674E+02 0.  0.
        254    2    1    2    0    0  0.24799267213E+02  0.29415898451E+02  0.78616533498E+03  0.11954185883E+04  0.89971627122E+03 0.  0.
         23    2    4    4    0    0 -0.23983609467E+03  0.36286640890E+03  0.52604391949E+03  0.68857645854E+03  0.90674974511E+02 0.  0.
         23    2    4    4    0    0  0.26463536188E+03 -0.33345051045E+03  0.26012141549E+03  0.50684212980E+03  0.89468855323E+02 0.  0.
          1    1    3    3  502    0  0.24036088924E+02  0.16245828171E+02  0.10837645010E+03  0.11219231453E+03  0.00000000000E+00 0. -1.
         -1    1    3    3    0  502 -0.48835356137E+02 -0.45661726622E+02  0.15617005787E+03  0.16987928733E+03  0.00000000000E+00 0.  1.
         11    1    5    5    0    0 -0.24761242178E+03  0.35685692733E+03  0.51678104610E+03  0.67507142408E+03  0.00000000000E+00 0. -1.
        -11    1    5    5    0    0  0.77763271145E+01  0.60094815675E+01  0.92628733955E+01  0.13505034455E+02  0.00000000000E+00 0.  1.
          3    1    6    6  503    0  0.21501920853E+03 -0.25177444036E+03  0.15760828184E+03  0.36669333149E+03  0.00000000000E+00 0. -1.
         -3    1    6    6    0  503  0.49616153347E+02 -0.81676070094E+02  0.10251313364E+03  0.14014879831E+03  0.00000000000E+00 0.  1.
<mgrwt>
<rscale>  0 0.10387405E+04</rscale>
<asrwt>0</asrwt>
<pdfrwt beam="1">  1        1 0.19447708E+00 0.10387405E+04</pdfrwt>
<pdfrwt beam="2">  1       -1 0.32829104E-01 0.10387405E+04</pdfrwt>
<totfact> 0.83470632E+01</totfact>
</mgrwt>
</event>
<event>
12    2  0.3555611E-008  0.1586395E+04  0.7818608E-02  0.8828950E-01
         -2   -1    0    0    0  501 -0.00000000000E+00  0.00000000000E+00  0.24736829800E+03  0.24736829800E+03  0.00000000000E+00 0.  1.
          2   -1    0    0  501    0  0.00000000000E+00 -0.00000000000E+00 -0.25434235223E+04  0.25434235223E+04  0.00000000000E+00 0. -1.
         23    2    1    2    0    0 -0.14963669523E+03 -0.32391662797E+03 -0.14950428683E+04  0.15393945635E+04  0.85260318031E+02 0.  0.
        254    2    1    2    0    0  0.14963669523E+03  0.32391662797E+03 -0.80101235599E+03  0.12513972567E+04  0.89278282760E+03 0.  0.
         23    2    4    4    0    0  0.44980517301E+03  0.36534278797E+03 -0.29977359503E+03  0.65882499335E+03  0.91575745611E+02 0.  0.
         23    2    4    4    0    0 -0.30016847779E+03 -0.41426160001E+02 -0.50123876096E+03  0.59257226338E+03  0.89913013804E+02 0.  0.
          4    1    3    3  502    0 -0.10764197660E+03 -0.23566019935E+03 -0.90669855942E+03  0.94298716976E+03  0.00000000000E+00 0. -1.
         -4    1    3    3    0  502 -0.41994718625E+02 -0.88256428625E+02 -0.58834430884E+03  0.59640739376E+03  0.00000000000E+00 0.  1.
         11    1    5    5    0    0  0.32699984180E+03  0.25116830331E+03 -0.16667916425E+03  0.44474302346E+03  0.00000000000E+00 0. -1.
        -11    1    5    5    0    0  0.12280533121E+03  0.11417448466E+03 -0.13309443079E+03  0.21408196989E+03  0.00000000000E+00 0.  1.
          3    1    6    6  503    0 -0.26058294603E+03 -0.62193704039E+02 -0.39466720494E+03  0.47700495934E+03  0.00000000000E+00 0. -1.
         -3    1    6    6    0  503 -0.39585531753E+02  0.20767544038E+02 -0.10657155602E+03  0.11556730404E+03  0.00000000000E+00 0.  1.
<mgrwt>
<rscale>  0 0.15863951E+04</rscale>
<asrwt>0</asrwt>
<pdfrwt beam="1">  1        2 0.39129592E+00 0.15863951E+04</pdfrwt>
<pdfrwt beam="2">  1       -2 0.38056662E-01 0.15863951E+04</pdfrwt>
<totfact> 0.20601396E+01</totfact>
</mgrwt>
</event>
<event>
12    2  0.3555611E-008  0.3173246E+04  0.7818608E-02  0.8195919E-01
          1   -1    0    0  501    0  0.00000000000E+00  0.00000000000E+00  0.14369370892E+04  0.14369370892E+04  0.00000000000E+00 0. -1.
         -1   -1    0    0    0  501 -0.00000000000E+00 -0.00000000000E+00 -0.17519015652E+04  0.17519015652E+04  0.00000000000E+00 0.  1.
         23    2    1    2    0    0  0.79189412987E+02 -0.15684203653E+03 -0.15972969721E+04  0.16095535346E+04  0.91839947119E+02 0.  0.
        254    2    1    2    0    0 -0.79189412987E+02  0.15684203653E+03  0.12823324961E+04  0.15792851198E+04  0.90492788181E+03 0.  0.
         23    2    4    4    0    0 -0.14272241143E+03  0.17561203336E+03  0.13987959344E+04  0.14199570254E+04  0.91861933895E+02 0.  0.
         23    2    4    4    0    0  0.63532998440E+02 -0.18769996830E+02 -0.11646343827E+03  0.15932809436E+03  0.86214584187E+02 0.  0.
          3    1    3    3  502    0 -0.84353253753E+01  0.31412912231E+01 -0.22583849988E+03  0.22601781004E+03  0.00000000000E+00 0. -1.
         -3    1    3    3    0  502  0.87624738362E+02 -0.15998332775E+03 -0.13714584722E+04  0.13835357245E+04  0.00000000000E+00 0.  1.
         11    1    5    5    0    0 -0.11646896398E+02  0.24285124773E+02  0.54037417763E+02  0.60377644865E+02  0.00000000000E+00 0.  1.
        -11    1    5    5    0    0 -0.13107551503E+03  0.15132690859E+03  0.13447585166E+04  0.13595793805E+04  0.00000000000E+00 0. -1.
          3    1    6    6  503    0  0.34273695131E+02 -0.52409164516E+02 -0.80859464872E+02  0.10227247803E+03  0.00000000000E+00 0. -1.
         -3    1    6    6    0  503  0.29259303309E+02  0.33639167686E+02 -0.35603973394E+02  0.57055616325E+02  0.00000000000E+00 0.  1.
<mgrwt>
<rscale>  0 0.31732459E+04</rscale>
<asrwt>0</asrwt>
<pdfrwt beam="1">  1        1 0.22106724E+00 0.31732459E+04</pdfrwt>
<pdfrwt beam="2">  1       -1 0.26952332E+00 0.31732459E+04</pdfrwt>
<totfact> 0.31583162E-01</totfact>
</mgrwt>
</event>
<event>
12    2  0.3555611E-008  0.1092290E+04  0.7818608E-02  0.9212739E-01
          2   -1    0    0  501    0  0.00000000000E+00  0.00000000000E+00  0.15583308301E+04  0.15583308301E+04  0.00000000000E+00 0. -1.
         -2   -1    0    0    0  501 -0.00000000000E+00 -0.00000000000E+00 -0.19140634399E+03  0.19140634399E+03  0.00000000000E+00 0.  1.
         23    2    1    2    0    0  0.39475893584E+02  0.35762913722E+02  0.37044837650E+03  0.38506552147E+03  0.90587659199E+02 0.  0.
        254    2    1    2    0    0 -0.39475893584E+02 -0.35762913722E+02  0.99647610956E+03  0.13646716526E+04  0.93087418604E+03 0.  0.
         23    2    4    4    0    0  0.34096621175E+03 -0.78370732383E+02  0.84526374506E+02  0.37153509517E+03  0.92161215823E+02 0.  0.
         23    2    4    4    0    0 -0.38044210534E+03  0.42607818661E+02  0.91194973505E+03  0.99313655741E+03  0.90090402746E+02 0.  0.
          4    1    3    3  502    0  0.65011982567E+02  0.15504135238E+02  0.18340922996E+03  0.19520727887E+03  0.00000000000E+00 0. -1.
         -4    1    3    3    0  502 -0.25536088983E+02  0.20258778484E+02  0.18703914654E+03  0.18985824260E+03  0.00000000000E+00 0.  1.
         11    1    5    5    0    0  0.83123801374E+01 -0.23023768567E+02  0.36879818133E+01  0.24754611539E+02  0.00000000000E+00 0.  1.
        -11    1    5    5    0    0  0.33265383162E+03 -0.55346963816E+02  0.80838392692E+02  0.34678048363E+03  0.00000000000E+00 0. -1.
          3    1    6    6  503    0 -0.19147614268E+03 -0.21529087382E+02  0.41191110676E+03  0.45474979350E+03  0.00000000000E+00 0. -1.
         -3    1    6    6    0  503 -0.18896596266E+03  0.64136906043E+02  0.50003862830E+03  0.53838676391E+03  0.00000000000E+00 0.  1.
<mgrwt>
<rscale>  0 0.10922901E+04</rscale>
<asrwt>0</asrwt>
<pdfrwt beam="1">  1        2 0.23974320E+00 0.10922901E+04</pdfrwt>
<pdfrwt beam="2">  1       -2 0.29447131E-01 0.10922901E+04</pdfrwt>
<totfact> 0.12402917E+02</totfact>
</mgrwt>
</event>
<event>
12    2  0.3555611E-008  0.1689705E+04  0.7818608E-02  0.8767258E-01
         -3   -1    0    0    0  501 -0.00000000000E+00  0.00000000000E+00  0.17525757178E+04  0.17525757178E+04  0.00000000000E+00 0.  1.
          3   -1    0    0  501    0  0.00000000000E+00 -0.00000000000E+00 -0.40727253052E+03  0.40727253052E+03  0.00000000000E+00 0. -1.
         23    2    1    2    0    0 -0.98188121404E+02  0.55395907986E+03  0.20524394125E+03  0.60543193516E+03  0.88944833158E+02 0.  0.
        254    2    1    2    0    0  0.98188121404E+02 -0.55395907986E+03  0.11400592460E+04  0.15544163132E+04  0.89440674239E+03 0.  0.
         23    2    4    4    0    0  0.20411194742E+03  0.37402595709E+02 -0.38675670324E+02  0.22903373622E+03  0.88881964470E+02 0.  0.
         23    2    4    4    0    0 -0.10592382602E+03 -0.59136167557E+03  0.11787349164E+04  0.13253825769E+04  0.79337784001E+02 0.  0.
          1    1    3    3  502    0 -0.40116762442E+02  0.33057903722E+03  0.78559913942E+02  0.34214545819E+03  0.00000000000E+00 0. -1.
         -1    1    3    3    0  502 -0.58071358962E+02  0.22338004264E+03  0.12668402731E+03  0.26328647697E+03  0.00000000000E+00 0.  1.
         11    1    5    5    0    0  0.88854549508E+02  0.50209738917E+02  0.11445225758E+02  0.10269927966E+03  0.00000000000E+00 0.  1.
        -11    1    5    5    0    0  0.11525739791E+03 -0.12807143208E+02 -0.50120896082E+02  0.12633445656E+03  0.00000000000E+00 0. -1.
          3    1    6    6  503    0 -0.48550145002E+02 -0.42435025281E+03  0.88439133507E+03  0.98212946559E+03  0.00000000000E+00 0. -1.
         -3    1    6    6    0  503 -0.57373681015E+02 -0.16701142276E+03  0.29434358130E+03  0.34325311136E+03  0.00000000000E+00 0.  1.
<mgrwt>
<rscale>  0 0.16897052E+04</rscale>
<asrwt>0</asrwt>
<pdfrwt beam="1">  1        3 0.62657314E-01 0.16897052E+04</pdfrwt>
<pdfrwt beam="2">  1       -3 0.26962703E+00 0.16897052E+04</pdfrwt>
<totfact> 0.34876386E-01</totfact>
</mgrwt>
</event>
<event>
12    2  0.3555611E-008  0.2962777E+04  0.7818608E-02  0.8254441E-01
         -2   -1    0    0    0  501 -0.00000000000E+00  0.00000000000E+00  0.18070121291E+04  0.18070121291E+04  0.00000000000E+00 0.  1.
          2   -1    0    0  501    0  0.00000000000E+00 -0.00000000000E+00 -0.12144426266E+04  0.12144426266E+04  0.00000000000E+00 0. -1.
         23    2    1    2    0    0 -0.10961701943E+03  0.58772115550E+03  0.14952866274E+04  0.16129460313E+04  0.90998648444E+02 0.  0.
        254    2    1    2    0    0  0.10961701943E+03 -0.58772115550E+03 -0.90271712485E+03  0.14085087244E+04  0.90086989725E+03 0.  0.
         23    2    4    4    0    0 -0.38631805754E+03 -0.19214322126E+03 -0.38002521321E+03  0.58095058186E+03  0.83209115086E+02 0.  0.
         23    2    4    4    0    0  0.49593507696E+03 -0.39557793425E+03 -0.52269191164E+03  0.82755814258E+03  0.95979905409E+02 0.  0.
          2    1    3    3  502    0 -0.22943309613E+02  0.29826856320E+03  0.82986796379E+03  0.88214022047E+03  0.00000000000E+00 0. -1.
         -2    1    3    3    0  502 -0.86673709814E+02  0.28945259230E+03  0.66541866364E+03  0.73080581079E+03  0.00000000000E+00 0.  1.
         11    1    5    5    0    0 -0.32364524446E+03 -0.19277279316E+03 -0.32822957310E+03  0.49964211862E+03  0.00000000000E+00 0.  1.
        -11    1    5    5    0    0 -0.62672813074E+02  0.62957190019E+00 -0.51795640107E+02  0.81308463234E+02  0.00000000000E+00 0. -1.
          1    1    6    6  503    0  0.20395878764E+01  0.42515197306E+01  0.63358588296E-01  0.47158618551E+01  0.00000000000E+00 0. -1.
         -1    1    6    6    0  503  0.49389548909E+03 -0.39982945398E+03 -0.52275527023E+03  0.82284228073E+03  0.00000000000E+00 0.  1.
<mgrwt>
<rscale>  0 0.29627775E+04</rscale>
<asrwt>0</asrwt>
<pdfrwt beam="1">  1        2 0.18683733E+00 0.29627775E+04</pdfrwt>
<pdfrwt beam="2">  1       -2 0.27800187E+00 0.29627775E+04</pdfrwt>
<totfact> 0.69050431E-01</totfact>
</mgrwt>
</event>
<event>
12    2  0.3555611E-008  0.1274745E+04  0.7818608E-02  0.9049836E-01
          1   -1    0    0  501    0  0.00000000000E+00  0.00000000000E+00  0.59328932846E+03  0.59328932846E+03  0.00000000000E+00 0. -1.
         -1   -1    0    0    0  501 -0.00000000000E+00 -0.00000000000E+00 -0.68473121242E+03  0.68473121242E+03  0.00000000000E+00 0.  1.
         23    2    1    2    0    0  0.11558963751E+03  0.28725852328E+03 -0.10057453414E+03  0.34138083619E+03  0.10269963438E+03 0.  0.
        254    2    1    2    0    0 -0.11558963751E+03 -0.28725852328E+03  0.91326501780E+01  0.93663970469E+03  0.88392992234E+03 0.  0.
         23    2    4    4    0    0 -0.21162905429E+03 -0.55433111818E+02 -0.39031869137E+03  0.45668776374E+03  0.91407582898E+02 0.  0.
         23    2    4    4    0    0  0.96039416773E+02 -0.23182541146E+03  0.39945134155E+03  0.47995194095E+03  0.88464119157E+02 0.  0.
          4    1    3    3  502    0  0.11426546599E+03  0.17837510805E+03 -0.95510892383E+02  0.23237169891E+03  0.00000000000E+00 0.  1.
         -4    1    3    3    0  502  0.13241715191E+01  0.10888341523E+03 -0.50636417569E+01  0.10900913727E+03  0.00000000000E+00 0. -1.
         11    1    5    5    0    0 -0.18925002557E+03 -0.74330121347E+02 -0.30568725718E+03  0.36713109147E+03  0.00000000000E+00 0. -1.
        -11    1    5    5    0    0 -0.22379028713E+02  0.18897009529E+02 -0.84631434194E+02  0.89556672275E+02  0.00000000000E+00 0.  1.
          4    1    6    6  503    0  0.39365762567E+02 -0.30416771641E+02  0.12724919949E+03  0.13662796943E+03  0.00000000000E+00 0. -1.
         -4    1    6    6    0  503  0.56673654207E+02 -0.20140863982E+03  0.27220214206E+03  0.34332397152E+03  0.00000000000E+00 0.  1.
<mgrwt>
<rscale>  0 0.12747450E+04</rscale>
<asrwt>0</asrwt>
<pdfrwt beam="1">  1        1 0.91275281E-01 0.12747450E+04</pdfrwt>
<pdfrwt beam="2">  1       -1 0.10534326E+00 0.12747450E+04</pdfrwt>
<totfact> 0.28966019E+01</totfact>
</mgrwt>
</event>
<event>
12    2  0.3555611E-008  0.1620943E+04  0.7818608E-02  0.8807784E-01
         -2   -1    0    0    0  501 -0.00000000000E+00  0.00000000000E+00  0.11483309318E+04  0.11483309318E+04  0.00000000000E+00 0.  1.
          2   -1    0    0  501    0  0.00000000000E+00 -0.00000000000E+00 -0.57201642772E+03  0.57201642772E+03  0.00000000000E+00 0. -1.
         23    2    1    2    0    0  0.16383093425E+03 -0.27728426363E+03  0.68583292721E+03  0.76382272971E+03  0.96598242774E+02 0.  0.
        254    2    1    2    0    0 -0.16383093425E+03  0.27728426363E+03 -0.10951842317E+03  0.95652462977E+03  0.89398990178E+03 0.  0.
         23    2    4    4    0    0  0.17550470703E+02  0.12641785279E+03  0.37632907035E+03  0.40793151881E+03  0.92168662365E+02 0.  0.
         23    2    4    4    0    0 -0.18138140495E+03  0.15086641083E+03 -0.48584749352E+03  0.54859311096E+03  0.96159900458E+02 0.  0.
          4    1    3    3  502    0  0.15018266021E+03 -0.16658176778E+03  0.47562106618E+03  0.52585141949E+03  0.00000000000E+00 0. -1.
         -4    1    3    3    0  502  0.13648274031E+02 -0.11070249584E+03  0.21021186103E+03  0.23797131022E+03  0.00000000000E+00 0.  1.
         11    1    5    5    0    0  0.46183713117E+01  0.97913532563E+02  0.14832097384E+03  0.17778498388E+03  0.00000000000E+00 0.  1.
        -11    1    5    5    0    0  0.12932099392E+02  0.28504320229E+02  0.22800809651E+03  0.23014653493E+03  0.00000000000E+00 0. -1.
          3    1    6    6  503    0 -0.59924251758E+02  0.11136209420E+03 -0.22312565498E+03  0.25647122623E+03  0.00000000000E+00 0. -1.
         -3    1    6    6    0  503 -0.12145715319E+03  0.39504316634E+02 -0.26272183854E+03  0.29212188473E+03  0.00000000000E+00 0.  1.
<mgrwt>
<rscale>  0 0.16209431E+04</rscale>
<asrwt>0</asrwt>
<pdfrwt beam="1">  1        2 0.88002527E-01 0.16209431E+04</pdfrwt>
<pdfrwt beam="2">  1       -2 0.17666630E+00 0.16209431E+04</pdfrwt>
<totfact> 0.96106944E+00</totfact>
</mgrwt>
</event>
<event>
12    2  0.3555611E-008  0.1764684E+04  0.7818608E-02  0.8725309E-01
          1   -1    0    0  501    0  0.00000000000E+00  0.00000000000E+00  0.12286147128E+04  0.12286147128E+04  0.00000000000E+00 0. -1.
         -1   -1    0    0    0  501 -0.00000000000E+00 -0.00000000000E+00 -0.63366262283E+03  0.63366262283E+03  0.00000000000E+00 0.  1.
         23    2    1    2    0    0  0.15022347335E+03 -0.53787100320E+03  0.57898034834E+03  0.81338821373E+03  0.12045677417E+03 0.  0.
        254    2    1    2    0    0 -0.15022347335E+03  0.53787100320E+03  0.15971741655E+02  0.10488891219E+04  0.88771672594E+03 0.  0.
         23    2    4    4    0    0  0.13123587706E+03 -0.13772285692E+03 -0.18606685372E+03  0.28431002756E+03  0.10010433043E+03 0.  0.
         23    2    4    4    0    0 -0.28145935041E+03  0.67559386012E+03  0.20203859537E+03  0.76457909436E+03  0.90084225868E+02 0.  0.
          3    1    3    3  502    0  0.17103580269E+03 -0.49324018177E+03  0.52866333505E+03  0.74298320609E+03  0.00000000000E+00 0. -1.
         -3    1    3    3    0  502 -0.20812329334E+02 -0.44630821432E+02  0.50317013290E+02  0.70405007638E+02  0.00000000000E+00 0.  1.
         11    1    5    5    0    0 -0.83885316054E+01  0.22689345489E+01 -0.33395667565E+02  0.34507769249E+02  0.00000000000E+00 0. -1.
        -11    1    5    5    0    0  0.13962440867E+03 -0.13999179147E+03 -0.15267118615E+03  0.24980225831E+03  0.00000000000E+00 0.  1.
          4    1    6    6  503    0 -0.25143856001E+03  0.64575850052E+03  0.20344968203E+03  0.72223068584E+03  0.00000000000E+00 0. -1.
         -4    1    6    6    0  503 -0.30020790399E+02  0.29835359604E+02 -0.14110866576E+01  0.42348408523E+02  0.00000000000E+00 0.  1.
<mgrwt>
<rscale>  0 0.17646838E+04</rscale>
<asrwt>0</asrwt>
<pdfrwt beam="1">  1        1 0.18901765E+00 0.17646838E+04</pdfrwt>
<pdfrwt beam="2">  1       -1 0.97486557E-01 0.17646838E+04</pdfrwt>
<totfact> 0.97364465E+00</totfact>
</mgrwt>
</event>
<event>
12    2  0.3555611E-008  0.1787651E+04  0.7818608E-02  0.8712894E-01
          2   -1    0    0  501    0  0.00000000000E+00  0.00000000000E+00  0.34130803789E+04  0.34130803789E+04  0.00000000000E+00 0. -1.
         -2   -1    0    0    0  501 -0.00000000000E+00 -0.00000000000E+00 -0.23407720324E+03  0.23407720324E+03  0.00000000000E+00 0.  1.
         23    2    1    2    0    0  0.11967460543E+03 -0.36483093395E+03  0.22950268856E+04  0.23290797996E+04  0.10020322306E+03 0.  0.
        254    2    1    2    0    0 -0.11967460543E+03  0.36483093395E+03  0.88397629009E+03  0.13180777825E+04  0.89916146369E+03 0.  0.
         23    2    4    4    0    0  0.18217318787E+03 -0.11542199414E+03  0.66220418277E+03  0.70222101165E+03  0.89948109586E+02 0.  0.
         23    2    4    4    0    0 -0.30184779330E+03  0.48025292809E+03  0.22177210733E+03  0.61585677088E+03  0.91333068468E+02 0.  0.
          2    1    3    3  502    0  0.10202786493E+03 -0.36095456364E+03  0.22392699168E+04  0.22704685954E+04  0.00000000000E+00 0. -1.
         -2    1    3    3    0  502  0.17646740503E+02 -0.38763703071E+01  0.55756968781E+02  0.58611204260E+02  0.00000000000E+00 0.  1.
         11    1    5    5    0    0  0.14492743321E+03 -0.10450710249E+03  0.41273778330E+03  0.44975345817E+03  0.00000000000E+00 0.  1.
        -11    1    5    5    0    0  0.37245754661E+02 -0.10914891648E+02  0.24946639946E+03  0.25246755348E+03  0.00000000000E+00 0. -1.
          3    1    6    6  503    0 -0.39941290065E+02  0.87850138265E+02  0.49260502915E+01  0.96629288607E+02  0.00000000000E+00 0. -1.
         -3    1    6    6    0  503 -0.26190650324E+03  0.39240278982E+03  0.21684605704E+03  0.51922748228E+03  0.00000000000E+00 0.  1.
<mgrwt>
<rscale>  0 0.17876513E+04</rscale>
<asrwt>0</asrwt>
<pdfrwt beam="1">  1        2 0.52508925E+00 0.17876513E+04</pdfrwt>
<pdfrwt beam="2">  1       -2 0.36011880E-01 0.17876513E+04</pdfrwt>
<totfact> 0.64495708E+00</totfact>
</mgrwt>
</event>
<event>
12    2  0.3555611E-008  0.1099568E+04  0.7818608E-02  0.9205613E-01
         -2   -1    0    0    0  501 -0.00000000000E+00  0.00000000000E+00  0.18038937554E+03  0.18038937554E+03  0.00000000000E+00 0. -1.
          2   -1    0    0  501    0  0.00000000000E+00 -0.00000000000E+00 -0.16756102276E+04  0.16756102276E+04  0.00000000000E+00 0.  1.
         23    2    1    2    0    0 -0.10832554717E+03  0.12588167481E+03 -0.27959774344E+03  0.33748761691E+03  0.90235099657E+02 0.  0.
        254    2    1    2    0    0  0.10832554717E+03 -0.12588167481E+03 -0.12156231087E+04  0.15185119863E+04  0.89473934188E+03 0.  0.
         23    2    4    4    0    0  0.41554297416E+03 -0.87147265867E+02 -0.10840404213E+04  0.11687860519E+04  0.10318231847E+03 0.  0.
         23    2    4    4    0    0 -0.30721742699E+03 -0.38734408941E+02 -0.13158268739E+03  0.34972593437E+03  0.95453253838E+02 0.  0.
          3    1    3    3  502    0 -0.46342765330E+02  0.36436589667E+02 -0.18200567166E+03  0.19131477068E+03  0.00000000000E+00 0. -1.
         -3    1    3    3    0  502 -0.61982781843E+02  0.89445085141E+02 -0.97592071780E+02  0.14617284623E+03  0.00000000000E+00 0.  1.
         11    1    5    5    0    0  0.15554722118E+03 -0.60433705647E+02 -0.54044167079E+03  0.56561857318E+03  0.00000000000E+00 0.  1.
        -11    1    5    5    0    0  0.25999575298E+03 -0.26713560220E+02 -0.54359875049E+03  0.60316747873E+03  0.00000000000E+00 0. -1.
          3    1    6    6  503    0 -0.76621182085E+02 -0.40125206028E+02 -0.69388829208E+02  0.11088573994E+03  0.00000000000E+00 0. -1.
         -3    1    6    6    0  503 -0.23059624490E+03  0.13907970868E+01 -0.62193858180E+02  0.23884019443E+03  0.00000000000E+00 0.  1.
<mgrwt>
<rscale>  0 0.10995677E+04</rscale>
<asrwt>0</asrwt>
<pdfrwt beam="1">  1        2 0.25778618E+00 0.10995677E+04</pdfrwt>
<pdfrwt beam="2">  1       -2 0.27752213E-01 0.10995677E+04</pdfrwt>
<totfact> 0.11903438E+02</totfact>
</mgrwt>
</event>
<event>
12    2  0.3555611E-008  0.1672207E+04  0.7818608E-02  0.8777376E-01
         -1   -1    0    0    0  501 -0.00000000000E+00  0.00000000000E+00  0.31506057059E+03  0.31506057059E+03  0.00000000000E+00 0.  1.
          1   -1    0    0  501    0  0.00000000000E+00 -0.00000000000E+00 -0.22188408578E+04  0.22188408578E+04  0.00000000000E+00 0. -1.
         23    2    1    2    0    0 -0.42470975392E+03 -0.12956951406E+03 -0.13237768654E+03  0.47229132743E+03  0.91480118196E+02 0.  0.
        254    2    1    2    0    0  0.42470975392E+03  0.12956951406E+03 -0.17714026007E+04  0.20616101010E+04  0.95666211414E+03 0.  0.
         23    2    4    4    0    0  0.51260129062E+03  0.44332033209E+03 -0.92375892419E+03  0.11494984048E+04  0.93397176705E+02 0.  0.
         23    2    4    4    0    0 -0.87891536698E+02 -0.31375081804E+03 -0.84764367654E+03  0.91211169621E+03  0.85343107151E+02 0.  0.
          1    1    3    3  502    0 -0.27119955821E+02 -0.34941511560E+02 -0.68916812423E+01  0.44764902593E+02  0.00000000000E+00 0. -1.
         -1    1    3    3    0  502 -0.39758979810E+03 -0.94628002497E+02 -0.12548600530E+03  0.42752642484E+03  0.00000000000E+00 0.  1.
         11    1    5    5    0    0  0.96875455899E+02  0.40064187056E+02 -0.14907203122E+03  0.18224286963E+03  0.00000000000E+00 0.  1.
        -11    1    5    5    0    0  0.41572583472E+03  0.40325614504E+03 -0.77468689297E+03  0.96725553516E+03  0.00000000000E+00 0. -1.
          1    1    6    6  503    0  0.74743682777E+01 -0.11479432712E+03 -0.32718173958E+03  0.34681622573E+03  0.00000000000E+00 0. -1.
         -1    1    6    6    0  503 -0.95365904976E+02 -0.19895649092E+03 -0.52046193696E+03  0.56529547047E+03  0.00000000000E+00 0.  1.
<mgrwt>
<rscale>  0 0.16722072E+04</rscale>
<asrwt>0</asrwt>
<pdfrwt beam="1">  1        1 0.34136013E+00 0.16722072E+04</pdfrwt>
<pdfrwt beam="2">  1       -1 0.48470857E-01 0.16722072E+04</pdfrwt>
<totfact> 0.85964159E+00</totfact>
</mgrwt>
</event>
<event>
12    2  0.3555611E-008  0.2062688E+04  0.7818608E-02  0.8577860E-01
          2   -1    0    0  501    0  0.00000000000E+00  0.00000000000E+00  0.90733525936E+03  0.90733525936E+03  0.00000000000E+00 0. -1.
         -2   -1    0    0    0  501 -0.00000000000E+00 -0.00000000000E+00 -0.11723010067E+04  0.11723010067E+04  0.00000000000E+00 0.  1.
         23    2    1    2    0    0 -0.74445003456E+03  0.34155329117E+03  0.11876158615E+03  0.83305225712E+03  0.94906501804E+02 0.  0.
        254    2    1    2    0    0  0.74445003456E+03 -0.34155329117E+03 -0.38372733350E+03  0.12465840089E+04  0.85782312875E+03 0.  0.
         23    2    4    4    0    0  0.34885719859E+03  0.88885063714E+02  0.19452663342E+03  0.41942158533E+03  0.92043226625E+02 0.  0.
         23    2    4    4    0    0  0.39559283597E+03 -0.43043835488E+03 -0.57825396692E+03  0.82716242362E+03  0.89717086253E+02 0.  0.
          1    1    3    3  502    0 -0.81900908586E+01  0.73635222740E+01  0.13886653691E+02  0.17723944236E+02  0.00000000000E+00 0. -1.
         -1    1    3    3    0  502 -0.73625994370E+03  0.33418976890E+03  0.10487493246E+03  0.81532831288E+03  0.00000000000E+00 0.  1.
         11    1    5    5    0    0  0.23743169405E+03  0.29075715235E+02  0.16181640730E+03  0.28879708487E+03  0.00000000000E+00 0.  1.
        -11    1    5    5    0    0  0.11142550454E+03  0.59809348478E+02  0.32710226120E+02  0.13062450046E+03  0.00000000000E+00 0. -1.
          4    1    6    6  503    0  0.42595159849E+02 -0.95683684940E+02 -0.11147275980E+03  0.15295715538E+03  0.00000000000E+00 0. -1.
         -4    1    6    6    0  503  0.35299767612E+03 -0.33475466994E+03 -0.46678120712E+03  0.67420526823E+03  0.00000000000E+00 0.  1.
<mgrwt>
<rscale>  0 0.20626876E+04</rscale>
<asrwt>0</asrwt>
<pdfrwt beam="1">  1        2 0.13959004E+00 0.20626876E+04</pdfrwt>
<pdfrwt beam="2">  1       -2 0.18035400E+00 0.20626876E+04</pdfrwt>
<totfact> 0.48298343E+00</totfact>
</mgrwt>
</event>
<event>
12    2  0.3555611E-008  0.2289978E+04  0.7818608E-02  0.8481883E-01
          2   -1    0    0  501    0  0.00000000000E+00  0.00000000000E+00  0.15301084977E+04  0.15301084977E+04  0.00000000000E+00 0. -1.
         -2   -1    0    0    0  501 -0.00000000000E+00 -0.00000000000E+00 -0.85680170673E+03  0.85680170673E+03  0.00000000000E+00 0.  1.
         23    2    1    2    0    0 -0.89572732914E+03 -0.10096507564E+03  0.65289479099E+03  0.11168604444E+04  0.92651225041E+02 0.  0.
        254    2    1    2    0    0  0.89572732914E+03  0.10096507564E+03  0.20411999954E+02  0.12700497600E+04  0.89447657793E+03 0.  0.
         23    2    4    4    0    0 -0.14004060645E+03  0.10864613172E+03 -0.10024620220E+03  0.22328720850E+03  0.91610714604E+02 0.  0.
         23    2    4    4    0    0  0.10357679356E+04 -0.76810560826E+01  0.12065820216E+03  0.10467625515E+04  0.90990232615E+02 0.  0.
          4    1    3    3  502    0 -0.84094595412E+03 -0.11548742165E+03  0.60147136916E+03  0.10403342012E+04  0.00000000000E+00 0. -1.
         -4    1    3    3    0  502 -0.54781375020E+02  0.14522346010E+02  0.51423421836E+02  0.76526243185E+02  0.00000000000E+00 0.  1.
         11    1    5    5    0    0 -0.53555861331E+02  0.97101518982E+02 -0.43025266338E+02  0.11894582302E+03  0.00000000000E+00 0. -1.
        -11    1    5    5    0    0 -0.86484745123E+02  0.11544612743E+02 -0.57220935866E+02  0.10434138548E+03  0.00000000000E+00 0.  1.
          4    1    6    6  503    0  0.91664704469E+03 -0.28081820538E+02  0.12653067351E+03  0.92576476738E+03  0.00000000000E+00 0. -1.
         -4    1    6    6    0  503  0.11912089091E+03  0.20400764456E+02 -0.58724713547E+01  0.12099778411E+03  0.00000000000E+00 0.  1.
<mgrwt>
<rscale>  0 0.22899778E+04</rscale>
<asrwt>0</asrwt>
<pdfrwt beam="1">  1        2 0.23540131E+00 0.22899778E+04</pdfrwt>
<pdfrwt beam="2">  1       -2 0.13181565E+00 0.22899778E+04</pdfrwt>
<totfact> 0.46446499E+00</totfact>
</mgrwt>
</event>
<event>
12    2  0.3555611E-008  0.1974976E+04  0.7818608E-02  0.8618411E-01
         -2   -1    0    0    0  501 -0.00000000000E+00  0.00000000000E+00  0.20879900496E+04  0.20879900496E+04  0.00000000000E+00 0.  1.
          2   -1    0    0  501    0  0.00000000000E+00 -0.00000000000E+00 -0.46701952850E+03  0.46701952850E+03  0.00000000000E+00 0. -1.
         23    2    1    2    0    0 -0.65338406519E+03  0.17739326256E+03  0.91264575011E+03  0.11399802645E+04  0.90849502325E+02 0.  0.
        254    2    1    2    0    0  0.65338406519E+03 -0.17739326256E+03  0.70832477099E+03  0.14150293136E+04  0.10208843572E+04 0.  0.
         23    2    4    4    0    0  0.55879471615E+03 -0.56786588625E+03  0.37424219397E+03  0.88472222373E+03  0.89179559604E+02 0.  0.
         23    2    4    4    0    0  0.94589349042E+02  0.39047262369E+03  0.33408257701E+03  0.53030708984E+03  0.90545162594E+02 0.  0.
          2    1    3    3  502    0 -0.65058091015E+03  0.16612746169E+03  0.89549993086E+03  0.11192738630E+04  0.00000000000E+00 0. -1.
         -2    1    3    3    0  502 -0.28031550387E+01  0.11265800862E+02  0.17145819255E+02  0.20706401550E+02  0.00000000000E+00 0.  1.
         11    1    5    5    0    0  0.44052133535E+03 -0.46406419930E+03  0.26193732276E+03  0.69139409097E+03  0.00000000000E+00 0.  1.
        -11    1    5    5    0    0  0.11827338079E+03 -0.10380168695E+03  0.11230487121E+03  0.19332813276E+03  0.00000000000E+00 0. -1.
          2    1    6    6  503    0  0.48385607321E+01 -0.46165302428E+01  0.54581930776E+01  0.86322588650E+01  0.00000000000E+00 0. -1.
         -2    1    6    6    0  503  0.89750788310E+02  0.39508915393E+03  0.32862438394E+03  0.52167483098E+03  0.00000000000E+00 0.  1.
<mgrwt>
<rscale>  0 0.19749756E+04</rscale>
<asrwt>0</asrwt>
<pdfrwt beam="1">  1        2 0.71849159E-01 0.19749756E+04</pdfrwt>
<pdfrwt beam="2">  1       -2 0.32122923E+00 0.19749756E+04</pdfrwt>
<totfact> 0.14623167E+00</totfact>
</mgrwt>
</event>
<event>
12    2  0.3555611E-008  0.1683361E+04  0.7818608E-02  0.8770912E-01
          2   -1    0    0  501    0  0.00000000000E+00  0.00000000000E+00  0.13967264102E+04  0.13967264102E+04  0.00000000000E+00 0. -1.
         -2   -1    0    0    0  501 -0.00000000000E+00 -0.00000000000E+00 -0.50720436592E+03  0.50720436592E+03  0.00000000000E+00 0.  1.
         23    2    1    2    0    0 -0.29392056710E+03 -0.51338359479E+03  0.37652212943E+03  0.70701712724E+03  0.90290027717E+02 0.  0.
        254    2    1    2    0    0  0.29392056710E+03  0.51338359479E+03  0.51299991482E+03  0.11969136488E+04  0.90525209472E+03 0.  0.
         23    2    4    4    0    0  0.57182602625E+03  0.12282874181E+03  0.31756304146E+03  0.67151512103E+03  0.89523004625E+02 0.  0.
         23    2    4    4    0    0 -0.27790545915E+03  0.39055485298E+03  0.19543687337E+03  0.52539852781E+03  0.89908309686E+02 0.  0.
          3    1    3    3  502    0 -0.21007983353E+03 -0.31044977983E+03  0.27617861699E+03  0.46560415670E+03  0.00000000000E+00 0. -1.
         -3    1    3    3    0  502 -0.83840733570E+02 -0.20293381495E+03  0.10034351243E+03  0.24141297054E+03  0.00000000000E+00 0.  1.
         11    1    5    5    0    0  0.21252217529E+03  0.17213487024E+02  0.78486173165E+02  0.22720488222E+03  0.00000000000E+00 0.  1.
        -11    1    5    5    0    0  0.35930385096E+03  0.10561525479E+03  0.23907686829E+03  0.44431023881E+03  0.00000000000E+00 0. -1.
          4    1    6    6  503    0 -0.16806743010E+03  0.18499835934E+03  0.64735244661E+02  0.25818928312E+03  0.00000000000E+00 0. -1.
         -4    1    6    6    0  503 -0.10983802904E+03  0.20555649364E+03  0.13070162871E+03  0.26720924469E+03  0.00000000000E+00 0.  1.
<mgrwt>
<rscale>  0 0.16833606E+04</rscale>
<asrwt>0</asrwt>
<pdfrwt beam="1">  1        2 0.21488098E+00 0.16833606E+04</pdfrwt>
<pdfrwt beam="2">  1       -2 0.78031441E-01 0.16833606E+04</pdfrwt>
<totfact> 0.20242385E+01</totfact>
</mgrwt>
</event>
<event>
12    2  0.3555611E-008  0.2975119E+04  0.7818608E-02  0.8250872E-01
         -1   -1    0    0    0  501 -0.00000000000E+00  0.00000000000E+00  0.45300830548E+03  0.45300830548E+03  0.00000000000E+00 0.  1.
          1   -1    0    0  501    0  0.00000000000E+00 -0.00000000000E+00 -0.48847516021E+04  0.48847516021E+04  0.00000000000E+00 0. -1.
         23    2    1    2    0    0 -0.29571021479E+03  0.27334771131E+03  0.29854741609E+03  0.50995212036E+03  0.93579394079E+02 0.  0.
        254    2    1    2    0    0  0.29571021479E+03 -0.27334771131E+03 -0.47302907127E+04  0.48278077872E+04  0.87744760602E+03 0.  0.
         23    2    4    4    0    0 -0.27222693310E+03 -0.23027418430E+03 -0.13853963459E+04  0.14335556380E+04  0.92871034899E+02 0.  0.
         23    2    4    4    0    0  0.56793714789E+03 -0.43073527007E+02 -0.33448943668E+04  0.33942521492E+04  0.90671905040E+02 0.  0.
          1    1    3    3  502    0  0.23130421102E+01  0.19794311745E+02  0.43402268019E+01  0.20396139584E+02  0.00000000000E+00 0. -1.
         -1    1    3    3    0  502 -0.29802325690E+03  0.25355339956E+03  0.29420718929E+03  0.48955598077E+03  0.00000000000E+00 0.  1.
         11    1    5    5    0    0 -0.26079866086E+02 -0.44038675277E+02 -0.10974722122E+03  0.12109507381E+03  0.00000000000E+00 0.  1.
        -11    1    5    5    0    0 -0.24614706701E+03 -0.18623550902E+03 -0.12756491247E+04  0.13124605642E+04  0.00000000000E+00 0. -1.
          3    1    6    6  503    0  0.15846288295E+03  0.28384964733E+02 -0.90677661356E+03  0.92095603499E+03  0.00000000000E+00 0. -1.
         -3    1    6    6    0  503  0.40947426494E+03 -0.71458491740E+02 -0.24381177532E+04  0.24732961142E+04  0.00000000000E+00 0.  1.
<mgrwt>
<rscale>  0 0.29751189E+04</rscale>
<asrwt>0</asrwt>
<pdfrwt beam="1">  1        1 0.75150026E+00 0.29751189E+04</pdfrwt>
<pdfrwt beam="2">  1       -1 0.69693584E-01 0.29751189E+04</pdfrwt>
<totfact> 0.21361570E-02</totfact>
</mgrwt>
</event>
<event>
12    2  0.3555611E-008  0.1020692E+04  0.7818608E-02  0.9286137E-01
         -2   -1    0    0    0  501 -0.00000000000E+00  0.00000000000E+00  0.15066446007E+03  0.15066446007E+03  0.00000000000E+00 0. -1.
          2   -1    0    0  501    0  0.00000000000E+00 -0.00000000000E+00 -0.17286944547E+04  0.17286944547E+04  0.00000000000E+00 0.  1.
         23    2    1    2    0    0 -0.10209380163E+02  0.51785122046E+02 -0.22549224005E+03  0.24928922294E+03  0.92262863839E+02 0.  0.
        254    2    1    2    0    0  0.10209380163E+02 -0.51785122046E+02 -0.13525377546E+04  0.16300696919E+04  0.90828568875E+03 0.  0.
         23    2    4    4    0    0 -0.27448289143E+02  0.27616956617E+03 -0.12309107056E+04  0.12651848355E+04  0.92349688568E+02 0.  0.
         23    2    4    4    0    0  0.37657669306E+02 -0.32795468821E+03 -0.12162704904E+03  0.36488485639E+03  0.96826864998E+02 0.  0.
          4    1    3    3  502    0 -0.16690806556E+02 -0.14475257116E+02 -0.13581430281E+03  0.13759956736E+03  0.00000000000E+00 0.  1.
         -4    1    3    3    0  502  0.64814263932E+01  0.66260379162E+02 -0.89677937241E+02  0.11168965558E+03  0.00000000000E+00 0. -1.
         11    1    5    5    0    0  0.17433453172E+02  0.37898213537E+02 -0.96138965977E+02  0.10479933520E+03  0.00000000000E+00 0.  1.
        -11    1    5    5    0    0 -0.44881742315E+02  0.23827135263E+03 -0.11347717396E+04  0.11603855003E+04  0.00000000000E+00 0. -1.
          3    1    6    6  503    0  0.67491937193E+02 -0.24588215368E+03 -0.74421586202E+02  0.26561582705E+03  0.00000000000E+00 0. -1.
         -3    1    6    6    0  503 -0.29834267887E+02 -0.82072534532E+02 -0.47205462836E+02  0.99269029341E+02  0.00000000000E+00 0.  1.
<mgrwt>
<rscale>  0 0.10206916E+04</rscale>
<asrwt>0</asrwt>
<pdfrwt beam="1">  1        2 0.26595300E+00 0.10206916E+04</pdfrwt>
<pdfrwt beam="2">  1       -2 0.23179147E-01 0.10206916E+04</pdfrwt>
<totfact> 0.15511596E+02</totfact>
</mgrwt>
</event>
<event>
12    2  0.3555611E-008  0.1880480E+04  0.7818608E-02  0.8664634E-01
          2   -1    0    0  501    0  0.00000000000E+00  0.00000000000E+00  0.18663566803E+04  0.18663566803E+04  0.00000000000E+00 0. -1.
         -2   -1    0    0    0  501 -0.00000000000E+00 -0.00000000000E+00 -0.47367775941E+03  0.47367775941E+03  0.00000000000E+00 0.  1.
         23    2    1    2    0    0  0.31444586589E+03 -0.45913348618E+03 -0.36536775436E+02  0.56496347353E+03  0.90382685059E+02 0.  0.
        254    2    1    2    0    0 -0.31444586589E+03  0.45913348618E+03  0.14292156964E+04  0.17750709662E+04  0.89361046753E+03 0.  0.
         23    2    4    4    0    0 -0.10158170055E+03  0.41496606771E+03  0.14712522208E+04  0.15348981769E+04  0.93880971977E+02 0.  0.
         23    2    4    4    0    0 -0.21286416533E+03  0.44167418462E+02 -0.42036524430E+02  0.24017278936E+03  0.93026800570E+02 0.  0.
          4    1    3    3  502    0  0.20781248098E+02 -0.22950440291E+02  0.18816643728E+02  0.36230499076E+02  0.00000000000E+00 0. -1.
         -4    1    3    3    0  502  0.29366461779E+03 -0.43618304589E+03 -0.55353419165E+02  0.52873297445E+03  0.00000000000E+00 0.  1.
         11    1    5    5    0    0 -0.10451108545E+03  0.23251094787E+03  0.86351009154E+03  0.90035192345E+03  0.00000000000E+00 0. -1.
        -11    1    5    5    0    0  0.29293848977E+01  0.18245511984E+03  0.60774212925E+03  0.63454625341E+03  0.00000000000E+00 0.  1.
          1    1    6    6  503    0 -0.10008339025E+03  0.48415739817E+02 -0.59290886399E+02  0.12600070665E+03  0.00000000000E+00 0. -1.
         -1    1    6    6    0  503 -0.11278077509E+03 -0.42483213542E+01  0.17254361969E+02  0.11417208271E+03  0.00000000000E+00 0.  1.
<mgrwt>
<rscale>  0 0.18804804E+04</rscale>
<asrwt>0</asrwt>
<pdfrwt beam="1">  1        2 0.28713179E+00 0.18804804E+04</pdfrwt>
<pdfrwt beam="2">  1       -2 0.72873503E-01 0.18804804E+04</pdfrwt>
<totfact> 0.12652569E+01</totfact>
</mgrwt>
</event>
<event>
12    2  0.3555611E-008  0.1729251E+04  0.7818608E-02  0.8744855E-01
         -2   -1    0    0    0  501 -0.00000000000E+00  0.00000000000E+00  0.10296917763E+04  0.10296917763E+04  0.00000000000E+00 0.  1.
          2   -1    0    0  501    0  0.00000000000E+00 -0.00000000000E+00 -0.72602011441E+03  0.72602011441E+03  0.00000000000E+00 0. -1.
         23    2    1    2    0    0  0.23882323268E+03  0.46307286526E+03 -0.15888791301E+03  0.55227593155E+03  0.91051198057E+02 0.  0.
        254    2    1    2    0    0 -0.23882323268E+03 -0.46307286526E+03  0.46255957487E+03  0.12034359591E+04  0.98123581896E+03 0.  0.
         23    2    4    4    0    0 -0.47904087485E+03 -0.63354245174E+02  0.53049059037E+03  0.72339485519E+03  0.91574722933E+02 0.  0.
         23    2    4    4    0    0  0.24021764218E+03 -0.39971862008E+03 -0.67931015509E+02  0.48004110393E+03  0.91352874842E+02 0.  0.
          1    1    3    3  502    0  0.58814532179E+01 -0.27830377757E+01  0.25396901436E+01  0.69847560616E+01  0.00000000000E+00 0. -1.
         -1    1    3    3    0  502  0.23294177946E+03  0.46585590303E+03 -0.16142760316E+03  0.54529117549E+03  0.00000000000E+00 0.  1.
         11    1    5    5    0    0 -0.35791548291E+03 -0.14692950674E+02  0.42299061938E+03  0.55429273835E+03  0.00000000000E+00 0. -1.
        -11    1    5    5    0    0 -0.12112539195E+03 -0.48661294500E+02  0.10749997100E+03  0.16910211684E+03  0.00000000000E+00 0.  1.
          2    1    6    6  503    0  0.19138794841E+03 -0.33047253248E+03 -0.19374538852E+02  0.38238307268E+03  0.00000000000E+00 0. -1.
         -2    1    6    6    0  503  0.48829693769E+02 -0.69246087604E+02 -0.48556476657E+02  0.97658031249E+02  0.00000000000E+00 0.  1.
<mgrwt>
<rscale>  0 0.17292506E+04</rscale>
<asrwt>0</asrwt>
<pdfrwt beam="1">  1        2 0.11169540E+00 0.17292506E+04</pdfrwt>
<pdfrwt beam="2">  1       -2 0.15841412E+00 0.17292506E+04</pdfrwt>
<totfact> 0.96035488E+00</totfact>
</mgrwt>
</event>
<event>
12    2  0.3555611E-008  0.1444559E+04  0.7818608E-02  0.8922181E-01
         -1   -1    0    0    0  501 -0.00000000000E+00  0.00000000000E+00  0.53119810584E+03  0.53119810584E+03  0.00000000000E+00 0.  1.
          1   -1    0    0  501    0  0.00000000000E+00 -0.00000000000E+00 -0.98209631170E+03  0.98209631170E+03  0.00000000000E+00 0. -1.
         23    2    1    2    0    0 -0.37650045761E+03 -0.71078876567E+02  0.36600564547E+02  0.39487378719E+03  0.88209439457E+02 0.  0.
        254    2    1    2    0    0  0.37650045761E+03  0.71078876567E+02 -0.48749877041E+03  0.11184206303E+04  0.93080870965E+03 0.  0.
         23    2    4    4    0    0 -0.21452227474E+03  0.80959289339E+02 -0.45724621275E+03  0.51968667352E+03  0.91792846520E+02 0.  0.
         23    2    4    4    0    0  0.59102273235E+03 -0.98804127714E+01 -0.30252557662E+02  0.59873395683E+03  0.90341801508E+02 0.  0.
          1    1    3    3  502    0 -0.31003449065E+01  0.89569545270E+01 -0.50293461977E+01  0.10730027778E+02  0.00000000000E+00 0. -1.
         -1    1    3    3    0  502 -0.37340011270E+03 -0.80035831094E+02  0.41629910745E+02  0.38414375941E+03  0.00000000000E+00 0.  1.
         11    1    5    5    0    0 -0.18873957190E+03  0.82320655104E+02 -0.32351312494E+03  0.38348410432E+03  0.00000000000E+00 0. -1.
        -11    1    5    5    0    0 -0.25782702844E+02 -0.13613657656E+01 -0.13373308780E+03  0.13620256920E+03  0.00000000000E+00 0.  1.
          3    1    6    6  503    0  0.39109143626E+03  0.36098134402E+02 -0.15672044700E+02  0.39306640636E+03  0.00000000000E+00 0. -1.
         -3    1    6    6    0  503  0.19993129609E+03 -0.45978547174E+02 -0.14580512963E+02  0.20566755047E+03  0.00000000000E+00 0.  1.
<mgrwt>
<rscale>  0 0.14445590E+04</rscale>
<asrwt>0</asrwt>
<pdfrwt beam="1">  1        1 0.15109174E+00 0.14445590E+04</pdfrwt>
<pdfrwt beam="2">  1       -1 0.81722787E-01 0.14445590E+04</pdfrwt>
<totfact> 0.22638973E+01</totfact>
</mgrwt>
</event>
<event>
12    2  0.3555611E-008  0.1407317E+04  0.7818608E-02  0.8948539E-01
          2   -1    0    0  501    0  0.00000000000E+00  0.00000000000E+00  0.40255615399E+03  0.40255615399E+03  0.00000000000E+00 0. -1.
         -2   -1    0    0    0  501 -0.00000000000E+00 -0.00000000000E+00 -0.12299773245E+04  0.12299773245E+04  0.00000000000E+00 0.  1.
         23    2    1    2    0    0 -0.20938954143E+03 -0.58160043547E+02  0.15165201638E+03  0.27996529434E+03  0.90308699675E+02 0.  0.
        254    2    1    2    0    0  0.20938954143E+03  0.58160043547E+02 -0.97907318690E+03  0.13525681842E+04  0.90754053176E+03 0.  0.
         23    2    4    4    0    0 -0.33652844895E+03  0.13352192359E+03 -0.35509992406E+03  0.51513345761E+03  0.90482164256E+02 0.  0.
         23    2    4    4    0    0  0.54591799038E+03 -0.75361880047E+02 -0.62397326285E+03  0.83743472656E+03  0.90820830849E+02 0.  0.
          3    1    3    3  502    0 -0.18065106939E+03 -0.64459730925E+02  0.15956242909E+03  0.24949956826E+03  0.00000000000E+00 0. -1.
         -3    1    3    3    0  502 -0.28738472038E+02  0.62996873787E+01 -0.79104127164E+01  0.30465726079E+02  0.00000000000E+00 0.  1.
         11    1    5    5    0    0 -0.11684293334E+03  0.57065901069E+02 -0.18856906098E+03  0.22905693374E+03  0.00000000000E+00 0. -1.
        -11    1    5    5    0    0 -0.21968551562E+03  0.76456022525E+02 -0.16653086308E+03  0.28607652387E+03  0.00000000000E+00 0.  1.
          3    1    6    6  503    0  0.53551259547E+03 -0.59915114918E+02 -0.61137349019E+03  0.81494852930E+03  0.00000000000E+00 0. -1.
         -3    1    6    6    0  503  0.10405394913E+02 -0.15446765130E+02 -0.12599772658E+02  0.22486197262E+02  0.00000000000E+00 0.  1.
<mgrwt>
<rscale>  0 0.14073165E+04</rscale>
<asrwt>0</asrwt>
<pdfrwt beam="1">  1        2 0.61931716E-01 0.14073165E+04</pdfrwt>
<pdfrwt beam="2">  1       -2 0.18922728E+00 0.14073165E+04</pdfrwt>
<totfact> 0.12033900E+01</totfact>
</mgrwt>
</event>
<event>
12    2  0.3555611E-008  0.2091543E+04  0.7818608E-02  0.8564978E-01
          2   -1    0    0  501    0  0.00000000000E+00  0.00000000000E+00  0.12290530883E+04  0.12290530883E+04  0.00000000000E+00 0. -1.
         -2   -1    0    0    0  501 -0.00000000000E+00 -0.00000000000E+00 -0.88982189895E+03  0.88982189895E+03  0.00000000000E+00 0.  1.
         23    2    1    2    0    0 -0.18682890119E+03  0.44741926042E+03  0.84285864266E+03  0.97683114917E+03  0.93270410991E+02 0.  0.
        254    2    1    2    0    0  0.18682890119E+03 -0.44741926042E+03 -0.50362745333E+03  0.11420438381E+04  0.90306947872E+03 0.  0.
         23    2    4    4    0    0 -0.32182029123E+03 -0.29680293674E+03 -0.38720552256E+03  0.59164865940E+03  0.91976825078E+02 0.  0.
         23    2    4    4    0    0  0.50864919242E+03 -0.15061632367E+03 -0.11642193077E+03  0.55039517866E+03  0.89283306514E+02 0.  0.
          1    1    3    3  502    0 -0.15598122081E+03  0.42714599242E+03  0.75255107114E+03  0.87927069481E+03  0.00000000000E+00 0. -1.
         -1    1    3    3    0  502 -0.30847680376E+02  0.20273268002E+02  0.90307571526E+02  0.97560454360E+02  0.00000000000E+00 0.  1.
         11    1    5    5    0    0 -0.16974313243E+03 -0.21106471435E+03 -0.20839080044E+03  0.34174225720E+03  0.00000000000E+00 0. -1.
        -11    1    5    5    0    0 -0.15207715880E+03 -0.85738222398E+02 -0.17881472212E+03  0.24990640219E+03  0.00000000000E+00 0.  1.
          1    1    6    6  503    0  0.11853798949E+03 -0.39936761132E+02 -0.66965999617E+02  0.14188250402E+03  0.00000000000E+00 0. -1.
         -1    1    6    6    0  503  0.39011120294E+03 -0.11067956254E+03 -0.49455931148E+02  0.40851267465E+03  0.00000000000E+00 0.  1.
<mgrwt>
<rscale>  0 0.20915433E+04</rscale>
<asrwt>0</asrwt>
<pdfrwt beam="1">  1        2 0.18908509E+00 0.20915433E+04</pdfrwt>
<pdfrwt beam="2">  1       -2 0.13689568E+00 0.20915433E+04</pdfrwt>
<totfact> 0.63898284E+00</totfact>
</mgrwt>
</event>
<event>
12    2  0.3555611E-008  0.1566560E+04  0.7818608E-02  0.8841359E-01
          2   -1    0    0  501    0  0.00000000000E+00  0.00000000000E+00  0.22668237009E+04  0.22668237009E+04  0.00000000000E+00 0.  1.
         -2   -1    0    0    0  501 -0.00000000000E+00 -0.00000000000E+00 -0.27065504533E+03  0.27065504533E+03  0.00000000000E+00 0. -1.
         23    2    1    2    0    0 -0.20383291525E+03 -0.11985788912E+03 -0.77956164008E+02  0.26399427895E+03  0.87761294927E+02 0.  0.
        254    2    1    2    0    0  0.20383291525E+03  0.11985788912E+03  0.20741248196E+04  0.22734844673E+04  0.90045770853E+03 0.  0.
         23    2    4    4    0    0  0.48856559860E+03 -0.31134280212E+02  0.69957956528E+03  0.85871588393E+03  0.91190534687E+02 0.  0.
         23    2    4    4    0    0 -0.28473268335E+03  0.15099216934E+03  0.13745452543E+04  0.14147685834E+04  0.91236791695E+02 0.  0.
          4    1    3    3  502    0 -0.17556238083E+03 -0.11412119568E+03 -0.35071913806E+02  0.21231070628E+03  0.00000000000E+00 0. -1.
         -4    1    3    3    0  502 -0.28270534421E+02 -0.57366934472E+01 -0.42884250202E+02  0.51683572666E+02  0.00000000000E+00 0.  1.
         11    1    5    5    0    0  0.16538648332E+03 -0.33714147430E+02  0.30581688952E+03  0.34930402591E+03  0.00000000000E+00 0. -1.
        -11    1    5    5    0    0  0.32317911528E+03  0.25798672181E+01  0.39376267576E+03  0.50941185802E+03  0.00000000000E+00 0.  1.
          1    1    6    6  503    0 -0.10331745144E+03  0.90233174840E+01  0.47561661031E+03  0.48679264172E+03  0.00000000000E+00 0. -1.
         -1    1    6    6    0  503 -0.18141523191E+03  0.14196885185E+03  0.89892864399E+03  0.92797594163E+03  0.00000000000E+00 0.  1.
<mgrwt>
<rscale>  0 0.15665596E+04</rscale>
<asrwt>0</asrwt>
<pdfrwt beam="1">  1        2 0.34874210E+00 0.15665596E+04</pdfrwt>
<pdfrwt beam="2">  1       -2 0.41639239E-01 0.15665596E+04</pdfrwt>
<totfact> 0.24900831E+01</totfact>
</mgrwt>
</event>
<event>
12    2  0.3555611E-008  0.2253024E+04  0.7818608E-02  0.8496677E-01
          1   -1    0    0  501    0  0.00000000000E+00  0.00000000000E+00  0.14000823428E+04  0.14000823428E+04  0.00000000000E+00 0. -1.
         -1   -1    0    0    0  501 -0.00000000000E+00 -0.00000000000E+00 -0.90639623651E+03  0.90639623651E+03  0.00000000000E+00 0.  1.
         23    2    1    2    0    0 -0.16463648288E+03 -0.24445053003E+03  0.11167830219E+04  0.11586272591E+04  0.91386949822E+02 0.  0.
        254    2    1    2    0    0  0.16463648288E+03  0.24445053003E+03 -0.62309691556E+03  0.11478513202E+04  0.91785165136E+03 0.  0.
         23    2    4    4    0    0 -0.25545899062E+03 -0.98527398965E+02 -0.50977330623E+03  0.58603172400E+03  0.92722238764E+02 0.  0.
         23    2    4    4    0    0  0.42009547349E+03  0.34297792899E+03 -0.11332360933E+03  0.56181959616E+03  0.93193087591E+02 0.  0.
          3    1    3    3  502    0 -0.39338140807E+02 -0.99473162284E+02  0.26964285532E+03  0.29008562316E+03  0.00000000000E+00 0. -1.
         -3    1    3    3    0  502 -0.12529834207E+03 -0.14497736774E+03  0.84714016654E+03  0.86854163599E+03  0.00000000000E+00 0.  1.
         11    1    5    5    0    0 -0.55958712275E+02 -0.57287682087E+02 -0.97498868406E+02  0.12617165030E+03  0.00000000000E+00 0. -1.
        -11    1    5    5    0    0 -0.19950027834E+03 -0.41239716878E+02 -0.41227443782E+03  0.45986007371E+03  0.00000000000E+00 0.  1.
          4    1    6    6  503    0  0.36099585358E+03  0.28086509432E+03 -0.61152533471E+02  0.46145730015E+03  0.00000000000E+00 0. -1.
         -4    1    6    6    0  503  0.59099619907E+02  0.62112834677E+02 -0.52171075858E+02  0.10036229601E+03  0.00000000000E+00 0.  1.
<mgrwt>
<rscale>  0 0.22530241E+04</rscale>
<asrwt>0</asrwt>
<pdfrwt beam="1">  1        1 0.21539728E+00 0.22530241E+04</pdfrwt>
<pdfrwt beam="2">  1       -1 0.13944557E+00 0.22530241E+04</pdfrwt>
<totfact> 0.29528956E+00</totfact>
</mgrwt>
</event>
<event>
12    2  0.3555611E-008  0.1314390E+04  0.7818608E-02  0.9018231E-01
          2   -1    0    0  501    0  0.00000000000E+00  0.00000000000E+00  0.89930433180E+03  0.89930433180E+03  0.00000000000E+00 0. -1.
         -2   -1    0    0    0  501 -0.00000000000E+00 -0.00000000000E+00 -0.48026597987E+03  0.48026597987E+03  0.00000000000E+00 0.  1.
         23    2    1    2    0    0 -0.20872435842E+03 -0.26518389071E+03  0.91801791368E+02  0.36171745257E+03  0.92323306375E+02 0.  0.
        254    2    1    2    0    0  0.20872435842E+03  0.26518389071E+03  0.32723656056E+03  0.10178528591E+04  0.90280248256E+03 0.  0.
         23    2    4    4    0    0 -0.24451314864E+03  0.87793786241E+02 -0.16460861554E+03  0.31903527794E+03  0.84812048082E+02 0.  0.
         23    2    4    4    0    0  0.45323750707E+03  0.17739010447E+03  0.49184517610E+03  0.69881758116E+03  0.97687499251E+02 0.  0.
          1    1    3    3  502    0 -0.13971168425E+03 -0.14108786818E+03  0.94047971766E+02  0.21970471606E+03  0.00000000000E+00 0. -1.
         -1    1    3    3    0  502 -0.69012674170E+02 -0.12409602253E+03 -0.22461803980E+01  0.14201273651E+03  0.00000000000E+00 0.  1.
         11    1    5    5    0    0 -0.13467195396E+03  0.47528296537E+02 -0.13897193996E+03  0.19927035468E+03  0.00000000000E+00 0.  1.
        -11    1    5    5    0    0 -0.10984119468E+03  0.40265489705E+02 -0.25636675575E+02  0.11976492327E+03  0.00000000000E+00 0. -1.
          2    1    6    6  503    0  0.31954852903E+03  0.13785445426E+03  0.28731279913E+03  0.45129121143E+03  0.00000000000E+00 0. -1.
         -2    1    6    6    0  503  0.13368897803E+03  0.39535650213E+02  0.20453237697E+03  0.24752636973E+03  0.00000000000E+00 0.  1.
<mgrwt>
<rscale>  0 0.13143900E+04</rscale>
<asrwt>0</asrwt>
<pdfrwt beam="1">  1        2 0.13835451E+00 0.13143900E+04</pdfrwt>
<pdfrwt beam="2">  1       -2 0.73887074E-01 0.13143900E+04</pdfrwt>
<totfact> 0.47459313E+01</totfact>
</mgrwt>
</event>
<event>
12    2  0.3555611E-008  0.2307637E+04  0.7818608E-02  0.8474916E-01
          2   -1    0    0  501    0  0.00000000000E+00  0.00000000000E+00  0.13714730872E+04  0.13714730872E+04  0.00000000000E+00 0. -1.
         -2   -1    0    0    0  501 -0.00000000000E+00 -0.00000000000E+00 -0.97070633164E+03  0.97070633164E+03  0.00000000000E+00 0.  1.
         23    2    1    2    0    0 -0.88784047796E+03 -0.13011105740E+03 -0.20946413533E+03  0.92671092100E+03  0.98632172987E+02 0.  0.
        254    2    1    2    0    0  0.88784047796E+03  0.13011105740E+03  0.61023089090E+03  0.14154684979E+04  0.90883426799E+03 0.  0.
         23    2    4    4    0    0  0.77646157068E+03  0.44988985303E+03  0.31062675414E+03  0.95429978645E+03  0.94369759140E+02 0.  0.
         23    2    4    4    0    0  0.11137890728E+03 -0.31977879563E+03  0.29960413676E+03  0.46116871141E+03  0.90830625340E+02 0.  0.
          3    1    3    3  502    0 -0.18617111746E+03 -0.40869527741E+01 -0.10227482417E+02  0.18649662076E+03  0.00000000000E+00 0. -1.
         -3    1    3    3    0  502 -0.70166936050E+03 -0.12602410463E+03 -0.19923665291E+03  0.74021430023E+03  0.00000000000E+00 0.  1.
         11    1    5    5    0    0  0.54167183198E+03  0.27541866987E+03  0.17864445237E+03  0.63338586788E+03  0.00000000000E+00 0.  1.
        -11    1    5    5    0    0  0.23478973870E+03  0.17447118316E+03  0.13198230177E+03  0.32091391857E+03  0.00000000000E+00 0. -1.
          3    1    6    6  503    0  0.47234817904E+01 -0.43422067973E+01 -0.63086840893E+01  0.89980850759E+01  0.00000000000E+00 0. -1.
         -3    1    6    6    0  503  0.10665542549E+03 -0.31543658883E+03  0.30591282085E+03  0.45217062633E+03  0.00000000000E+00 0.  1.
<mgrwt>
<rscale>  0 0.23076374E+04</rscale>
<asrwt>0</asrwt>
<pdfrwt beam="1">  1        2 0.21099586E+00 0.23076374E+04</pdfrwt>
<pdfrwt beam="2">  1       -2 0.14933943E+00 0.23076374E+04</pdfrwt>
<totfact> 0.41280425E+00</totfact>
</mgrwt>
</event>
<event>
12    2  0.3555611E-008  0.2715845E+04  0.7818608E-02  0.8329882E-01
         -2   -1    0    0    0  501 -0.00000000000E+00  0.00000000000E+00  0.17053944231E+04  0.17053944231E+04  0.00000000000E+00 0.  1.
          2   -1    0    0  501    0  0.00000000000E+00 -0.00000000000E+00 -0.10812475128E+04  0.10812475128E+04  0.00000000000E+00 0. -1.
         23    2    1    2    0    0 -0.40584127842E+03  0.10854012109E+04 -0.79501194362E+02  0.11647988570E+04  0.87367073193E+02 0.  0.
        254    2    1    2    0    0  0.40584127842E+03 -0.10854012109E+04  0.70364810468E+03  0.16218430789E+04  0.89019738571E+03 0.  0.
         23    2    4    4    0    0  0.14073907521E+03 -0.10764842199E+04  0.30057081701E+03  0.11301349977E+04  0.90755352657E+02 0.  0.
         23    2    4    4    0    0  0.26510220322E+03 -0.89169910255E+01  0.40307728766E+03  0.49170808122E+03  0.94587771031E+02 0.  0.
          1    1    3    3  502    0 -0.22065120709E+03  0.59429342318E+03  0.96816237323E-01  0.63393346449E+03  0.00000000000E+00 0. -1.
         -1    1    3    3    0  502 -0.18519007133E+03  0.49110778774E+03 -0.79598010599E+02  0.53086539254E+03  0.00000000000E+00 0.  1.
         11    1    5    5    0    0  0.11955998424E+03 -0.59442234535E+03  0.18564167808E+03  0.63410988568E+03  0.00000000000E+00 0.  1.
        -11    1    5    5    0    0  0.21179090970E+02 -0.48206187455E+03  0.11492913893E+03  0.49602511203E+03  0.00000000000E+00 0. -1.
          3    1    6    6  503    0  0.13763566704E+03 -0.51889716128E+02  0.20909808080E+03  0.25565235551E+03  0.00000000000E+00 0. -1.
         -3    1    6    6    0  503  0.12746653617E+03  0.42972725102E+02  0.19397920686E+03  0.23605572571E+03  0.00000000000E+00 0.  1.
<mgrwt>
<rscale>  0 0.27158450E+04</rscale>
<asrwt>0</asrwt>
<pdfrwt beam="1">  1        2 0.16634577E+00 0.27158450E+04</pdfrwt>
<pdfrwt beam="2">  1       -2 0.26236837E+00 0.27158450E+04</pdfrwt>
<totfact> 0.10579470E+00</totfact>
</mgrwt>
</event>
<event>
12    2  0.3555611E-008  0.1423561E+04  0.7818608E-02  0.8936938E-01
         -2   -1    0    0    0  501 -0.00000000000E+00  0.00000000000E+00  0.94566745906E+03  0.94566745906E+03  0.00000000000E+00 0.  1.
          2   -1    0    0  501    0  0.00000000000E+00 -0.00000000000E+00 -0.53573956811E+03  0.53573956811E+03  0.00000000000E+00 0. -1.
         23    2    1    2    0    0 -0.23927537941E+03  0.25475302100E+03 -0.12507175089E+03  0.38204886447E+03  0.90369148894E+02 0.  0.
        254    2    1    2    0    0  0.23927537941E+03 -0.25475302100E+03  0.53499964184E+03  0.10993581627E+04  0.89454566358E+03 0.  0.
         23    2    4    4    0    0  0.48794431602E+03  0.11208742229E+03  0.29806224694E+03  0.59029404139E+03  0.94618742767E+02 0.  0.
         23    2    4    4    0    0 -0.24866893661E+03 -0.36684044329E+03  0.23693739490E+03  0.50906412131E+03  0.81232995934E+02 0.  0.
          1    1    3    3  502    0 -0.90734849841E+02  0.12776005674E+03 -0.97830462581E+02  0.18473290038E+03  0.00000000000E+00 0. -1.
         -1    1    3    3    0  502 -0.14854052957E+03  0.12699296426E+03 -0.27241288308E+02  0.19731596409E+03  0.00000000000E+00 0.  1.
         11    1    5    5    0    0  0.36720871408E+03  0.71566516385E+02  0.26577165596E+03  0.45891020808E+03  0.00000000000E+00 0.  1.
        -11    1    5    5    0    0  0.12073560194E+03  0.40520905903E+02  0.32290590971E+02  0.13138383331E+03  0.00000000000E+00 0. -1.
          2    1    6    6  503    0 -0.16292701793E+02 -0.65389727001E+02  0.56031297155E+02  0.87640029609E+02  0.00000000000E+00 0. -1.
         -2    1    6    6    0  503 -0.23237623482E+03 -0.30145071629E+03  0.18090609775E+03  0.42142409170E+03  0.00000000000E+00 0.  1.
<mgrwt>
<rscale>  0 0.14235610E+04</rscale>
<asrwt>0</asrwt>
<pdfrwt beam="1">  1        2 0.82421472E-01 0.14235610E+04</pdfrwt>
<pdfrwt beam="2">  1       -2 0.14548730E+00 0.14235610E+04</pdfrwt>
<totfact> 0.17908910E+01</totfact>
</mgrwt>
</event>
<event>
12    2  0.3555611E-008  0.1254574E+04  0.7818608E-02  0.9066385E-01
          3   -1    0    0  501    0  0.00000000000E+00  0.00000000000E+00  0.60695538305E+03  0.60695538305E+03  0.00000000000E+00 0. -1.
         -3   -1    0    0    0  501 -0.00000000000E+00 -0.00000000000E+00 -0.64829931803E+03  0.64829931803E+03  0.00000000000E+00 0.  1.
         23    2    1    2    0    0 -0.10446269010E+03  0.24604119785E+03  0.11344609692E+03  0.30838631782E+03  0.10384305200E+03 0.  0.
        254    2    1    2    0    0  0.10446269010E+03 -0.24604119785E+03 -0.15479003190E+03  0.94686838326E+03  0.89507041990E+03 0.  0.
         23    2    4    4    0    0 -0.14700734845E+03  0.27992795309E+03  0.26117301724E+02  0.32948142957E+03  0.88910514368E+02 0.  0.
         23    2    4    4    0    0  0.25147003855E+03 -0.52596915094E+03 -0.18090733362E+03  0.61738695368E+03  0.92511940814E+02 0.  0.
          1    1    3    3  502    0 -0.10629991540E+03  0.18089544518E+03  0.12191836496E+03  0.24266627663E+03  0.00000000000E+00 0. -1.
         -1    1    3    3    0  502  0.18372252971E+01  0.65145752670E+02 -0.84722680376E+01  0.65720041186E+02  0.00000000000E+00 0.  1.
         11    1    5    5    0    0 -0.12065084584E+03  0.25847136547E+03 -0.21876085918E+01  0.28525227256E+03  0.00000000000E+00 0.  1.
        -11    1    5    5    0    0 -0.26356502609E+02  0.21456587622E+02  0.28304910316E+02  0.44229157014E+02  0.00000000000E+00 0. -1.
          1    1    6    6  503    0  0.30135273172E+02 -0.15752029584E+02 -0.13438965082E+02  0.36563190611E+02  0.00000000000E+00 0. -1.
         -1    1    6    6    0  503  0.22133476538E+03 -0.51021712136E+03 -0.16746836854E+03  0.58082376307E+03  0.00000000000E+00 0.  1.
<mgrwt>
<rscale>  0 0.12545737E+04</rscale>
<asrwt>0</asrwt>
<pdfrwt beam="1">  1        3 0.93377751E-01 0.12545737E+04</pdfrwt>
<pdfrwt beam="2">  1       -3 0.99738357E-01 0.12545737E+04</pdfrwt>
<totfact> 0.23236469E+00</totfact>
</mgrwt>
</event>
<event>
12    2  0.3557843E-008  0.2301522E+04  0.7818608E-02  0.8477321E-01
          1   -1    0    0  501    0  0.00000000000E+00  0.00000000000E+00  0.30607484598E+04  0.30607484598E+04  0.00000000000E+00 0. -1.
         -1   -1    0    0    0  501 -0.00000000000E+00 -0.00000000000E+00 -0.43265589890E+03  0.43265589890E+03  0.00000000000E+00 0.  1.
         23    2    1    2    0    0  0.57019632178E+03 -0.38953010323E+03  0.19947882213E+04  0.21128595815E+04  0.90210956227E+02 0.  0.
        254    2    1    2    0    0 -0.57019632178E+03  0.38953010323E+03  0.63330433958E+03  0.13805447772E+04  0.10138895150E+04 0.  0.
         23    2    4    4    0    0 -0.84382754242E+02  0.32681251093E+02  0.74977897368E+03  0.76099553210E+03  0.93579790094E+02 0.  0.
         23    2    4    4    0    0 -0.48581356754E+03  0.35684885214E+03 -0.11647463410E+03  0.61954924508E+03  0.83180532657E+02 0.  0.
          1    1    3    3  502    0  0.57364526577E+03 -0.38566398386E+03  0.19801546804E+04  0.20973359668E+04  0.00000000000E+00 0. -1.
         -1    1    3    3    0  502 -0.34489439970E+01 -0.38661193716E+01  0.14633540910E+02  0.15523614697E+02  0.00000000000E+00 0.  1.
         11    1    5    5    0    0 -0.10129348445E+02  0.25519676027E+02  0.48278518058E+02  0.55539831385E+02  0.00000000000E+00 0.  1.
        -11    1    5    5    0    0 -0.74253405797E+02  0.71615750656E+01  0.70150045562E+03  0.70545570071E+03  0.00000000000E+00 0. -1.
          1    1    6    6  503    0 -0.44978729814E+03  0.32772999394E+03 -0.83642981186E+02  0.56277145521E+03  0.00000000000E+00 0. -1.
         -1    1    6    6    0  503 -0.36026269394E+02  0.29118858205E+02 -0.32831652914E+02  0.56777789871E+02  0.00000000000E+00 0.  1.
<mgrwt>
<rscale>  0 0.23015220E+04</rscale>
<asrwt>0</asrwt>
<pdfrwt beam="1">  1        1 0.47088437E+00 0.23015220E+04</pdfrwt>
<pdfrwt beam="2">  1       -1 0.66562448E-01 0.23015220E+04</pdfrwt>
<totfact> 0.11157915E+00</totfact>
</mgrwt>
</event>
<event>
12    2  0.3555611E-008  0.2149790E+04  0.7818608E-02  0.8539622E-01
         -1   -1    0    0    0  501 -0.00000000000E+00  0.00000000000E+00  0.82643232448E+03  0.82643232448E+03  0.00000000000E+00 0.  1.
          1   -1    0    0  501    0  0.00000000000E+00 -0.00000000000E+00 -0.13980570086E+04  0.13980570086E+04  0.00000000000E+00 0. -1.
         23    2    1    2    0    0  0.52253096978E+03 -0.58285723460E+03 -0.60602740596E+03  0.99453735054E+03  0.95258356834E+02 0.  0.
        254    2    1    2    0    0 -0.52253096978E+03  0.58285723460E+03  0.34402721798E+02  0.12299519826E+04  0.94807023045E+03 0.  0.
         23    2    4    4    0    0  0.22199284997E+03  0.38243076916E+03 -0.22632978440E+02  0.45200037790E+03  0.90873380399E+02 0.  0.
         23    2    4    4    0    0 -0.74452381975E+03  0.20042646544E+03  0.57035700238E+02  0.77795160468E+03  0.86424197380E+02 0.  0.
          2    1    3    3  502    0  0.26842078918E+03 -0.26082770791E+03 -0.33973091520E+03  0.50546800890E+03  0.00000000000E+00 0. -1.
         -2    1    3    3    0  502  0.25411018060E+03 -0.32202952669E+03 -0.26629649075E+03  0.48906934164E+03  0.00000000000E+00 0.  1.
         11    1    5    5    0    0  0.20517308637E+03  0.34665325421E+03 -0.47010836005E+02  0.40555454963E+03  0.00000000000E+00 0. -1.
        -11    1    5    5    0    0  0.16819763601E+02  0.35777514956E+02  0.24377857565E+02  0.46445828268E+02  0.00000000000E+00 0.  1.
          4    1    6    6  503    0 -0.68288464989E+03  0.16465440063E+03  0.68427437930E+02  0.70577959092E+03  0.00000000000E+00 0. -1.
         -4    1    6    6    0  503 -0.61639169866E+02  0.35772064805E+02 -0.11391737692E+02  0.72172013757E+02  0.00000000000E+00 0.  1.
<mgrwt>
<rscale>  0 0.21497902E+04</rscale>
<asrwt>0</asrwt>
<pdfrwt beam="1">  1        1 0.21508569E+00 0.21497902E+04</pdfrwt>
<pdfrwt beam="2">  1       -1 0.12714344E+00 0.21497902E+04</pdfrwt>
<totfact> 0.37853278E+00</totfact>
</mgrwt>
</event>
<event>
12    2  0.3555611E-008  0.2091216E+04  0.7818608E-02  0.8565123E-01
          1   -1    0    0  501    0  0.00000000000E+00  0.00000000000E+00  0.13711597908E+04  0.13711597908E+04  0.00000000000E+00 0. -1.
         -1   -1    0    0    0  501 -0.00000000000E+00 -0.00000000000E+00 -0.79735140050E+03  0.79735140050E+03  0.00000000000E+00 0.  1.
         23    2    1    2    0    0 -0.40688413363E+03 -0.28857333107E+02  0.10100586550E+04  0.10929511559E+04  0.89085907108E+02 0.  0.
        254    2    1    2    0    0  0.40688413363E+03  0.28857333107E+02 -0.43625026466E+03  0.10755600354E+04  0.89449854804E+03 0.  0.
         23    2    4    4    0    0  0.34322223503E+03  0.48816917895E+02 -0.70153043658E+03  0.78738286486E+03  0.87419839536E+02 0.  0.
         23    2    4    4    0    0  0.63661898603E+02 -0.19959584788E+02  0.26528017192E+03  0.28817717053E+03  0.90671327571E+02 0.  0.
          2    1    3    3  502    0 -0.24799621582E+03  0.68260681295E+01  0.70115253491E+03  0.74374968604E+03  0.00000000000E+00 0. -1.
         -2    1    3    3    0  502 -0.15888791781E+03 -0.35683401236E+02  0.30890612004E+03  0.34920146985E+03  0.00000000000E+00 0.  1.
         11    1    5    5    0    0  0.89147198433E+02  0.47872951578E+02 -0.16173374014E+03  0.19077957223E+03  0.00000000000E+00 0.  1.
        -11    1    5    5    0    0  0.25407503660E+03  0.94396631677E+00 -0.53979669644E+03  0.59660329264E+03  0.00000000000E+00 0. -1.
          1    1    6    6  503    0  0.40837038160E+02 -0.10511614862E+02  0.25937201414E+03  0.26277747135E+03  0.00000000000E+00 0. -1.
         -1    1    6    6    0  503  0.22824860443E+02 -0.94479699264E+01  0.59081577804E+01  0.25399699178E+02  0.00000000000E+00 0.  1.
<mgrwt>
<rscale>  0 0.20912161E+04</rscale>
<asrwt>0</asrwt>
<pdfrwt beam="1">  1        1 0.21094766E+00 0.20912161E+04</pdfrwt>
<pdfrwt beam="2">  1       -1 0.12266945E+00 0.20912161E+04</pdfrwt>
<totfact> 0.43454373E+00</totfact>
</mgrwt>
</event>
<event>
12    2  0.3555611E-008  0.1720953E+04  0.7818608E-02  0.8749503E-01
          1   -1    0    0  501    0  0.00000000000E+00  0.00000000000E+00  0.83814598165E+03  0.83814598165E+03  0.00000000000E+00 0. -1.
         -1   -1    0    0    0  501 -0.00000000000E+00 -0.00000000000E+00 -0.88340231197E+03  0.88340231197E+03  0.00000000000E+00 0.  1.
         23    2    1    2    0    0  0.35226711745E+03  0.78855714361E+01  0.49855836899E+03  0.61718894624E+03  0.90594943543E+02 0.  0.
        254    2    1    2    0    0 -0.35226711745E+03 -0.78855714361E+01 -0.54381469931E+03  0.11043593474E+04  0.89427112035E+03 0.  0.
         23    2    4    4    0    0  0.18036331272E+03 -0.18354318755E+03  0.56126132391E+02  0.27822685127E+03  0.89671688721E+02 0.  0.
         23    2    4    4    0    0 -0.53263043017E+03  0.17565761611E+03 -0.59994083170E+03  0.82613249612E+03  0.89527238106E+02 0.  0.
          3    1    3    3  502    0  0.30857088045E+03 -0.24279039761E+02  0.42120375579E+03  0.52270265345E+03  0.00000000000E+00 0. -1.
         -3    1    3    3    0  502  0.43696237003E+02  0.32164611197E+02  0.77354613192E+02  0.94486292783E+02  0.00000000000E+00 0.  1.
         11    1    5    5    0    0  0.10125725762E+03 -0.13545858696E+03 -0.16011615228E+01  0.16912901797E+03  0.00000000000E+00 0.  1.
        -11    1    5    5    0    0  0.79106055102E+02 -0.48084600591E+02  0.57727293914E+02  0.10909783330E+03  0.00000000000E+00 0. -1.
          2    1    6    6  503    0 -0.38387863550E+03  0.11157814753E+03 -0.47954084244E+03  0.62431715447E+03  0.00000000000E+00 0. -1.
         -2    1    6    6    0  503 -0.14875179467E+03  0.64079468580E+02 -0.12039998926E+03  0.20181534165E+03  0.00000000000E+00 0.  1.
<mgrwt>
<rscale>  0 0.17209533E+04</rscale>
<asrwt>0</asrwt>
<pdfrwt beam="1">  1        1 0.12894554E+00 0.17209533E+04</pdfrwt>
<pdfrwt beam="2">  1       -1 0.13590805E+00 0.17209533E+04</pdfrwt>
<totfact> 0.88172126E+00</totfact>
</mgrwt>
</event>
<event>
12    2  0.3555611E-008  0.1747702E+04  0.7818608E-02  0.8734616E-01
          1   -1    0    0  501    0  0.00000000000E+00  0.00000000000E+00  0.13040999666E+04  0.13040999666E+04  0.00000000000E+00 0. -1.
         -1   -1    0    0    0  501 -0.00000000000E+00 -0.00000000000E+00 -0.58554960241E+03  0.58554960241E+03  0.00000000000E+00 0.  1.
         23    2    1    2    0    0  0.27712828806E+03 -0.18733570052E+03 -0.31802600423E+03  0.46997736046E+03  0.88563125802E+02 0.  0.
        254    2    1    2    0    0 -0.27712828806E+03  0.18733570052E+03  0.10365763684E+04  0.14196722085E+04  0.91054042162E+03 0.  0.
         23    2    4    4    0    0 -0.88151334295E+02 -0.35943227108E+03  0.35065285508E+03  0.51780864299E+03  0.90587806823E+02 0.  0.
         23    2    4    4    0    0 -0.18897695376E+03  0.54676797160E+03  0.68592351333E+03  0.90186356554E+03  0.90550101558E+02 0.  0.
          4    1    3    3  502    0 -0.66062593030E+01 -0.64107038500E+01 -0.54830787094E+01  0.10714659956E+02  0.00000000000E+00 0. -1.
         -4    1    3    3    0  502  0.28373454736E+03 -0.18092499667E+03 -0.31254292552E+03  0.45926270051E+03  0.00000000000E+00 0.  1.
         11    1    5    5    0    0  0.74064311111E+01 -0.51355218859E+01 -0.15890928030E+01  0.91517223942E+01  0.00000000000E+00 0. -1.
        -11    1    5    5    0    0 -0.95557765407E+02 -0.35429674920E+03  0.35224194788E+03  0.50865692059E+03  0.00000000000E+00 0.  1.
          3    1    6    6  503    0 -0.21163937016E+02  0.10891018272E+02  0.32873965419E+02  0.40586008814E+02  0.00000000000E+00 0. -1.
         -3    1    6    6    0  503 -0.16781301675E+03  0.53587695333E+03  0.65304954791E+03  0.86127755673E+03  0.00000000000E+00 0.  1.
<mgrwt>
<rscale>  0 0.17477016E+04</rscale>
<asrwt>0</asrwt>
<pdfrwt beam="1">  1        1 0.20063076E+00 0.17477016E+04</pdfrwt>
<pdfrwt beam="2">  1       -1 0.90084554E-01 0.17477016E+04</pdfrwt>
<totfact> 0.10265715E+01</totfact>
</mgrwt>
</event>
<event>
12    2  0.3555611E-008  0.2152918E+04  0.7818608E-02  0.8538284E-01
          2   -1    0    0  501    0  0.00000000000E+00  0.00000000000E+00  0.32732589718E+04  0.32732589718E+04  0.00000000000E+00 0.  1.
         -2   -1    0    0    0  501 -0.00000000000E+00 -0.00000000000E+00 -0.35400911532E+03  0.35400911532E+03  0.00000000000E+00 0. -1.
         23    2    1    2    0    0  0.28484232770E+03 -0.33212384863E+03  0.25056233826E+04  0.25452020902E+04  0.91998598142E+02 0.  0.
        254    2    1    2    0    0 -0.28484232770E+03  0.33212384863E+03  0.41362647390E+03  0.10820659969E+04  0.89907650360E+03 0.  0.
         23    2    4    4    0    0 -0.34767131795E+03 -0.19031039846E+03  0.36360901543E+03  0.54572643885E+03  0.92262868343E+02 0.  0.
         23    2    4    4    0    0  0.62828990254E+02  0.52243424709E+03  0.50017458465E+02  0.53633955807E+03  0.90957962025E+02 0.  0.
          1    1    3    3  502    0  0.11652963621E+02 -0.38811387899E+02  0.13570800127E+03  0.14162901186E+03  0.00000000000E+00 0. -1.
         -1    1    3    3    0  502  0.27318936408E+03 -0.29331246073E+03  0.23699153814E+04  0.24035730784E+04  0.00000000000E+00 0.  1.
         11    1    5    5    0    0 -0.57123160232E+02 -0.55272807026E+02  0.11684495682E+03  0.14131837307E+03  0.00000000000E+00 0.  1.
        -11    1    5    5    0    0 -0.29054815772E+03 -0.13503759144E+03  0.24676405861E+03  0.40440806579E+03  0.00000000000E+00 0. -1.
          3    1    6    6  503    0  0.44659403360E+02  0.50489247551E+03  0.57203496065E+02  0.51008147790E+03  0.00000000000E+00 0. -1.
         -3    1    6    6    0  503  0.18169586893E+02  0.17541771578E+02 -0.71860375995E+01  0.26258080173E+02  0.00000000000E+00 0.  1.
<mgrwt>
<rscale>  0 0.21529176E+04</rscale>
<asrwt>0</asrwt>
<pdfrwt beam="1">  1        2 0.50357828E+00 0.21529176E+04</pdfrwt>
<pdfrwt beam="2">  1       -2 0.54462943E-01 0.21529176E+04</pdfrwt>
<totfact> 0.33878203E+00</totfact>
</mgrwt>
</event>
<event>
12    2  0.3555611E-008  0.1357149E+04  0.7818608E-02  0.8985434E-01
          1   -1    0    0  501    0  0.00000000000E+00  0.00000000000E+00  0.88311814188E+03  0.88311814188E+03  0.00000000000E+00 0. -1.
         -1   -1    0    0    0  501 -0.00000000000E+00 -0.00000000000E+00 -0.52140604153E+03  0.52140604153E+03  0.00000000000E+00 0.  1.
         23    2    1    2    0    0  0.90996422129E+00  0.16552712331E+03 -0.20809405670E+03  0.27974969606E+03  0.86929278309E+02 0.  0.
        254    2    1    2    0    0 -0.90996422129E+00 -0.16552712331E+03  0.56980615705E+03  0.11247744873E+04  0.95553049882E+03 0.  0.
         23    2    4    4    0    0  0.12837296160E+03 -0.28207905422E+03 -0.16513743422E+03  0.36403032863E+03  0.95914012945E+02 0.  0.
         23    2    4    4    0    0 -0.12928292583E+03  0.11655193091E+03  0.73494359127E+03  0.76074415872E+03  0.91055835438E+02 0.  0.
          3    1    3    3  502    0  0.17257265836E+02 -0.31129388027E+01 -0.19258603654E+02  0.26046063557E+02  0.00000000000E+00 0. -1.
         -3    1    3    3    0  502 -0.16347301615E+02  0.16864006211E+03 -0.18883545304E+03  0.25370363250E+03  0.00000000000E+00 0.  1.
         11    1    5    5    0    0  0.13566002224E+03 -0.23487722557E+03 -0.16251053852E+03  0.31619713449E+03  0.00000000000E+00 0. -1.
        -11    1    5    5    0    0 -0.72870606396E+01 -0.47201828647E+02 -0.26268956941E+01  0.47833194137E+02  0.00000000000E+00 0.  1.
          1    1    6    6  503    0 -0.10803774679E+03  0.10121309374E+03  0.43185420068E+03  0.45652414582E+03  0.00000000000E+00 0. -1.
         -1    1    6    6    0  503 -0.21245179038E+02  0.15338837174E+02  0.30308939059E+03  0.30422001290E+03  0.00000000000E+00 0.  1.
<mgrwt>
<rscale>  0 0.13571487E+04</rscale>
<asrwt>0</asrwt>
<pdfrwt beam="1">  1        1 0.13586433E+00 0.13571487E+04</pdfrwt>
<pdfrwt beam="2">  1       -1 0.80216314E-01 0.13571487E+04</pdfrwt>
<totfact> 0.28518593E+01</totfact>
</mgrwt>
</event>
<event>
12    2  0.3555611E-008  0.2196103E+04  0.7818608E-02  0.8520052E-01
          1   -1    0    0  501    0  0.00000000000E+00  0.00000000000E+00  0.10781406101E+04  0.10781406101E+04  0.00000000000E+00 0. -1.
         -1   -1    0    0    0  501 -0.00000000000E+00 -0.00000000000E+00 -0.11183305842E+04  0.11183305842E+04  0.00000000000E+00 0.  1.
         23    2    1    2    0    0  0.40626177949E+03  0.81013379280E+03  0.88233803060E+02  0.91496111046E+03  0.89460795569E+02 0.  0.
        254    2    1    2    0    0 -0.40626177949E+03 -0.81013379280E+03 -0.12842377712E+03  0.12815100838E+04  0.89688908605E+03 0.  0.
         23    2    4    4    0    0  0.12067520549E+03 -0.68653387441E+03 -0.19178854906E+03  0.72898018393E+03  0.93477243701E+02 0.  0.
         23    2    4    4    0    0 -0.52693698497E+03 -0.12359991840E+03  0.63364771944E+02  0.55252989988E+03  0.91294413727E+02 0.  0.
          2    1    3    3  502    0  0.20628900804E+03  0.39381382691E+03 -0.94751336761E+00  0.44457325930E+03  0.00000000000E+00 0. -1.
         -2    1    3    3    0  502  0.19997277145E+03  0.41631996589E+03  0.89181316427E+02  0.47038785116E+03  0.00000000000E+00 0.  1.
         11    1    5    5    0    0  0.81355255004E+02 -0.24392717581E+03 -0.95641947207E+02  0.27434745612E+03  0.00000000000E+00 0.  1.
        -11    1    5    5    0    0  0.39319950483E+02 -0.44260669860E+03 -0.96146601855E+02  0.45463272781E+03  0.00000000000E+00 0. -1.
          3    1    6    6  503    0 -0.34209598988E+03 -0.35711524733E+02  0.47906557342E+02  0.34727513232E+03  0.00000000000E+00 0. -1.
         -3    1    6    6    0  503 -0.18484099509E+03 -0.87888393665E+02  0.15458214602E+02  0.20525476756E+03  0.00000000000E+00 0.  1.
<mgrwt>
<rscale>  0 0.21961035E+04</rscale>
<asrwt>0</asrwt>
<pdfrwt beam="1">  1        1 0.16586779E+00 0.21961035E+04</pdfrwt>
<pdfrwt beam="2">  1       -1 0.17205086E+00 0.21961035E+04</pdfrwt>
<totfact> 0.28552789E+00</totfact>
</mgrwt>
</event>
<event>
12    2  0.3555611E-008  0.3489513E+04  0.7818608E-02  0.8116280E-01
         -2   -1    0    0    0  501 -0.00000000000E+00  0.00000000000E+00  0.22864765458E+04  0.22864765458E+04  0.00000000000E+00 0.  1.
          2   -1    0    0  501    0  0.00000000000E+00 -0.00000000000E+00 -0.13313828876E+04  0.13313828876E+04  0.00000000000E+00 0. -1.
         23    2    1    2    0    0  0.86063192388E+03  0.53921882198E+03 -0.85891653201E+03  0.13333674202E+04  0.93203121384E+02 0.  0.
        254    2    1    2    0    0 -0.86063192388E+03 -0.53921882198E+03  0.18140101902E+04  0.22844920133E+04  0.94700926192E+03 0.  0.
         23    2    4    4    0    0  0.17854025224E+03 -0.73911562931E+01  0.40460212962E+03  0.45216777026E+03  0.93923151081E+02 0.  0.
         23    2    4    4    0    0 -0.10391721761E+04 -0.53182766569E+03  0.14094080606E+04  0.18323242430E+04  0.90893193875E+02 0.  0.
          4    1    3    3  502    0  0.21650364513E+03  0.15638942969E+03 -0.27559552948E+03  0.38377646872E+03  0.00000000000E+00 0.  1.
         -4    1    3    3    0  502  0.64412827875E+03  0.38282939230E+03 -0.58332100253E+03  0.94959095146E+03  0.00000000000E+00 0. -1.
         11    1    5    5    0    0  0.40198140139E+02 -0.17560524102E+02  0.20147426418E+03  0.20619442671E+03  0.00000000000E+00 0. -1.
        -11    1    5    5    0    0  0.13834211210E+03  0.10169367809E+02  0.20312786544E+03  0.24597334355E+03  0.00000000000E+00 0.  1.
          3    1    6    6  503    0 -0.67363804239E+03 -0.38310155748E+03  0.89249949318E+03  0.11819942305E+04  0.00000000000E+00 0. -1.
         -3    1    6    6    0  503 -0.36553413373E+03 -0.14872610822E+03  0.51690856742E+03  0.65033001258E+03  0.00000000000E+00 0.  1.
<mgrwt>
<rscale>  0 0.34895133E+04</rscale>
<asrwt>0</asrwt>
<pdfrwt beam="1">  1        2 0.20482814E+00 0.34895133E+04</pdfrwt>
<pdfrwt beam="2">  1       -2 0.35176562E+00 0.34895133E+04</pdfrwt>
<totfact> 0.19758676E-01</totfact>
</mgrwt>
</event>
<event>
12    2  0.3555611E-008  0.1565480E+04  0.7818608E-02  0.8842040E-01
         -2   -1    0    0    0  501 -0.00000000000E+00  0.00000000000E+00  0.45805157317E+03  0.45805157317E+03  0.00000000000E+00 0. -1.
          2   -1    0    0  501    0  0.00000000000E+00 -0.00000000000E+00 -0.13375823277E+04  0.13375823277E+04  0.00000000000E+00 0.  1.
         23    2    1    2    0    0 -0.73821105982E+02  0.64783268214E+02 -0.84613806906E+03  0.85660449048E+03  0.90416777576E+02 0.  0.
        254    2    1    2    0    0  0.73821105982E+02 -0.64783268214E+02 -0.33392685499E+02  0.93902941043E+03  0.93328170167E+03 0.  0.
         23    2    4    4    0    0  0.11356439598E+03  0.23216916033E+03  0.34914091047E+03  0.44475930174E+03  0.95457163597E+02 0.  0.
         23    2    4    4    0    0 -0.39743289993E+02 -0.29695242854E+03 -0.38253359597E+03  0.49427010868E+03  0.90612992304E+02 0.  0.
          3    1    3    3  502    0 -0.26898421937E+02 -0.12876759312E+02 -0.41243552709E+03  0.41351227314E+03  0.00000000000E+00 0. -1.
         -3    1    3    3    0  502 -0.46922684045E+02  0.77660027526E+02 -0.43370254198E+03  0.44309221734E+03  0.00000000000E+00 0.  1.
         11    1    5    5    0    0 -0.13714312693E+02  0.50033133904E+01  0.12907880790E+02  0.19486633983E+02  0.00000000000E+00 0.  1.
        -11    1    5    5    0    0  0.12727870867E+03  0.22716584694E+03  0.33623302968E+03  0.42527266776E+03  0.00000000000E+00 0. -1.
          1    1    6    6  503    0 -0.67141062349E+02 -0.22369379726E+03 -0.26676387778E+03  0.35455578358E+03  0.00000000000E+00 0. -1.
         -1    1    6    6    0  503  0.27397772355E+02 -0.73258631287E+02 -0.11576971819E+03  0.13971432510E+03  0.00000000000E+00 0.  1.
<mgrwt>
<rscale>  0 0.15654797E+04</rscale>
<asrwt>0</asrwt>
<pdfrwt beam="1">  1        2 0.20578189E+00 0.15654797E+04</pdfrwt>
<pdfrwt beam="2">  1       -2 0.70469474E-01 0.15654797E+04</pdfrwt>
<totfact> 0.27687762E+01</totfact>
</mgrwt>
</event>
<event>
12    2  0.3555611E-008  0.2406663E+04  0.7818608E-02  0.8437013E-01
          2   -1    0    0  501    0  0.00000000000E+00  0.00000000000E+00  0.11007297516E+04  0.11007297516E+04  0.00000000000E+00 0. -1.
         -2   -1    0    0    0  501 -0.00000000000E+00 -0.00000000000E+00 -0.13154966668E+04  0.13154966668E+04  0.00000000000E+00 0.  1.
         23    2    1    2    0    0  0.73571847823E+03 -0.70821111207E+03  0.60298767008E+02  0.10270452775E+04  0.91331277940E+02 0.  0.
        254    2    1    2    0    0 -0.73571847823E+03  0.70821111207E+03 -0.27506568217E+03  0.13891811409E+04  0.90073217681E+03 0.  0.
         23    2    4    4    0    0 -0.60753711196E+03  0.79004569923E+03  0.66144003669E+02  0.10033406831E+04  0.95099673401E+02 0.  0.
         23    2    4    4    0    0 -0.12818136627E+03 -0.81834587163E+02 -0.34120968584E+03  0.38584045782E+03  0.96547640395E+02 0.  0.
          3    1    3    3  502    0  0.40010517495E+02 -0.52377044169E+02  0.24365208855E+02  0.70269905854E+02  0.00000000000E+00 0. -1.
         -3    1    3    3    0  502  0.69570796073E+03 -0.65583406790E+03  0.35933558153E+02  0.95677537168E+03  0.00000000000E+00 0.  1.
         11    1    5    5    0    0 -0.21409546095E+03  0.21791479284E+03 -0.34235720556E+01  0.30550850100E+03  0.00000000000E+00 0. -1.
        -11    1    5    5    0    0 -0.39344165101E+03  0.57213090639E+03  0.69567575724E+02  0.69783218211E+03  0.00000000000E+00 0.  1.
          3    1    6    6  503    0 -0.65376892578E+02 -0.80331753725E+02 -0.27823991108E+03  0.29689186054E+03  0.00000000000E+00 0. -1.
         -3    1    6    6    0  503 -0.62804473694E+02 -0.15028334382E+01 -0.62969774758E+02  0.88948597276E+02  0.00000000000E+00 0.  1.
<mgrwt>
<rscale>  0 0.24066627E+04</rscale>
<asrwt>0</asrwt>
<pdfrwt beam="1">  1        2 0.16934304E+00 0.24066627E+04</pdfrwt>
<pdfrwt beam="2">  1       -2 0.20238410E+00 0.24066627E+04</pdfrwt>
<totfact> 0.25092118E+00</totfact>
</mgrwt>
</event>
<event>
12    2  0.3555611E-008  0.1272441E+04  0.7818608E-02  0.9051710E-01
         -2   -1    0    0    0  501 -0.00000000000E+00  0.00000000000E+00  0.61169781637E+03  0.61169781637E+03  0.00000000000E+00 0.  1.
          2   -1    0    0  501    0  0.00000000000E+00 -0.00000000000E+00 -0.66172617448E+03  0.66172617448E+03  0.00000000000E+00 0. -1.
         23    2    1    2    0    0  0.67628529355E+02  0.27141605957E+03 -0.43929560794E+02  0.30252324995E+03  0.10653738815E+03 0.  0.
        254    2    1    2    0    0 -0.67628529355E+02 -0.27141605957E+03 -0.60987973149E+01  0.97090074090E+03  0.92971541773E+03 0.  0.
         23    2    4    4    0    0  0.13548041348E+03 -0.14763010472E+03 -0.42482519694E+03  0.47844961614E+03  0.91038436753E+02 0.  0.
         23    2    4    4    0    0 -0.20310894284E+03 -0.12378595486E+03  0.41872639963E+03  0.49245112476E+03  0.10295682227E+03 0.  0.
          1    1    3    3  502    0  0.63584805687E+02  0.21759977760E+03 -0.76773532046E+02  0.23934674836E+03  0.00000000000E+00 0. -1.
         -1    1    3    3    0  502  0.40437236677E+01  0.53816281966E+02  0.32843971252E+02  0.63176501591E+02  0.00000000000E+00 0.  1.
         11    1    5    5    0    0  0.11549313943E+03 -0.14746200189E+03 -0.41672164175E+03  0.45688142221E+03  0.00000000000E+00 0. -1.
        -11    1    5    5    0    0  0.19987274050E+02 -0.16810282331E+00 -0.81035551974E+01  0.21568193929E+02  0.00000000000E+00 0.  1.
          1    1    6    6  503    0 -0.14882297628E+03 -0.13002233942E+03  0.27463520121E+03  0.33834683501E+03  0.00000000000E+00 0. -1.
         -1    1    6    6    0  503 -0.54285966562E+02  0.62363845697E+01  0.14409119842E+03  0.15410428975E+03  0.00000000000E+00 0.  1.
<mgrwt>
<rscale>  0 0.12724409E+04</rscale>
<asrwt>0</asrwt>
<pdfrwt beam="1">  1        2 0.10180403E+00 0.12724409E+04</pdfrwt>
<pdfrwt beam="2">  1       -2 0.94107357E-01 0.12724409E+04</pdfrwt>
<totfact> 0.41159359E+01</totfact>
</mgrwt>
</event>
<event>
12    2  0.3555611E-008  0.1937611E+04  0.7818608E-02  0.8636358E-01
          2   -1    0    0  501    0  0.00000000000E+00  0.00000000000E+00  0.11774439463E+04  0.11774439463E+04  0.00000000000E+00 0. -1.
         -2   -1    0    0    0  501 -0.00000000000E+00 -0.00000000000E+00 -0.79713701643E+03  0.79713701643E+03  0.00000000000E+00 0.  1.
         23    2    1    2    0    0 -0.71223563978E+03 -0.11402900128E+03 -0.10506343051E+03  0.73508766724E+03  0.95043855126E+02 0.  0.
        254    2    1    2    0    0  0.71223563978E+03  0.11402900128E+03  0.48537036039E+03  0.12394932955E+04  0.88344610653E+03 0.  0.
         23    2    4    4    0    0  0.25395067165E+03  0.41378878271E+03  0.47454952113E+03  0.68494813807E+03  0.90799799041E+02 0.  0.
         23    2    4    4    0    0  0.45828496813E+03 -0.29975978143E+03  0.10820839252E+02  0.55454515743E+03  0.86730631798E+02 0.  0.
          2    1    3    3  502    0 -0.10919797838E+03  0.15651374231E+02 -0.71972701305E+01  0.11054847215E+03  0.00000000000E+00 0. -1.
         -2    1    3    3    0  502 -0.60303766140E+03 -0.12968037551E+03 -0.97866160380E+02  0.62453919509E+03  0.00000000000E+00 0.  1.
         11    1    5    5    0    0  0.17481512617E+03  0.34509541254E+03  0.39913286448E+03  0.55584009895E+03  0.00000000000E+00 0.  1.
        -11    1    5    5    0    0  0.79135545479E+02  0.68693370171E+02  0.75416656652E+02  0.12910803912E+03  0.00000000000E+00 0. -1.
          1    1    6    6  503    0  0.23082090534E+03 -0.19993389766E+03 -0.75160822832E+01  0.30546414727E+03  0.00000000000E+00 0. -1.
         -1    1    6    6    0  503  0.22746406279E+03 -0.99825883772E+02  0.18336921535E+02  0.24908101016E+03  0.00000000000E+00 0.  1.
<mgrwt>
<rscale>  0 0.19376111E+04</rscale>
<asrwt>0</asrwt>
<pdfrwt beam="1">  1        2 0.18114522E+00 0.19376111E+04</pdfrwt>
<pdfrwt beam="2">  1       -2 0.12263646E+00 0.19376111E+04</pdfrwt>
<totfact> 0.91788367E+00</totfact>
</mgrwt>
</event>
<event>
12    2  0.3555611E-008  0.2590348E+04  0.7818608E-02  0.8371487E-01
         -3   -1    0    0    0  501 -0.00000000000E+00  0.00000000000E+00  0.45676323352E+03  0.45676323352E+03  0.00000000000E+00 0. -1.
          3   -1    0    0  501    0  0.00000000000E+00 -0.00000000000E+00 -0.36725274401E+04  0.36725274401E+04  0.00000000000E+00 0.  1.
         23    2    1    2    0    0  0.29192668981E+02  0.12389533697E+03  0.38764524846E+03  0.41196337199E+03  0.56944839620E+02 0.  0.
        254    2    1    2    0    0 -0.29192668981E+02 -0.12389533697E+03 -0.36034094551E+04  0.37173273017E+04  0.90430100097E+03 0.  0.
         23    2    4    4    0    0 -0.14136358370E+03  0.18616308426E+03 -0.30844305831E+04  0.30946405668E+04  0.91912235349E+02 0.  0.
         23    2    4    4    0    0  0.11217091472E+03 -0.31005842124E+03 -0.51897887195E+03  0.62268673484E+03  0.98392893672E+02 0.  0.
          3    1    3    3  502    0  0.38199497175E+02  0.10643040068E+03  0.27054149206E+03  0.29322232299E+03  0.00000000000E+00 0. -1.
         -3    1    3    3    0  502 -0.90068281943E+01  0.17464936291E+02  0.11710375641E+03  0.11874104900E+03  0.00000000000E+00 0.  1.
         11    1    5    5    0    0 -0.72990178653E+02  0.43966815008E+02 -0.73609569183E+03  0.74101114332E+03  0.00000000000E+00 0.  1.
        -11    1    5    5    0    0 -0.68373405052E+02  0.14219626925E+03 -0.23483348913E+04  0.23536294235E+04  0.00000000000E+00 0. -1.
          2    1    6    6  503    0 -0.93449827382E+01 -0.60977238460E+01 -0.46945094085E+02  0.48253008166E+02  0.00000000000E+00 0.  1.
         -2    1    6    6    0  503  0.12151589746E+03 -0.30396069739E+03 -0.47203377786E+03  0.57443372667E+03  0.00000000000E+00 0. -1.
<mgrwt>
<rscale>  0 0.25903479E+04</rscale>
<asrwt>0</asrwt>
<pdfrwt beam="1">  1        3 0.56500420E+00 0.25903479E+04</pdfrwt>
<pdfrwt beam="2">  1       -3 0.70271269E-01 0.25903479E+04</pdfrwt>
<totfact> 0.74323466E-03</totfact>
</mgrwt>
</event>
<event>
12    2  0.3555611E-008  0.1909069E+04  0.7818608E-02  0.8650355E-01
         -1   -1    0    0    0  501 -0.00000000000E+00  0.00000000000E+00  0.38580486223E+03  0.38580486223E+03  0.00000000000E+00 0.  1.
          1   -1    0    0  501    0  0.00000000000E+00 -0.00000000000E+00 -0.23616496092E+04  0.23616496092E+04  0.00000000000E+00 0. -1.
         23    2    1    2    0    0 -0.15092184834E+03 -0.18297141750E+03 -0.17803714016E+04  0.17983339241E+04  0.89591467212E+02 0.  0.
        254    2    1    2    0    0  0.15092184834E+03  0.18297141750E+03 -0.19547334536E+03  0.94912054732E+03  0.89797775066E+03 0.  0.
         23    2    4    4    0    0 -0.82613532084E+02  0.13498320381E+03  0.32457643969E+03  0.37054013614E+03  0.83094321707E+02 0.  0.
         23    2    4    4    0    0  0.23353538042E+03  0.47988213681E+02 -0.52004978505E+03  0.57858041118E+03  0.86382120303E+02 0.  0.
          4    1    3    3  502    0 -0.14867005484E+03 -0.12165768472E+03 -0.13294427633E+04  0.13432503261E+04  0.00000000000E+00 0. -1.
         -4    1    3    3    0  502 -0.22517934921E+01 -0.61313732773E+02 -0.45092863828E+03  0.45508359806E+03  0.00000000000E+00 0.  1.
         11    1    5    5    0    0 -0.51366409977E+02  0.10483665403E+03  0.14692501879E+03  0.18765978059E+03  0.00000000000E+00 0. -1.
        -11    1    5    5    0    0 -0.31247122108E+02  0.30146549782E+02  0.17765142089E+03  0.18288035556E+03  0.00000000000E+00 0.  1.
          4    1    6    6  503    0  0.11060820804E+03 -0.15030801446E+01 -0.15662296914E+03  0.19174772332E+03  0.00000000000E+00 0. -1.
         -4    1    6    6    0  503  0.12292717238E+03  0.49491293825E+02 -0.36342681591E+03  0.38683268786E+03  0.00000000000E+00 0.  1.
<mgrwt>
<rscale>  0 0.19090688E+04</rscale>
<asrwt>0</asrwt>
<pdfrwt beam="1">  1        1 0.36333072E+00 0.19090688E+04</pdfrwt>
<pdfrwt beam="2">  1       -1 0.59354593E-01 0.19090688E+04</pdfrwt>
<totfact> 0.45438259E+00</totfact>
</mgrwt>
</event>
<event>
12    2  0.3555611E-008  0.1804945E+04  0.7818608E-02  0.8703674E-01
         -2   -1    0    0    0  501 -0.00000000000E+00  0.00000000000E+00  0.12684650246E+04  0.12684650246E+04  0.00000000000E+00 0.  1.
          2   -1    0    0  501    0  0.00000000000E+00 -0.00000000000E+00 -0.64208080959E+03  0.64208080959E+03  0.00000000000E+00 0. -1.
         23    2    1    2    0    0  0.54143146911E+03 -0.37350269332E+03  0.40884854117E+03  0.77970855263E+03  0.90199777002E+02 0.  0.
        254    2    1    2    0    0 -0.54143146911E+03  0.37350269332E+03  0.21753567383E+03  0.11308372815E+04  0.89376668671E+03 0.  0.
         23    2    4    4    0    0 -0.52416423973E+03  0.20630012857E+03  0.51995432645E+03  0.77196959522E+03  0.90976156663E+02 0.  0.
         23    2    4    4    0    0 -0.17267229378E+02  0.16720256475E+03 -0.30241865262E+03  0.35886768632E+03  0.95258175314E+02 0.  0.
          1    1    3    3  502    0  0.45298705424E+02 -0.89223233821E+01  0.13817914158E+02  0.48192481979E+02  0.00000000000E+00 0. -1.
         -1    1    3    3    0  502  0.49613276369E+03 -0.36458036993E+03  0.39503062701E+03  0.73151607065E+03  0.00000000000E+00 0.  1.
         11    1    5    5    0    0 -0.44401242432E+03  0.16175756819E+03  0.38883867868E+03  0.61197063807E+03  0.00000000000E+00 0.  1.
        -11    1    5    5    0    0 -0.80151815412E+02  0.44542560381E+02  0.13111564777E+03  0.15999895715E+03  0.00000000000E+00 0. -1.
          1    1    6    6  503    0 -0.29090028572E+02  0.84604830844E+02 -0.23545779590E+03  0.25188207720E+03  0.00000000000E+00 0. -1.
         -1    1    6    6    0  503  0.11822799194E+02  0.82597733902E+02 -0.66960856727E+02  0.10698560913E+03  0.00000000000E+00 0.  1.
<mgrwt>
<rscale>  0 0.18049455E+04</rscale>
<asrwt>0</asrwt>
<pdfrwt beam="1">  1        2 0.98781663E-01 0.18049455E+04</pdfrwt>
<pdfrwt beam="2">  1       -2 0.19514846E+00 0.18049455E+04</pdfrwt>
<totfact> 0.61636518E+00</totfact>
</mgrwt>
</event>
<event>
12    2  0.3555611E-008  0.1339855E+04  0.7818608E-02  0.8998544E-01
          1   -1    0    0  501    0  0.00000000000E+00  0.00000000000E+00  0.51375282088E+03  0.51375282088E+03  0.00000000000E+00 0. -1.
         -1   -1    0    0    0  501 -0.00000000000E+00 -0.00000000000E+00 -0.87357700003E+03  0.87357700003E+03  0.00000000000E+00 0.  1.
         23    2    1    2    0    0 -0.14910046883E+03 -0.13436241360E+03 -0.40914307340E+03  0.46493466290E+03  0.92097656081E+02 0.  0.
        254    2    1    2    0    0  0.14910046883E+03  0.13436241360E+03  0.49318894251E+02  0.92239515802E+03  0.89894174795E+03 0.  0.
         23    2    4    4    0    0  0.22196031484E+03  0.27183548759E+03  0.39225571202E+03  0.53440391620E+03  0.92531553309E+02 0.  0.
         23    2    4    4    0    0 -0.72859846005E+02 -0.13747307400E+03 -0.34293681776E+03  0.38799124182E+03  0.93403102290E+02 0.  0.
          3    1    3    3  502    0 -0.16858805923E+02 -0.72774428875E+02 -0.14915879231E+03  0.16681930991E+03  0.00000000000E+00 0. -1.
         -3    1    3    3    0  502 -0.13224166291E+03 -0.61587984723E+02 -0.25998428109E+03  0.29811535298E+03  0.00000000000E+00 0.  1.
         11    1    5    5    0    0  0.13811151436E+03  0.96214734353E+02  0.18328638242E+03  0.24884927866E+03  0.00000000000E+00 0.  1.
        -11    1    5    5    0    0  0.83848800478E+02  0.17562075324E+03  0.20896932959E+03  0.28555463754E+03  0.00000000000E+00 0. -1.
          2    1    6    6  503    0  0.10505249614E+02 -0.43736372899E+02 -0.40328440820E+02  0.60412032931E+02  0.00000000000E+00 0. -1.
         -2    1    6    6    0  503 -0.83365095619E+02 -0.93736701096E+02 -0.30260837694E+03  0.32757920889E+03  0.00000000000E+00 0.  1.
<mgrwt>
<rscale>  0 0.13398547E+04</rscale>
<asrwt>0</asrwt>
<pdfrwt beam="1">  1        1 0.79038896E-01 0.13398547E+04</pdfrwt>
<pdfrwt beam="2">  1       -1 0.13439646E+00 0.13398547E+04</pdfrwt>
<totfact> 0.19487991E+01</totfact>
</mgrwt>
</event>
<event>
12    2  0.3555611E-008  0.1132135E+04  0.7818608E-02  0.9174424E-01
          1   -1    0    0  501    0  0.00000000000E+00  0.00000000000E+00  0.91113858479E+03  0.91113858479E+03  0.00000000000E+00 0. -1.
         -1   -1    0    0    0  501 -0.00000000000E+00 -0.00000000000E+00 -0.35168375992E+03  0.35168375992E+03  0.00000000000E+00 0.  1.
         23    2    1    2    0    0 -0.15642979458E+03 -0.33054445038E+02 -0.20676641619E+02  0.18461305536E+03  0.89953208564E+02 0.  0.
        254    2    1    2    0    0  0.15642979458E+03  0.33054445038E+02  0.58013146649E+03  0.10782092894E+04  0.89466187818E+03 0.  0.
         23    2    4    4    0    0 -0.21682838009E+03 -0.20677755584E+03 -0.33451247881E+02  0.31547810613E+03  0.92929787771E+02 0.  0.
         23    2    4    4    0    0  0.37325817467E+03  0.23983200087E+03  0.61358271437E+03  0.76273118322E+03  0.91837121473E+02 0.  0.
          3    1    3    3  502    0 -0.15033581826E+03 -0.78407474348E+01  0.14061253091E+01  0.15054671289E+03  0.00000000000E+00 0. -1.
         -3    1    3    3    0  502 -0.60939763191E+01 -0.25213697603E+02 -0.22082766928E+02  0.34066342471E+02  0.00000000000E+00 0.  1.
         11    1    5    5    0    0 -0.14131231747E+03 -0.12165763316E+03 -0.64874139277E+02  0.19742949304E+03  0.00000000000E+00 0. -1.
        -11    1    5    5    0    0 -0.75516062617E+02 -0.85119922673E+02  0.31422891396E+02  0.11804861309E+03  0.00000000000E+00 0.  1.
          3    1    6    6  503    0  0.26473921361E+03  0.15557891113E+03  0.48814299715E+03  0.57669336261E+03  0.00000000000E+00 0. -1.
         -3    1    6    6    0  503  0.10851896106E+03  0.84253089744E+02  0.12543971722E+03  0.18603782061E+03  0.00000000000E+00 0.  1.
<mgrwt>
<rscale>  0 0.11321354E+04</rscale>
<asrwt>0</asrwt>
<pdfrwt beam="1">  1        1 0.14017517E+00 0.11321354E+04</pdfrwt>
<pdfrwt beam="2">  1       -1 0.54105194E-01 0.11321354E+04</pdfrwt>
<totfact> 0.61101807E+01</totfact>
</mgrwt>
</event>
<event>
12    2  0.3555611E-008  0.2319338E+04  0.7818608E-02  0.8470335E-01
         -2   -1    0    0    0  501 -0.00000000000E+00  0.00000000000E+00  0.96083464577E+03  0.96083464577E+03  0.00000000000E+00 0.  1.
          2   -1    0    0  501    0  0.00000000000E+00 -0.00000000000E+00 -0.13996501084E+04  0.13996501084E+04  0.00000000000E+00 0. -1.
         23    2    1    2    0    0 -0.40974165837E+03  0.59979429597E+03  0.51308503320E+03  0.89401820525E+03  0.91492491174E+02 0.  0.
        254    2    1    2    0    0  0.40974165837E+03 -0.59979429597E+03 -0.95190049584E+03  0.14664665489E+04  0.84662161624E+03 0.  0.
         23    2    4    4    0    0 -0.70016421439E+02  0.14777377570E+03 -0.42459557954E+02  0.19187271038E+03  0.90955675308E+02 0.  0.
         23    2    4    4    0    0  0.47975807981E+03 -0.74756807167E+03 -0.90944093789E+03  0.12745938386E+04  0.92091242055E+02 0.  0.
          3    1    3    3  502    0 -0.11732446398E+02  0.60152436050E+02  0.36023866462E+02  0.71089273565E+02  0.00000000000E+00 0. -1.
         -3    1    3    3    0  502 -0.39800921197E+03  0.53964185992E+03  0.47706116674E+03  0.82292893168E+03  0.00000000000E+00 0.  1.
         11    1    5    5    0    0  0.56039513282E+01  0.86857914908E+02 -0.30960087019E+01  0.87093552703E+02  0.00000000000E+00 0. -1.
        -11    1    5    5    0    0 -0.75620372767E+02  0.60915860793E+02 -0.39363549252E+02  0.10477915768E+03  0.00000000000E+00 0.  1.
          4    1    6    6  503    0  0.59862006421E+02 -0.15867489064E+03 -0.16284187419E+03  0.23511413552E+03  0.00000000000E+00 0. -1.
         -4    1    6    6    0  503  0.41989607339E+03 -0.58889318102E+03 -0.74659906370E+03  0.10394797030E+04  0.00000000000E+00 0.  1.
<mgrwt>
<rscale>  0 0.23193381E+04</rscale>
<asrwt>0</asrwt>
<pdfrwt beam="1">  1        2 0.21533078E+00 0.23193381E+04</pdfrwt>
<pdfrwt beam="2">  1       -2 0.14782072E+00 0.23193381E+04</pdfrwt>
<totfact> 0.40822007E+00</totfact>
</mgrwt>
</event>
<event>
12    2  0.3555611E-008  0.1225174E+04  0.7818608E-02  0.9091103E-01
          2   -1    0    0  501    0  0.00000000000E+00  0.00000000000E+00  0.29066947394E+04  0.29066947394E+04  0.00000000000E+00 0. -1.
         -2   -1    0    0    0  501 -0.00000000000E+00 -0.00000000000E+00 -0.12910289656E+03  0.12910289656E+03  0.00000000000E+00 0.  1.
         23    2    1    2    0    0  0.11935374336E+03 -0.12850626017E+03  0.12055602640E+04  0.12216139577E+04  0.90586624728E+02 0.  0.
        254    2    1    2    0    0 -0.11935374336E+03  0.12850626017E+03  0.15720315789E+04  0.18141836783E+04  0.88838052579E+03 0.  0.
         23    2    4    4    0    0  0.31159291498E+03  0.46555771968E+02  0.23419474993E+03  0.40317191143E+03  0.91884844761E+02 0.  0.
         23    2    4    4    0    0 -0.43094665834E+03  0.81950488206E+02  0.13378368289E+04  0.14110117669E+04  0.93359094268E+02 0.  0.
          1    1    3    3  502    0  0.10090465589E+03 -0.13346013025E+03  0.11628697510E+04  0.11748444210E+04  0.00000000000E+00 0. -1.
         -1    1    3    3    0  502  0.18449087467E+02  0.49538700732E+01  0.42690513057E+02  0.46769536689E+02  0.00000000000E+00 0.  1.
         11    1    5    5    0    0  0.20226673855E+03  0.72131540570E+02  0.13747003134E+03  0.25497608160E+03  0.00000000000E+00 0. -1.
        -11    1    5    5    0    0  0.10932617643E+03 -0.25575768602E+02  0.96724718591E+02  0.14819582983E+03  0.00000000000E+00 0.  1.
          3    1    6    6  503    0 -0.40007483800E+03  0.49634718395E+02  0.12257454392E+04  0.12903392433E+04  0.00000000000E+00 0. -1.
         -3    1    6    6    0  503 -0.30871820337E+02  0.32315769811E+02  0.11209138979E+03  0.12067252352E+03  0.00000000000E+00 0.  1.
<mgrwt>
<rscale>  0 0.12251738E+04</rscale>
<asrwt>0</asrwt>
<pdfrwt beam="1">  1        2 0.44718376E+00 0.12251738E+04</pdfrwt>
<pdfrwt beam="2">  1       -2 0.19861986E-01 0.12251738E+04</pdfrwt>
<totfact> 0.42929810E+01</totfact>
</mgrwt>
</event>
<event>
12    2  0.3555611E-008  0.1347937E+04  0.7818608E-02  0.8992391E-01
          1   -1    0    0  501    0  0.00000000000E+00  0.00000000000E+00  0.22409353598E+04  0.22409353598E+04  0.00000000000E+00 0. -1.
         -1   -1    0    0    0  501 -0.00000000000E+00 -0.00000000000E+00 -0.20269809417E+03  0.20269809417E+03  0.00000000000E+00 0.  1.
         23    2    1    2    0    0  0.12103452895E+03  0.19498565605E+03  0.48320133310E+02  0.25138542891E+03  0.90504338679E+02 0.  0.
        254    2    1    2    0    0 -0.12103452895E+03 -0.19498565605E+03  0.19899171323E+04  0.21922480250E+04  0.89079315590E+03 0.  0.
         23    2    4    4    0    0 -0.47446124252E+03 -0.97519903344E+02  0.14617924462E+04  0.15427456817E+04  0.92754947960E+02 0.  0.
         23    2    4    4    0    0  0.35342671357E+03 -0.97465752710E+02  0.52812468607E+03  0.64950234333E+03  0.92344978967E+02 0.  0.
          4    1    3    3  502    0  0.73246366531E+02  0.13119879599E+03 -0.13003239349E+02  0.15082187677E+03  0.00000000000E+00 0.  1.
         -4    1    3    3    0  502  0.47788162423E+02  0.63786860062E+02  0.61323372659E+02  0.10056355214E+03  0.00000000000E+00 0. -1.
         11    1    5    5    0    0 -0.43171465849E+03 -0.10706319774E+03  0.13807605460E+04  0.14506342613E+04  0.00000000000E+00 0.  1.
        -11    1    5    5    0    0 -0.42746584035E+02  0.95432943994E+01  0.81031900204E+02  0.92111420385E+02  0.00000000000E+00 0. -1.
          1    1    6    6  503    0  0.55187577110E+02 -0.24559232523E+02  0.15466117948E+03  0.16603886596E+03  0.00000000000E+00 0. -1.
         -1    1    6    6    0  503  0.29823913646E+03 -0.72906520188E+02  0.37346350659E+03  0.48346347737E+03  0.00000000000E+00 0.  1.
<mgrwt>
<rscale>  0 0.13479367E+04</rscale>
<asrwt>0</asrwt>
<pdfrwt beam="1">  1        1 0.34475927E+00 0.13479367E+04</pdfrwt>
<pdfrwt beam="2">  1       -1 0.31184324E-01 0.13479367E+04</pdfrwt>
<totfact> 0.19103588E+01</totfact>
</mgrwt>
</event>
<event>
12    2  0.3555611E-008  0.3405539E+04  0.7818608E-02  0.8136548E-01
         -2   -1    0    0    0  501 -0.00000000000E+00  0.00000000000E+00  0.88299111852E+03  0.88299111852E+03  0.00000000000E+00 0.  1.
          2   -1    0    0  501    0  0.00000000000E+00 -0.00000000000E+00 -0.32836396445E+04  0.32836396445E+04  0.00000000000E+00 0. -1.
         23    2    1    2    0    0 -0.60686515888E+03  0.58349554239E+03  0.52805661788E+03  0.99778050798E+03  0.89273631974E+02 0.  0.
        254    2    1    2    0    0  0.60686515888E+03 -0.58349554239E+03 -0.29287051439E+04  0.31688502551E+04  0.86922134702E+03 0.  0.
         23    2    4    4    0    0  0.48685269985E+02 -0.60100003524E+03 -0.18907380871E+04  0.19866430662E+04  0.91043180774E+02 0.  0.
         23    2    4    4    0    0  0.55817988890E+03  0.17504492847E+02 -0.10379670568E+04  0.11822071888E+04  0.91471474716E+02 0.  0.
          4    1    3    3  502    0 -0.39883522552E+02  0.24492612864E+02  0.52617412415E+02  0.70421413969E+02  0.00000000000E+00 0. -1.
         -4    1    3    3    0  502 -0.56698163633E+03  0.55900292953E+03  0.47543920546E+03  0.92735909402E+03  0.00000000000E+00 0.  1.
         11    1    5    5    0    0  0.16206414278E+02 -0.63309000186E+02 -0.13250442982E+03  0.14774336293E+03  0.00000000000E+00 0.  1.
        -11    1    5    5    0    0  0.32478855707E+02 -0.53769103506E+03 -0.17582336573E+04  0.18388997033E+04  0.00000000000E+00 0. -1.
          1    1    6    6  503    0  0.33054411249E+03  0.51660307057E+02 -0.57740526260E+03  0.66732678270E+03  0.00000000000E+00 0. -1.
         -1    1    6    6    0  503  0.22763577640E+03 -0.34155814211E+02 -0.46056179422E+03  0.51488040615E+03  0.00000000000E+00 0.  1.
<mgrwt>
<rscale>  0 0.34055394E+04</rscale>
<asrwt>0</asrwt>
<pdfrwt beam="1">  1        2 0.50517533E+00 0.34055394E+04</pdfrwt>
<pdfrwt beam="2">  1       -2 0.13584479E+00 0.34055394E+04</pdfrwt>
<totfact> 0.36679132E-01</totfact>
</mgrwt>
</event>
<event>
12    2  0.3555611E-008  0.1517731E+04  0.7818608E-02  0.8872747E-01
         -1   -1    0    0    0  501 -0.00000000000E+00  0.00000000000E+00  0.22935733131E+03  0.22935733131E+03  0.00000000000E+00 0.  1.
          1   -1    0    0  501    0  0.00000000000E+00 -0.00000000000E+00 -0.25108297824E+04  0.25108297824E+04  0.00000000000E+00 0. -1.
         23    2    1    2    0    0 -0.38104598667E+02 -0.90971731426E+02 -0.16055225069E+04  0.16109271544E+04  0.87498344449E+02 0.  0.
        254    2    1    2    0    0  0.38104598667E+02  0.90971731426E+02 -0.67594994413E+03  0.11292599592E+04  0.89921738875E+03 0.  0.
         23    2    4    4    0    0 -0.29375378974E+03  0.22660535116E+03 -0.65467662685E+03  0.75910760909E+03  0.10000801110E+03 0.  0.
         23    2    4    4    0    0  0.33185838841E+03 -0.13563361974E+03 -0.21273317289E+02  0.37015235015E+03  0.89631130406E+02 0.  0.
          3    1    3    3  502    0  0.28640772731E+02 -0.25418744897E+02 -0.46916108714E+03  0.47072128924E+03  0.00000000000E+00 0.  1.
         -3    1    3    3    0  502 -0.66745371397E+02 -0.65552986528E+02 -0.11363614198E+04  0.11402058652E+04  0.00000000000E+00 0. -1.
         11    1    5    5    0    0 -0.18769415879E+03  0.86479176162E+02 -0.39059560710E+03  0.44189667733E+03  0.00000000000E+00 0. -1.
        -11    1    5    5    0    0 -0.10605963095E+03  0.14012617500E+03 -0.26408101975E+03  0.31721093176E+03  0.00000000000E+00 0.  1.
          4    1    6    6  503    0  0.37552301659E+02  0.10586039139E+02  0.92889904276E+01  0.40106420031E+02  0.00000000000E+00 0. -1.
         -4    1    6    6    0  503  0.29430608675E+03 -0.14621965887E+03 -0.30562307716E+02  0.33004593012E+03  0.00000000000E+00 0.  1.
<mgrwt>
<rscale>  0 0.15177315E+04</rscale>
<asrwt>0</asrwt>
<pdfrwt beam="1">  1        1 0.38628151E+00 0.15177315E+04</pdfrwt>
<pdfrwt beam="2">  1       -1 0.35285743E-01 0.15177315E+04</pdfrwt>
<totfact> 0.98608786E+00</totfact>
</mgrwt>
</event>
<event>
12    2  0.3555611E-008  0.2050652E+04  0.7818608E-02  0.8583299E-01
         -1   -1    0    0    0  501 -0.00000000000E+00  0.00000000000E+00  0.16857886374E+04  0.16857886374E+04  0.00000000000E+00 0. -1.
          1   -1    0    0  501    0  0.00000000000E+00 -0.00000000000E+00 -0.62362088877E+03  0.62362088877E+03  0.00000000000E+00 0.  1.
         23    2    1    2    0    0 -0.15905436311E+03  0.67179530173E+03  0.93904259478E+03  0.11692640932E+04  0.93649916719E+02 0.  0.
        254    2    1    2    0    0  0.15905436311E+03 -0.67179530173E+03  0.12312515384E+03  0.11401454330E+04  0.89897974784E+03 0.  0.
         23    2    4    4    0    0  0.18788284935E+02 -0.86811786849E+03  0.88368592063E+02  0.87744787811E+03  0.90133997443E+02 0.  0.
         23    2    4    4    0    0  0.14026607818E+03  0.19632256676E+03  0.34756561773E+02  0.26269755488E+03  0.97902317890E+02 0.  0.
          1    1    3    3  502    0 -0.79357588446E+02  0.42355127165E+03  0.51528671678E+03  0.67172442791E+03  0.00000000000E+00 0. -1.
         -1    1    3    3    0  502 -0.79696774667E+02  0.24824403008E+03  0.42375587800E+03  0.49753966525E+03  0.00000000000E+00 0.  1.
         11    1    5    5    0    0  0.30257195196E+02 -0.75434599208E+03  0.49111250234E+02  0.75654827244E+03  0.00000000000E+00 0. -1.
        -11    1    5    5    0    0 -0.11468910261E+02 -0.11377187641E+03  0.39257341829E+02  0.12089960567E+03  0.00000000000E+00 0.  1.
          3    1    6    6  503    0  0.12378596458E+03  0.14542466487E+03  0.64392228336E+02  0.20153822777E+03  0.00000000000E+00 0. -1.
         -3    1    6    6    0  503  0.16480113595E+02  0.50897901888E+02 -0.29635666564E+02  0.61159327117E+02  0.00000000000E+00 0.  1.
<mgrwt>
<rscale>  0 0.20506516E+04</rscale>
<asrwt>0</asrwt>
<pdfrwt beam="1">  1        1 0.95941676E-01 0.20506516E+04</pdfrwt>
<pdfrwt beam="2">  1       -1 0.25935210E+00 0.20506516E+04</pdfrwt>
<totfact> 0.18117747E+00</totfact>
</mgrwt>
</event>
<event>
12    2  0.3555611E-008  0.2919997E+04  0.7818608E-02  0.8266952E-01
         -1   -1    0    0    0  501 -0.00000000000E+00  0.00000000000E+00  0.24918752589E+04  0.24918752589E+04  0.00000000000E+00 0.  1.
          1   -1    0    0  501    0  0.00000000000E+00 -0.00000000000E+00 -0.85541837475E+03  0.85541837475E+03  0.00000000000E+00 0. -1.
         23    2    1    2    0    0 -0.35689329694E+03  0.96425973809E+03  0.16934606308E+04  0.19833049686E+04  0.92303968258E+02 0.  0.
        254    2    1    2    0    0  0.35689329694E+03 -0.96425973809E+03 -0.57003746609E+02  0.13639886651E+04  0.89445289614E+03 0.  0.
         23    2    4    4    0    0 -0.28444383139E+03 -0.41956066168E+03 -0.55079657362E+02  0.51765550625E+03  0.89409241420E+02 0.  0.
         23    2    4    4    0    0  0.64133712833E+03 -0.54469907641E+03 -0.19240892470E+01  0.84633315883E+03  0.90915991939E+02 0.  0.
          3    1    3    3  502    0 -0.32091179368E+03  0.79669308863E+03  0.13630539539E+04  0.16110929018E+04  0.00000000000E+00 0. -1.
         -3    1    3    3    0  502 -0.35981503264E+02  0.16756664946E+03  0.33040667685E+03  0.37221206684E+03  0.00000000000E+00 0.  1.
         11    1    5    5    0    0 -0.22534690744E+03 -0.32648782459E+03 -0.54326597802E+01  0.39674304290E+03  0.00000000000E+00 0. -1.
        -11    1    5    5    0    0 -0.59096923951E+02 -0.93072837089E+02 -0.49646997582E+02  0.12091246335E+03  0.00000000000E+00 0.  1.
          3    1    6    6  503    0  0.34899531368E+03 -0.32663577933E+03 -0.39800424815E+02  0.47965897795E+03  0.00000000000E+00 0. -1.
         -3    1    6    6    0  503  0.29234181465E+03 -0.21806329708E+03  0.37876335568E+02  0.36667418088E+03  0.00000000000E+00 0.  1.
<mgrwt>
<rscale>  0 0.29199972E+04</rscale>
<asrwt>0</asrwt>
<pdfrwt beam="1">  1        1 0.13160283E+00 0.29199972E+04</pdfrwt>
<pdfrwt beam="2">  1       -1 0.38336542E+00 0.29199972E+04</pdfrwt>
<totfact> 0.15759310E-01</totfact>
</mgrwt>
</event>
<event>
12    2  0.3555611E-008  0.1369916E+04  0.7818608E-02  0.8975888E-01
         -1   -1    0    0    0  501 -0.00000000000E+00  0.00000000000E+00  0.83721823305E+03  0.83721823305E+03  0.00000000000E+00 0.  1.
          1   -1    0    0  501    0  0.00000000000E+00 -0.00000000000E+00 -0.56038817107E+03  0.56038817107E+03  0.00000000000E+00 0. -1.
         23    2    1    2    0    0 -0.20987538694E+02  0.20017194422E+02  0.47198667649E+03  0.48186707583E+03  0.92646052998E+02 0.  0.
        254    2    1    2    0    0  0.20987538694E+02 -0.20017194422E+02 -0.19515661451E+03  0.91573932829E+03  0.89423221164E+03 0.  0.
         23    2    4    4    0    0 -0.36474324229E+03 -0.23321800941E+03 -0.64619182800E+02  0.44745088656E+03  0.92781379558E+02 0.  0.
         23    2    4    4    0    0  0.38573078098E+03  0.21320081499E+03 -0.13053743171E+03  0.46828844173E+03  0.89505422594E+02 0.  0.
          4    1    3    3  502    0 -0.15036836693E+00 -0.18625161339E+02  0.18471774882E+02  0.26232150366E+02  0.00000000000E+00 0. -1.
         -4    1    3    3    0  502 -0.20837170327E+02  0.38642355760E+02  0.45351490160E+03  0.45563492547E+03  0.00000000000E+00 0.  1.
         11    1    5    5    0    0 -0.20943407641E+03 -0.18613244083E+03 -0.48545803775E+02  0.28436703915E+03  0.00000000000E+00 0. -1.
        -11    1    5    5    0    0 -0.15530916588E+03 -0.47085568583E+02 -0.16073379025E+02  0.16308384741E+03  0.00000000000E+00 0.  1.
          3    1    6    6  503    0  0.13505705220E+03  0.11869740049E+03 -0.30767678388E+02  0.18241746152E+03  0.00000000000E+00 0. -1.
         -3    1    6    6    0  503  0.25067372878E+03  0.94503414500E+02 -0.99769753326E+02  0.28587098021E+03  0.00000000000E+00 0.  1.
<mgrwt>
<rscale>  0 0.13699156E+04</rscale>
<asrwt>0</asrwt>
<pdfrwt beam="1">  1        1 0.86213565E-01 0.13699156E+04</pdfrwt>
<pdfrwt beam="2">  1       -1 0.12880280E+00 0.13699156E+04</pdfrwt>
<totfact> 0.19171203E+01</totfact>
</mgrwt>
</event>
<event>
12    2  0.3555611E-008  0.1791514E+04  0.7818608E-02  0.8710825E-01
         -2   -1    0    0    0  501 -0.00000000000E+00  0.00000000000E+00  0.64538973969E+03  0.64538973969E+03  0.00000000000E+00 0. -1.
          2   -1    0    0  501    0  0.00000000000E+00 -0.00000000000E+00 -0.12432492752E+04  0.12432492752E+04  0.00000000000E+00 0.  1.
         23    2    1    2    0    0 -0.62027716242E+03  0.24085668656E+03 -0.22559354710E+03  0.70866230041E+03  0.92488409247E+02 0.  0.
        254    2    1    2    0    0  0.62027716242E+03 -0.24085668656E+03 -0.37226598841E+03  0.11799767145E+04  0.90055948106E+03 0.  0.
         23    2    4    4    0    0  0.10755715002E+03 -0.33052976270E+02  0.28231236482E+03  0.31802007731E+03  0.93677417138E+02 0.  0.
         23    2    4    4    0    0  0.51272001240E+03 -0.20780371029E+03 -0.65457835323E+03  0.86195663718E+03  0.91827178654E+02 0.  0.
          2    1    3    3  502    0 -0.34541926925E+03  0.11974761483E+03 -0.17009987088E+03  0.40322193505E+03  0.00000000000E+00 0. -1.
         -2    1    3    3    0  502 -0.27485789317E+03  0.12110907172E+03 -0.55493676217E+02  0.30544036536E+03  0.00000000000E+00 0.  1.
         11    1    5    5    0    0  0.33177159695E+02 -0.56910892099E+02  0.15826744851E+03  0.17142974894E+03  0.00000000000E+00 0. -1.
        -11    1    5    5    0    0  0.74379990325E+02  0.23857915829E+02  0.12404491631E+03  0.14659032837E+03  0.00000000000E+00 0.  1.
          3    1    6    6  503    0  0.30790611278E+03 -0.97465384800E+02 -0.43725745934E+03  0.54359889741E+03  0.00000000000E+00 0. -1.
         -3    1    6    6    0  503  0.20481389962E+03 -0.11033832549E+03 -0.21732089389E+03  0.31835773977E+03  0.00000000000E+00 0.  1.
<mgrwt>
<rscale>  0 0.17915137E+04</rscale>
<asrwt>0</asrwt>
<pdfrwt beam="1">  1        2 0.19126912E+00 0.17915137E+04</pdfrwt>
<pdfrwt beam="2">  1       -2 0.99290730E-01 0.17915137E+04</pdfrwt>
<totfact> 0.14168897E+01</totfact>
</mgrwt>
</event>
<event>
12    2  0.3555611E-008  0.2265242E+04  0.7818608E-02  0.8491753E-01
          1   -1    0    0  501    0  0.00000000000E+00  0.00000000000E+00  0.17120510735E+04  0.17120510735E+04  0.00000000000E+00 0. -1.
         -1   -1    0    0    0  501 -0.00000000000E+00 -0.00000000000E+00 -0.74929411572E+03  0.74929411572E+03  0.00000000000E+00 0.  1.
         23    2    1    2    0    0 -0.25013027313E+03 -0.14533448685E+03 -0.57981414147E+03  0.65466450425E+03  0.93348314768E+02 0.  0.
        254    2    1    2    0    0  0.25013027313E+03  0.14533448685E+03  0.15425710993E+04  0.18066806850E+04  0.89492023924E+03 0.  0.
         23    2    4    4    0    0 -0.39438855170E+02 -0.26805779317E+03  0.10765987558E+04  0.11138655645E+04  0.90670893046E+02 0.  0.
         23    2    4    4    0    0  0.28956912830E+03  0.41339228002E+03  0.46597234345E+03  0.69281512054E+03  0.90106099343E+02 0.  0.
          1    1    3    3  502    0 -0.42416515301E+02  0.46366980964E+01 -0.13222679010E+03  0.13894093623E+03  0.00000000000E+00 0. -1.
         -1    1    3    3    0  502 -0.20771375783E+03 -0.14997118495E+03 -0.44758735137E+03  0.51572356803E+03  0.00000000000E+00 0.  1.
         11    1    5    5    0    0 -0.50126377822E+02 -0.26691121320E+03  0.10587867861E+04  0.10930616213E+04  0.00000000000E+00 0. -1.
        -11    1    5    5    0    0  0.10687522652E+02 -0.11465799693E+01  0.17811969722E+02  0.20803943171E+02  0.00000000000E+00 0.  1.
          4    1    6    6  503    0  0.28779043528E+03  0.39438593014E+03  0.46413824550E+03  0.67363781624E+03  0.00000000000E+00 0. -1.
         -4    1    6    6    0  503  0.17786930189E+01  0.19006349888E+02  0.18340979466E+01  0.19177304300E+02  0.00000000000E+00 0.  1.
<mgrwt>
<rscale>  0 0.22652415E+04</rscale>
<asrwt>0</asrwt>
<pdfrwt beam="1">  1        1 0.26339247E+00 0.22652415E+04</pdfrwt>
<pdfrwt beam="2">  1       -1 0.11527602E+00 0.22652415E+04</pdfrwt>
<totfact> 0.28932145E+00</totfact>
</mgrwt>
</event>
<event>
12    2  0.3555611E-008  0.1032134E+04  0.7818608E-02  0.9273986E-01
          2   -1    0    0  501    0  0.00000000000E+00  0.00000000000E+00  0.88917885364E+03  0.88917885364E+03  0.00000000000E+00 0. -1.
         -2   -1    0    0    0  501 -0.00000000000E+00 -0.00000000000E+00 -0.29951806323E+03  0.29951806323E+03  0.00000000000E+00 0.  1.
         23    2    1    2    0    0  0.45615878304E+02  0.69067413397E+02  0.12673511388E+03  0.17525075122E+03  0.88317160099E+02 0.  0.
        254    2    1    2    0    0 -0.45615878304E+02 -0.69067413397E+02  0.46292567653E+03  0.10134461657E+04  0.89773149256E+03 0.  0.
         23    2    4    4    0    0  0.36153633819E+03 -0.22053634622E+03  0.11232298107E+03  0.44779614716E+03  0.92520989508E+02 0.  0.
         23    2    4    4    0    0 -0.40715221650E+03  0.15146893282E+03  0.35060269546E+03  0.56565001849E+03  0.91224603834E+02 0.  0.
          1    1    3    3  502    0  0.12561524628E+02  0.82507869856E+02  0.73775942446E+02  0.11139223569E+03  0.00000000000E+00 0. -1.
         -1    1    3    3    0  502  0.33054353676E+02 -0.13440456459E+02  0.52959171434E+02  0.63858515530E+02  0.00000000000E+00 0.  1.
         11    1    5    5    0    0  0.14467749414E+03 -0.55524167948E+02  0.76915877771E+02  0.17300451668E+03  0.00000000000E+00 0.  1.
        -11    1    5    5    0    0  0.21685884405E+03 -0.16501217827E+03  0.35407103301E+02  0.27479163048E+03  0.00000000000E+00 0. -1.
          1    1    6    6  503    0 -0.68385412682E+02  0.17446067483E+02  0.10412980322E+03  0.12579326634E+03  0.00000000000E+00 0. -1.
         -1    1    6    6    0  503 -0.33876680382E+03  0.13402286534E+03  0.24647289224E+03  0.43985675215E+03  0.00000000000E+00 0.  1.
<mgrwt>
<rscale>  0 0.10321340E+04</rscale>
<asrwt>0</asrwt>
<pdfrwt beam="1">  1        2 0.13679675E+00 0.10321340E+04</pdfrwt>
<pdfrwt beam="2">  1       -2 0.46079702E-01 0.10321340E+04</pdfrwt>
<totfact> 0.13268699E+02</totfact>
</mgrwt>
</event>
<event>
12    2  0.3555611E-008  0.1189746E+04  0.7818608E-02  0.9121880E-01
         -2   -1    0    0    0  501 -0.00000000000E+00  0.00000000000E+00  0.17995863054E+03  0.17995863054E+03  0.00000000000E+00 0.  1.
          2   -1    0    0  501    0  0.00000000000E+00 -0.00000000000E+00 -0.19664163610E+04  0.19664163610E+04  0.00000000000E+00 0. -1.
         23    2    1    2    0    0  0.40801869230E+02 -0.16675345603E+03 -0.69677141507E+03  0.72347592477E+03  0.91953799439E+02 0.  0.
        254    2    1    2    0    0 -0.40801869230E+02  0.16675345603E+03 -0.10896863154E+04  0.14228990667E+04  0.89875134526E+03 0.  0.
         23    2    4    4    0    0 -0.35023940983E+03 -0.18069728287E+03 -0.30858321846E+03  0.50842320010E+03  0.89170597478E+02 0.  0.
         23    2    4    4    0    0  0.30943754060E+03  0.34745073890E+03 -0.78110309690E+03  0.91447586663E+03  0.98338472464E+02 0.  0.
          1    1    3    3  502    0  0.59430385288E+02 -0.13100875228E+03 -0.62317760849E+03  0.63956672490E+03  0.00000000000E+00 0. -1.
         -1    1    3    3    0  502 -0.18628516057E+02 -0.35744703749E+02 -0.73593806581E+02  0.83909199875E+02  0.00000000000E+00 0.  1.
         11    1    5    5    0    0 -0.18276330673E+02 -0.96060600500E+01  0.44521596897E+01  0.21121609277E+02  0.00000000000E+00 0. -1.
        -11    1    5    5    0    0 -0.33196307916E+03 -0.17109122282E+03 -0.31303537815E+03  0.48730159083E+03  0.00000000000E+00 0.  1.
          3    1    6    6  503    0  0.34132210774E+02  0.51645754127E+02 -0.17845602353E+03  0.18888844344E+03  0.00000000000E+00 0. -1.
         -3    1    6    6    0  503  0.27530532983E+03  0.29580498477E+03 -0.60264707337E+03  0.72558742319E+03  0.00000000000E+00 0.  1.
<mgrwt>
<rscale>  0 0.11897455E+04</rscale>
<asrwt>0</asrwt>
<pdfrwt beam="1">  1        2 0.30252559E+00 0.11897455E+04</pdfrwt>
<pdfrwt beam="2">  1       -2 0.27685943E-01 0.11897455E+04</pdfrwt>
<totfact> 0.82069545E+01</totfact>
</mgrwt>
</event>
<event>
12    2  0.3555611E-008  0.1276625E+04  0.7818608E-02  0.9048310E-01
          2   -1    0    0  501    0  0.00000000000E+00  0.00000000000E+00  0.23522666546E+04  0.23522666546E+04  0.00000000000E+00 0. -1.
         -2   -1    0    0    0  501 -0.00000000000E+00 -0.00000000000E+00 -0.17321288922E+03  0.17321288922E+03  0.00000000000E+00 0.  1.
         23    2    1    2    0    0 -0.14919448770E+03 -0.11510777131E+03  0.58069739835E+02  0.21606024950E+03  0.88324076849E+02 0.  0.
        254    2    1    2    0    0  0.14919448770E+03  0.11510777131E+03  0.21209840255E+04  0.23094192943E+04  0.89405561695E+03 0.  0.
         23    2    4    4    0    0  0.25101952081E+02  0.46719347577E+03  0.77544311406E+03  0.91008561636E+03  0.89688093709E+02 0.  0.
         23    2    4    4    0    0  0.12409253562E+03 -0.35208570445E+03  0.13455409115E+04  0.13993336780E+04  0.91055461931E+02 0.  0.
          3    1    3    3  502    0 -0.30961895411E+02 -0.12290734924E+02 -0.22178948692E+02  0.40020081178E+02  0.00000000000E+00 0. -1.
         -3    1    3    3    0  502 -0.11823259229E+03 -0.10281703639E+03  0.80248688527E+02  0.17604016832E+03  0.00000000000E+00 0.  1.
         11    1    5    5    0    0  0.44984668359E+02  0.12243648514E+03  0.19238286546E+03  0.23243381898E+03  0.00000000000E+00 0.  1.
        -11    1    5    5    0    0 -0.19882716278E+02  0.34475699063E+03  0.58306024860E+03  0.67765179738E+03  0.00000000000E+00 0. -1.
          2    1    6    6  503    0  0.89796257206E+02 -0.33090906502E+03  0.11688037639E+04  0.12180584615E+04  0.00000000000E+00 0. -1.
         -2    1    6    6    0  503  0.34296278416E+02 -0.21176639436E+02  0.17673714761E+03  0.18127521650E+03  0.00000000000E+00 0.  1.
<mgrwt>
<rscale>  0 0.12766251E+04</rscale>
<asrwt>0</asrwt>
<pdfrwt beam="1">  1        2 0.36188715E+00 0.12766251E+04</pdfrwt>
<pdfrwt beam="2">  1       -2 0.26648139E-01 0.12766251E+04</pdfrwt>
<totfact> 0.53258752E+01</totfact>
</mgrwt>
</event>
<event>
12    2  0.3555611E-008  0.2515551E+04  0.7818608E-02  0.8397466E-01
          2   -1    0    0  501    0  0.00000000000E+00  0.00000000000E+00  0.22222953284E+04  0.22222953284E+04  0.00000000000E+00 0. -1.
         -2   -1    0    0    0  501 -0.00000000000E+00 -0.00000000000E+00 -0.71187650554E+03  0.71187650554E+03  0.00000000000E+00 0.  1.
         23    2    1    2    0    0 -0.53641383371E+03  0.95815876877E+03  0.65403477688E+03  0.12825444417E+04  0.10653979665E+03 0.  0.
        254    2    1    2    0    0  0.53641383371E+03 -0.95815876877E+03  0.85638404599E+03  0.16516273923E+04  0.88807172100E+03 0.  0.
         23    2    4    4    0    0 -0.19568315691E+03 -0.49096764810E+03  0.37487922429E+03  0.65442474367E+03  0.91630687832E+02 0.  0.
         23    2    4    4    0    0  0.73209699062E+03 -0.46719112068E+03  0.48150482170E+03  0.99720264864E+03  0.91283526529E+02 0.  0.
          3    1    3    3  502    0 -0.22010579752E+03  0.43435789593E+03  0.23322092414E+03  0.53991234781E+03  0.00000000000E+00 0. -1.
         -3    1    3    3    0  502 -0.31630803618E+03  0.52380087284E+03  0.42081385274E+03  0.74263209384E+03  0.00000000000E+00 0.  1.
         11    1    5    5    0    0 -0.13860399224E+03 -0.43359924146E+03  0.32561196394E+03  0.55968073034E+03  0.00000000000E+00 0.  1.
        -11    1    5    5    0    0 -0.57079164667E+02 -0.57368406640E+02  0.49267260352E+02  0.94744013332E+02  0.00000000000E+00 0. -1.
          1    1    6    6  503    0  0.13270759156E+03 -0.12488115251E+03  0.11789310134E+03  0.21703776273E+03  0.00000000000E+00 0. -1.
         -1    1    6    6    0  503  0.59938939906E+03 -0.34230996817E+03  0.36361172037E+03  0.78016488590E+03  0.00000000000E+00 0.  1.
<mgrwt>
<rscale>  0 0.25155515E+04</rscale>
<asrwt>0</asrwt>
<pdfrwt beam="1">  1        2 0.34189159E+00 0.25155515E+04</pdfrwt>
<pdfrwt beam="2">  1       -2 0.10951946E+00 0.25155515E+04</pdfrwt>
<totfact> 0.29667964E+00</totfact>
</mgrwt>
</event>
<event>
12    2  0.3555611E-008  0.2033371E+04  0.7818608E-02  0.8591175E-01
         -2   -1    0    0    0  501 -0.00000000000E+00  0.00000000000E+00  0.88625322943E+03  0.88625322943E+03  0.00000000000E+00 0.  1.
          2   -1    0    0  501    0  0.00000000000E+00 -0.00000000000E+00 -0.11663143918E+04  0.11663143918E+04  0.00000000000E+00 0. -1.
         23    2    1    2    0    0 -0.63547497601E+03 -0.45897044113E+03 -0.32960561417E+03  0.85429554183E+03  0.81845592007E+02 0.  0.
        254    2    1    2    0    0  0.63547497601E+03  0.45897044113E+03  0.49544451778E+02  0.11982720794E+04  0.90494144156E+03 0.  0.
         23    2    4    4    0    0 -0.50183992479E+01  0.39005782978E+03 -0.26080710665E+03  0.47765549452E+03  0.89241972515E+02 0.  0.
         23    2    4    4    0    0  0.64049337526E+03  0.68912611352E+02  0.31035155843E+03  0.72061658490E+03  0.89383784121E+02 0.  0.
          1    1    3    3  502    0 -0.44654324482E+03 -0.32801864432E+03 -0.19209123676E+03  0.58642658855E+03  0.00000000000E+00 0. -1.
         -1    1    3    3    0  502 -0.18893173120E+03 -0.13095179681E+03 -0.13751437741E+03  0.26786895329E+03  0.00000000000E+00 0.  1.
         11    1    5    5    0    0  0.43122021135E+01  0.39077850933E+03 -0.25426700346E+03  0.46623829475E+03  0.00000000000E+00 0.  1.
        -11    1    5    5    0    0 -0.93306013615E+01 -0.72067955083E+00 -0.65401031889E+01  0.11417199766E+02  0.00000000000E+00 0. -1.
          1    1    6    6  503    0  0.43822613187E+03  0.82369608434E+02  0.23752152667E+03  0.50521616233E+03  0.00000000000E+00 0. -1.
         -1    1    6    6    0  503  0.20226724339E+03 -0.13456997082E+02  0.72830031755E+02  0.21540042257E+03  0.00000000000E+00 0.  1.
<mgrwt>
<rscale>  0 0.20333715E+04</rscale>
<asrwt>0</asrwt>
<pdfrwt beam="1">  1        2 0.17943298E+00 0.20333715E+04</pdfrwt>
<pdfrwt beam="2">  1       -2 0.13634665E+00 0.20333715E+04</pdfrwt>
<totfact> 0.70728997E+00</totfact>
</mgrwt>
</event>
<event>
12    2  0.3555611E-008  0.1428107E+04  0.7818608E-02  0.8933721E-01
         -2   -1    0    0    0  501 -0.00000000000E+00  0.00000000000E+00  0.97586416804E+03  0.97586416804E+03  0.00000000000E+00 0. -1.
          2   -1    0    0  501    0  0.00000000000E+00 -0.00000000000E+00 -0.52248324230E+03  0.52248324230E+03  0.00000000000E+00 0.  1.
         23    2    1    2    0    0 -0.73961504226E+02  0.81014671476E+02  0.57067437873E+03  0.58821352998E+03  0.91061678022E+02 0.  0.
        254    2    1    2    0    0  0.73961504226E+02 -0.81014671476E+02 -0.11729345299E+03  0.91013388037E+03  0.89585280319E+03 0.  0.
         23    2    4    4    0    0  0.39221296190E+03  0.11748846949E+03 -0.26585109556E+03  0.49673637001E+03  0.91845894506E+02 0.  0.
         23    2    4    4    0    0 -0.31825145768E+03 -0.19850314097E+03  0.14855764256E+03  0.41339751036E+03  0.90225501495E+02 0.  0.
          4    1    3    3  502    0 -0.92248785901E+02  0.82219403758E+02  0.51420443416E+03  0.52884408758E+03  0.00000000000E+00 0. -1.
         -4    1    3    3    0  502  0.18287281674E+02 -0.12047322829E+01  0.56469944570E+02  0.59369442398E+02  0.00000000000E+00 0.  1.
         11    1    5    5    0    0  0.70194112243E+02  0.45465107638E+02 -0.22122871317E+02  0.86508443758E+02  0.00000000000E+00 0. -1.
        -11    1    5    5    0    0  0.32201884966E+03  0.72023361853E+02 -0.24372822424E+03  0.41022792626E+03  0.00000000000E+00 0.  1.
          2    1    6    6  503    0 -0.18590744543E+03 -0.11263725283E+03  0.13310481109E+03  0.25488354149E+03  0.00000000000E+00 0.  1.
         -2    1    6    6    0  503 -0.13234401225E+03 -0.85865888137E+02  0.15452831472E+02  0.15851396886E+03  0.00000000000E+00 0. -1.
<mgrwt>
<rscale>  0 0.14281074E+04</rscale>
<asrwt>0</asrwt>
<pdfrwt beam="1">  1        2 0.80382038E-01 0.14281074E+04</pdfrwt>
<pdfrwt beam="2">  1       -2 0.15013295E+00 0.14281074E+04</pdfrwt>
<totfact> 0.16968104E+01</totfact>
</mgrwt>
</event>
<event>
12    2  0.3555611E-008  0.1455042E+04  0.7818608E-02  0.8914912E-01
          2   -1    0    0  501    0  0.00000000000E+00  0.00000000000E+00  0.88973182392E+03  0.88973182392E+03  0.00000000000E+00 0. -1.
         -2   -1    0    0    0  501 -0.00000000000E+00 -0.00000000000E+00 -0.59488377564E+03  0.59488377564E+03  0.00000000000E+00 0.  1.
         23    2    1    2    0    0  0.16340058498E+03 -0.29397063402E+03  0.38141554412E+03  0.51660785290E+03  0.91035001779E+02 0.  0.
        254    2    1    2    0    0 -0.16340058498E+03  0.29397063402E+03 -0.86567495840E+02  0.96800774666E+03  0.90356326918E+03 0.  0.
         23    2    4    4    0    0 -0.45090841611E+03  0.43235427446E+03 -0.41453711934E+02  0.63289528410E+03  0.92679080943E+02 0.  0.
         23    2    4    4    0    0  0.28750783113E+03 -0.13838364044E+03 -0.45113783906E+02  0.33511246256E+03  0.91947398877E+02 0.  0.
          1    1    3    3  502    0  0.15692139556E+03 -0.26747728523E+03  0.37829169456E+03  0.48915542384E+03  0.00000000000E+00 0. -1.
         -1    1    3    3    0  502  0.64791894178E+01 -0.26493348786E+02  0.31238495614E+01  0.27452429064E+02  0.00000000000E+00 0.  1.
         11    1    5    5    0    0 -0.12914376528E+03  0.78115923311E+02  0.11758295010E+02  0.15138846418E+03  0.00000000000E+00 0. -1.
        -11    1    5    5    0    0 -0.32176465083E+03  0.35423835115E+03 -0.53212006944E+02  0.48150681992E+03  0.00000000000E+00 0.  1.
          1    1    6    6  503    0  0.24691952097E+03 -0.82751279707E+02 -0.17786713786E+02  0.26102373707E+03  0.00000000000E+00 0. -1.
         -1    1    6    6    0  503  0.40588310162E+02 -0.55632360734E+02 -0.27327070120E+02  0.74088725485E+02  0.00000000000E+00 0.  1.
<mgrwt>
<rscale>  0 0.14550423E+04</rscale>
<asrwt>0</asrwt>
<pdfrwt beam="1">  1        2 0.13688182E+00 0.14550423E+04</pdfrwt>
<pdfrwt beam="2">  1       -2 0.91520581E-01 0.14550423E+04</pdfrwt>
<totfact> 0.29373657E+01</totfact>
</mgrwt>
</event>
<event>
12    2  0.3555611E-008  0.1522891E+04  0.7818608E-02  0.8869371E-01
         -2   -1    0    0    0  501 -0.00000000000E+00  0.00000000000E+00  0.46050174141E+03  0.46050174141E+03  0.00000000000E+00 0.  1.
          2   -1    0    0  501    0  0.00000000000E+00 -0.00000000000E+00 -0.12590606400E+04  0.12590606400E+04  0.00000000000E+00 0. -1.
         23    2    1    2    0    0  0.42256565603E+03 -0.12358724508E+03 -0.50389331726E+03  0.67567511217E+03  0.93770151009E+02 0.  0.
        254    2    1    2    0    0 -0.42256565603E+03  0.12358724508E+03 -0.29466558131E+03  0.10438872692E+04  0.89946499945E+03 0.  0.
         23    2    4    4    0    0 -0.16390415504E+03 -0.38057630187E+03 -0.16905953043E+03  0.45680615252E+03  0.91585165670E+02 0.  0.
         23    2    4    4    0    0 -0.25866150099E+03  0.50416354695E+03 -0.12560605088E+03  0.58708111670E+03  0.88321590824E+02 0.  0.
          3    1    3    3  502    0  0.10476716269E+03 -0.32191425369E+02 -0.19218097475E+03  0.22123736868E+03  0.00000000000E+00 0. -1.
         -3    1    3    3    0  502  0.31779849335E+03 -0.91395819707E+02 -0.31171234251E+03  0.45443774349E+03  0.00000000000E+00 0.  1.
         11    1    5    5    0    0 -0.12956809571E+03 -0.30467936339E+03 -0.17270761248E+03  0.37342378782E+03  0.00000000000E+00 0. -1.
        -11    1    5    5    0    0 -0.34336059332E+02 -0.75896938482E+02  0.36480820509E+01  0.83382364707E+02  0.00000000000E+00 0.  1.
          3    1    6    6  503    0 -0.11479285514E+03  0.19482469334E+03 -0.81679783757E+01  0.22627588603E+03  0.00000000000E+00 0. -1.
         -3    1    6    6    0  503 -0.14386864585E+03  0.30933885360E+03 -0.11743807250E+03  0.36080523067E+03  0.00000000000E+00 0.  1.
<mgrwt>
<rscale>  0 0.15228915E+04</rscale>
<asrwt>0</asrwt>
<pdfrwt beam="1">  1        2 0.19370164E+00 0.15228915E+04</pdfrwt>
<pdfrwt beam="2">  1       -2 0.70846422E-01 0.15228915E+04</pdfrwt>
<totfact> 0.30513941E+01</totfact>
</mgrwt>
</event>
<event>
12    2  0.3555611E-008  0.3132402E+04  0.7818608E-02  0.8206901E-01
         -1   -1    0    0    0  501 -0.00000000000E+00  0.00000000000E+00  0.11735808716E+04  0.11735808716E+04  0.00000000000E+00 0.  1.
          1   -1    0    0  501    0  0.00000000000E+00 -0.00000000000E+00 -0.20901719248E+04  0.20901719248E+04  0.00000000000E+00 0. -1.
         23    2    1    2    0    0  0.10341205623E+04 -0.38158451793E+03 -0.13784158632E+04  0.17672992959E+04  0.91128632215E+02 0.  0.
        254    2    1    2    0    0 -0.10341205623E+04  0.38158451793E+03  0.46182481006E+03  0.14964535005E+04  0.90059915730E+03 0.  0.
         23    2    4    4    0    0  0.10569441646E+02 -0.16276571222E+03  0.22364491360E+03  0.29100108166E+03  0.89778571937E+02 0.  0.
         23    2    4    4    0    0 -0.10446900040E+04  0.54435023015E+03  0.23817989647E+03  0.12054524188E+04  0.93228179545E+02 0.  0.
          1    1    3    3  502    0  0.77133428013E+03 -0.28596636248E+03 -0.10898133317E+04  0.13654400134E+04  0.00000000000E+00 0. -1.
         -1    1    3    3    0  502  0.26278628221E+03 -0.95618155448E+02 -0.28860253152E+03  0.40185928255E+03  0.00000000000E+00 0.  1.
         11    1    5    5    0    0 -0.16424542325E+02 -0.12483264989E+03  0.10638098335E+03  0.16483285378E+03  0.00000000000E+00 0. -1.
        -11    1    5    5    0    0  0.26993983970E+02 -0.37933062335E+02  0.11726393025E+03  0.12616822788E+03  0.00000000000E+00 0.  1.
          4    1    6    6  503    0 -0.83285516216E+03  0.47501432961E+03  0.19304671337E+03  0.97803546358E+03  0.00000000000E+00 0. -1.
         -4    1    6    6    0  503 -0.21183484182E+03  0.69335900544E+02  0.45133183096E+02  0.22741695524E+03  0.00000000000E+00 0.  1.
<mgrwt>
<rscale>  0 0.31324021E+04</rscale>
<asrwt>0</asrwt>
<pdfrwt beam="1">  1        1 0.32156491E+00 0.31324021E+04</pdfrwt>
<pdfrwt beam="2">  1       -1 0.18055090E+00 0.31324021E+04</pdfrwt>
<totfact> 0.44909144E-01</totfact>
</mgrwt>
</event>
<event>
12    2  0.3555611E-008  0.2840915E+04  0.7818608E-02  0.8290677E-01
          2   -1    0    0  501    0  0.00000000000E+00  0.00000000000E+00  0.32501224668E+04  0.32501224668E+04  0.00000000000E+00 0. -1.
         -2   -1    0    0    0  501 -0.00000000000E+00 -0.00000000000E+00 -0.62080710174E+03  0.62080710174E+03  0.00000000000E+00 0.  1.
         23    2    1    2    0    0 -0.79913251165E+03  0.88820272650E+02 -0.16120789597E+03  0.82509875512E+03  0.91094225701E+02 0.  0.
        254    2    1    2    0    0  0.79913251165E+03 -0.88820272650E+02  0.27905232610E+04  0.30458308134E+04  0.91845710932E+03 0.  0.
         23    2    4    4    0    0 -0.84382707200E+02 -0.14342690644E+03  0.10920234285E+03  0.22088482533E+03  0.95777009829E+02 0.  0.
         23    2    4    4    0    0  0.88351521885E+03  0.54606633793E+02  0.26813209182E+04  0.28249459881E+04  0.85187692659E+02 0.  0.
          3    1    3    3  502    0 -0.25478913370E+03  0.25515801797E+02 -0.84863172579E+01  0.25620416931E+03  0.00000000000E+00 0. -1.
         -3    1    3    3    0  502 -0.54434337796E+03  0.63304470853E+02 -0.15272157871E+03  0.56889458581E+03  0.00000000000E+00 0.  1.
         11    1    5    5    0    0  0.31396078170E+01 -0.55749830869E+02  0.14772324621E+00  0.55838361378E+02  0.00000000000E+00 0. -1.
        -11    1    5    5    0    0 -0.87522315017E+02 -0.87677075574E+02  0.10905461960E+03  0.16504646395E+03  0.00000000000E+00 0.  1.
          1    1    6    6  503    0  0.78502780435E+02 -0.98908971351E+00  0.32260899447E+03  0.33202443908E+03  0.00000000000E+00 0. -1.
         -1    1    6    6    0  503  0.80501243842E+03  0.55595723507E+02  0.23587119237E+04  0.24929215490E+04  0.00000000000E+00 0.  1.
<mgrwt>
<rscale>  0 0.28409147E+04</rscale>
<asrwt>0</asrwt>
<pdfrwt beam="1">  1        2 0.50001883E+00 0.28409147E+04</pdfrwt>
<pdfrwt beam="2">  1       -2 0.95508787E-01 0.28409147E+04</pdfrwt>
<totfact> 0.95915040E-01</totfact>
</mgrwt>
</event>
<event>
12    2  0.3555611E-008  0.1269834E+04  0.7818608E-02  0.9053835E-01
          1   -1    0    0  501    0  0.00000000000E+00  0.00000000000E+00  0.15032203567E+04  0.15032203567E+04  0.00000000000E+00 0. -1.
         -1   -1    0    0    0  501 -0.00000000000E+00 -0.00000000000E+00 -0.26817060261E+03  0.26817060261E+03  0.00000000000E+00 0.  1.
         23    2    1    2    0    0 -0.23170639703E+02  0.23130123132E+03  0.60151350158E+03  0.65107889228E+03  0.89711165584E+02 0.  0.
        254    2    1    2    0    0  0.23170639703E+02 -0.23130123132E+03  0.63353625252E+03  0.11203120670E+04  0.89425600706E+03 0.  0.
         23    2    4    4    0    0 -0.55942995582E+02 -0.71200114865E+02  0.82904914228E+03  0.83897645462E+03  0.91432685502E+02 0.  0.
         23    2    4    4    0    0  0.79113635285E+02 -0.16010111645E+03 -0.19551288977E+03  0.28133561242E+03  0.95042632404E+02 0.  0.
          2    1    3    3  502    0 -0.28109756376E+02  0.91016767388E+02  0.35336183756E+03  0.36597650005E+03  0.00000000000E+00 0. -1.
         -2    1    3    3    0  502  0.49391166728E+01  0.14028446393E+03  0.24815166402E+03  0.28510239222E+03  0.00000000000E+00 0.  1.
         11    1    5    5    0    0 -0.53538359072E+02 -0.57054406729E+02  0.30973525748E+03  0.31946438134E+03  0.00000000000E+00 0. -1.
        -11    1    5    5    0    0 -0.24046365097E+01 -0.14145708136E+02  0.51931388480E+03  0.51951207328E+03  0.00000000000E+00 0.  1.
          3    1    6    6  503    0 -0.33450867134E+01 -0.45113153878E+02 -0.10240643713E+03  0.11195295719E+03  0.00000000000E+00 0. -1.
         -3    1    6    6    0  503  0.82458721998E+02 -0.11498796258E+03 -0.93106452637E+02  0.16938265523E+03  0.00000000000E+00 0.  1.
<mgrwt>
<rscale>  0 0.12698339E+04</rscale>
<asrwt>0</asrwt>
<pdfrwt beam="1">  1        1 0.23126466E+00 0.12698339E+04</pdfrwt>
<pdfrwt beam="2">  1       -1 0.41257017E-01 0.12698339E+04</pdfrwt>
<totfact> 0.36869978E+01</totfact>
</mgrwt>
</event>
<event>
12    2  0.3555611E-008  0.1605937E+04  0.7818608E-02  0.8816909E-01
         -1   -1    0    0    0  501 -0.00000000000E+00  0.00000000000E+00  0.85706809570E+03  0.85706809570E+03  0.00000000000E+00 0.  1.
          1   -1    0    0  501    0  0.00000000000E+00 -0.00000000000E+00 -0.75228335647E+03  0.75228335647E+03  0.00000000000E+00 0. -1.
         23    2    1    2    0    0 -0.34499968663E+03  0.31899073365E+03  0.31516178733E+03  0.57301616984E+03  0.90778338685E+02 0.  0.
        254    2    1    2    0    0  0.34499968663E+03 -0.31899073365E+03 -0.21037704809E+03  0.10363352823E+04  0.89941783567E+03 0.  0.
         23    2    4    4    0    0  0.41142326017E+03 -0.20848823916E+03 -0.51295992114E+03  0.69579210295E+03  0.90897331920E+02 0.  0.
         23    2    4    4    0    0 -0.66423573545E+02 -0.11050249449E+03  0.30258287305E+03  0.34054317939E+03  0.88263070151E+02 0.  0.
          4    1    3    3  502    0 -0.38107929573E+02  0.76746552310E+02  0.37837871613E+02  0.93669376618E+02  0.00000000000E+00 0. -1.
         -4    1    3    3    0  502 -0.30689175705E+03  0.24224418134E+03  0.27732391571E+03  0.47934679322E+03  0.00000000000E+00 0.  1.
         11    1    5    5    0    0  0.37834510931E+03 -0.17799646741E+03 -0.49339174017E+03  0.64673269085E+03  0.00000000000E+00 0.  1.
        -11    1    5    5    0    0  0.33078150859E+02 -0.30491771749E+02 -0.19568180975E+02  0.49059412097E+02  0.00000000000E+00 0. -1.
          3    1    6    6  503    0 -0.11655842841E+02  0.15091305231E+02  0.42308490086E+02  0.46407052258E+02  0.00000000000E+00 0. -1.
         -3    1    6    6    0  503 -0.54767730704E+02 -0.12559379972E+03  0.26027438296E+03  0.29413612713E+03  0.00000000000E+00 0.  1.
<mgrwt>
<rscale>  0 0.16059366E+04</rscale>
<asrwt>0</asrwt>
<pdfrwt beam="1">  1        1 0.11573590E+00 0.16059366E+04</pdfrwt>
<pdfrwt beam="2">  1       -1 0.13185663E+00 0.16059366E+04</pdfrwt>
<totfact> 0.11439718E+01</totfact>
</mgrwt>
</event>
<event>
12    2  0.3555611E-008  0.2846087E+04  0.7818608E-02  0.8289101E-01
          1   -1    0    0  501    0  0.00000000000E+00  0.00000000000E+00  0.41425642118E+04  0.41425642118E+04  0.00000000000E+00 0. -1.
         -1   -1    0    0    0  501 -0.00000000000E+00 -0.00000000000E+00 -0.48884037817E+03  0.48884037817E+03  0.00000000000E+00 0.  1.
         23    2    1    2    0    0 -0.86564442702E+02 -0.12444046028E+04  0.20940376021E+04  0.24390767228E+04  0.89808476365E+02 0.  0.
        254    2    1    2    0    0  0.86564442702E+02  0.12444046028E+04  0.15596862315E+04  0.21923278672E+04  0.90423676011E+03 0.  0.
         23    2    4    4    0    0  0.38000491631E+03  0.10294341687E+04  0.14065212189E+04  0.17863707804E+04  0.93167493836E+02 0.  0.
         23    2    4    4    0    0 -0.29344047361E+03  0.21497043401E+03  0.15316501263E+03  0.40595708672E+03  0.94984399319E+02 0.  0.
          1    1    3    3  502    0 -0.92516810854E+02 -0.12246474988E+04  0.20390585374E+04  0.23803530359E+04  0.00000000000E+00 0. -1.
         -1    1    3    3    0  502  0.59523681527E+01 -0.19757103996E+02  0.54979064749E+02  0.58723686921E+02  0.00000000000E+00 0.  1.
         11    1    5    5    0    0  0.20131061740E+03  0.47791704597E+03  0.59906281744E+03  0.79234268265E+03  0.00000000000E+00 0. -1.
        -11    1    5    5    0    0  0.17869429891E+03  0.55151712278E+03  0.80745840143E+03  0.99402809780E+03  0.00000000000E+00 0.  1.
          2    1    6    6  503    0 -0.42940883562E+02  0.17700144821E+01  0.38202859691E+02  0.57502268833E+02  0.00000000000E+00 0. -1.
         -2    1    6    6    0  503 -0.25049959005E+03  0.21320041952E+03  0.11496215294E+03  0.34845481788E+03  0.00000000000E+00 0.  1.
<mgrwt>
<rscale>  0 0.28460869E+04</rscale>
<asrwt>0</asrwt>
<pdfrwt beam="1">  1        1 0.63731755E+00 0.28460869E+04</pdfrwt>
<pdfrwt beam="2">  1       -1 0.75206215E-01 0.28460869E+04</pdfrwt>
<totfact> 0.10957661E-01</totfact>
</mgrwt>
</event>
<event>
12    2  0.3555611E-008  0.1469804E+04  0.7818608E-02  0.8904785E-01
         -1   -1    0    0    0  501 -0.00000000000E+00  0.00000000000E+00  0.38491639154E+03  0.38491639154E+03  0.00000000000E+00 0.  1.
          1   -1    0    0  501    0  0.00000000000E+00 -0.00000000000E+00 -0.14031116325E+04  0.14031116325E+04  0.00000000000E+00 0. -1.
         23    2    1    2    0    0 -0.37264727422E+03  0.42306067513E+02 -0.59757515142E+03  0.71129023542E+03  0.90454093759E+02 0.  0.
        254    2    1    2    0    0  0.37264727422E+03 -0.42306067513E+02 -0.42062008952E+03  0.10767377886E+04  0.91748962465E+03 0.  0.
         23    2    4    4    0    0 -0.12715737537E+03  0.15102949489E+03 -0.48361730569E+03  0.53037289307E+03  0.91819392823E+02 0.  0.
         23    2    4    4    0    0  0.49980464959E+03 -0.19333556241E+03  0.62997216173E+02  0.54636489553E+03  0.85805724609E+02 0.  0.
          2    1    3    3  502    0 -0.13075586609E+03  0.45731757003E+02 -0.27672354394E+03  0.30945825226E+03  0.00000000000E+00 0. -1.
         -2    1    3    3    0  502 -0.24189140813E+03 -0.34256894898E+01 -0.32085160748E+03  0.40183198317E+03  0.00000000000E+00 0.  1.
         11    1    5    5    0    0 -0.78232992315E+02  0.14500110046E+03 -0.40905032654E+03  0.44098513565E+03  0.00000000000E+00 0.  1.
        -11    1    5    5    0    0 -0.48924383054E+02  0.60283944370E+01 -0.74566979151E+02  0.89387757419E+02  0.00000000000E+00 0. -1.
          3    1    6    6  503    0  0.45985648774E+02 -0.51230586883E+00 -0.12200081726E+02  0.47579242791E+02  0.00000000000E+00 0. -1.
         -3    1    6    6    0  503  0.45381900081E+03 -0.19282325654E+03  0.75197297899E+02  0.49878565273E+03  0.00000000000E+00 0.  1.
<mgrwt>
<rscale>  0 0.14698036E+04</rscale>
<asrwt>0</asrwt>
<pdfrwt beam="1">  1        1 0.21586333E+00 0.14698036E+04</pdfrwt>
<pdfrwt beam="2">  1       -1 0.59217906E-01 0.14698036E+04</pdfrwt>
<totfact> 0.21425906E+01</totfact>
</mgrwt>
</event>
<event>
12    2  0.3555611E-008  0.2675568E+04  0.7818608E-02  0.8342976E-01
         -2   -1    0    0    0  501 -0.00000000000E+00  0.00000000000E+00  0.48838623307E+03  0.48838623307E+03  0.00000000000E+00 0.  1.
          2   -1    0    0  501    0  0.00000000000E+00 -0.00000000000E+00 -0.36644491195E+04  0.36644491195E+04  0.00000000000E+00 0. -1.
         23    2    1    2    0    0 -0.64165356415E+03 -0.13537454490E+03  0.12325048470E+03  0.67280215361E+03  0.86177097460E+02 0.  0.
        254    2    1    2    0    0  0.64165356415E+03  0.13537454490E+03 -0.32993133712E+04  0.34800331990E+04  0.89169321022E+03 0.  0.
         23    2    4    4    0    0  0.19639689112E+03  0.48238187363E+03 -0.17796484965E+04  0.18563126205E+04  0.86508746082E+02 0.  0.
         23    2    4    4    0    0  0.44525667304E+03 -0.34700732873E+03 -0.15196648747E+04  0.16237205785E+04  0.91758349004E+02 0.  0.
          3    1    3    3  502    0 -0.17048107903E+03 -0.35420540935E+02  0.72016176206E+02  0.18842702212E+03  0.00000000000E+00 0. -1.
         -3    1    3    3    0  502 -0.47117248512E+03 -0.99954003965E+02  0.51234308495E+02  0.48437513149E+03  0.00000000000E+00 0.  1.
         11    1    5    5    0    0  0.15632214393E+03  0.27713866753E+03 -0.10280032066E+04  0.10761194388E+04  0.00000000000E+00 0. -1.
        -11    1    5    5    0    0  0.40074747185E+02  0.20524320609E+03 -0.75164528990E+03  0.78019318174E+03  0.00000000000E+00 0.  1.
          2    1    6    6  503    0  0.20747213812E+03 -0.11925054371E+03 -0.72765912475E+03  0.76599816064E+03  0.00000000000E+00 0.  1.
         -2    1    6    6    0  503  0.23778453492E+03 -0.22775678501E+03 -0.79200574991E+03  0.85772241784E+03  0.00000000000E+00 0. -1.
<mgrwt>
<rscale>  0 0.26755684E+04</rscale>
<asrwt>0</asrwt>
<pdfrwt beam="1">  1        2 0.56376139E+00 0.26755684E+04</pdfrwt>
<pdfrwt beam="2">  1       -2 0.75136345E-01 0.26755684E+04</pdfrwt>
<totfact> 0.86725831E-01</totfact>
</mgrwt>
</event>
<event>
12    2  0.3555611E-008  0.2120387E+04  0.7818608E-02  0.8552315E-01
         -1   -1    0    0    0  501 -0.00000000000E+00  0.00000000000E+00  0.61564379568E+03  0.61564379568E+03  0.00000000000E+00 0.  1.
          1   -1    0    0  501    0  0.00000000000E+00 -0.00000000000E+00 -0.18257484600E+04  0.18257484600E+04  0.00000000000E+00 0. -1.
         23    2    1    2    0    0  0.68128344742E+03  0.43607906561E+03 -0.11122384879E+03  0.82162158712E+03  0.91537974046E+02 0.  0.
        254    2    1    2    0    0 -0.68128344742E+03 -0.43607906561E+03 -0.10988808156E+04  0.16197706686E+04  0.87281492013E+03 0.  0.
         23    2    4    4    0    0  0.15688793630E+03  0.68630663504E+02 -0.99244172527E+02  0.21829765227E+03  0.92089449334E+02 0.  0.
         23    2    4    4    0    0 -0.83817138372E+03 -0.50470972912E+03 -0.99963664304E+03  0.14014730163E+04  0.87120710548E+02 0.  0.
          3    1    3    3  502    0  0.26412858111E+02  0.42421079920E+02 -0.74574850297E+01  0.50525252876E+02  0.00000000000E+00 0. -1.
         -3    1    3    3    0  502  0.65487058931E+03  0.39365798569E+03 -0.10376636376E+03  0.77109633425E+03  0.00000000000E+00 0.  1.
         11    1    5    5    0    0  0.14246366721E+03  0.87365008257E+02 -0.99794964876E+02  0.19464731223E+03  0.00000000000E+00 0. -1.
        -11    1    5    5    0    0  0.14424269081E+02 -0.18734344753E+02  0.55079234906E+00  0.23650340041E+02  0.00000000000E+00 0.  1.
          1    1    6    6  503    0 -0.44940200765E+03 -0.28204965402E+03 -0.48134068041E+03  0.71638189706E+03  0.00000000000E+00 0. -1.
         -1    1    6    6    0  503 -0.38876937607E+03 -0.22266007509E+03 -0.51829596263E+03  0.68509111926E+03  0.00000000000E+00 0.  1.
<mgrwt>
<rscale>  0 0.21203874E+04</rscale>
<asrwt>0</asrwt>
<pdfrwt beam="1">  1        1 0.28088437E+00 0.21203874E+04</pdfrwt>
<pdfrwt beam="2">  1       -1 0.94714431E-01 0.21203874E+04</pdfrwt>
<totfact> 0.38722324E+00</totfact>
</mgrwt>
</event>
<event>
12    2  0.3555611E-008  0.1407134E+04  0.7818608E-02  0.8948671E-01
         -2   -1    0    0    0  501 -0.00000000000E+00  0.00000000000E+00  0.88273659704E+03  0.88273659704E+03  0.00000000000E+00 0.  1.
          2   -1    0    0  501    0  0.00000000000E+00 -0.00000000000E+00 -0.56076381485E+03  0.56076381485E+03  0.00000000000E+00 0. -1.
         23    2    1    2    0    0 -0.14063772137E+03 -0.26981634257E+03 -0.15392126667E+03  0.35347228315E+03  0.93118586927E+02 0.  0.
        254    2    1    2    0    0  0.14063772137E+03  0.26981634257E+03  0.47589404886E+03  0.10900281287E+04  0.93225873463E+03 0.  0.
         23    2    4    4    0    0  0.52132281900E+03  0.76154128532E+02  0.33432860513E+03  0.63059439738E+03  0.91086469330E+02 0.  0.
         23    2    4    4    0    0 -0.38068509762E+03  0.19366221404E+03  0.14156544373E+03  0.45943373136E+03  0.92802919952E+02 0.  0.
          2    1    3    3  502    0 -0.13920742011E+03 -0.20301940796E+03 -0.93277739647E+02  0.26324194676E+03  0.00000000000E+00 0. -1.
         -2    1    3    3    0  502 -0.14303012659E+01 -0.66796934615E+02 -0.60643527023E+02  0.90230336392E+02  0.00000000000E+00 0.  1.
         11    1    5    5    0    0  0.35714507084E+03  0.12024508776E+02  0.24239223513E+03  0.43179993757E+03  0.00000000000E+00 0.  1.
        -11    1    5    5    0    0  0.16417774815E+03  0.64129619756E+02  0.91936370005E+02  0.19879445980E+03  0.00000000000E+00 0. -1.
          3    1    6    6  503    0 -0.28552357839E+03  0.11662774979E+03  0.13542337859E+03  0.33684601423E+03  0.00000000000E+00 0. -1.
         -3    1    6    6    0  503 -0.95161519239E+02  0.77034464254E+02  0.61420651417E+01  0.12258771713E+03  0.00000000000E+00 0.  1.
<mgrwt>
<rscale>  0 0.14071343E+04</rscale>
<asrwt>0</asrwt>
<pdfrwt beam="1">  1        2 0.86271356E-01 0.14071343E+04</pdfrwt>
<pdfrwt beam="2">  1       -2 0.13580563E+00 0.14071343E+04</pdfrwt>
<totfact> 0.20322645E+01</totfact>
</mgrwt>
</event>
<event>
12    2  0.3555611E-008  0.2837110E+04  0.7818608E-02  0.8291839E-01
          1   -1    0    0  501    0  0.00000000000E+00  0.00000000000E+00  0.15236155054E+04  0.15236155054E+04  0.00000000000E+00 0. -1.
         -1   -1    0    0    0  501 -0.00000000000E+00 -0.00000000000E+00 -0.13207393189E+04  0.13207393189E+04  0.00000000000E+00 0.  1.
         23    2    1    2    0    0  0.13976757139E+03  0.99486793076E+03 -0.68899643471E+03  0.12216769735E+04  0.92094337433E+02 0.  0.
        254    2    1    2    0    0 -0.13976757139E+03 -0.99486793076E+03  0.89187262126E+03  0.16226778508E+04  0.91013705628E+03 0.  0.
         23    2    4    4    0    0 -0.26426861025E-01 -0.40690760025E+03 -0.12565481244E+03  0.43570015538E+03  0.92041825653E+02 0.  0.
         23    2    4    4    0    0 -0.13974114453E+03 -0.58796033051E+03  0.10175274337E+04  0.11869776954E+04  0.91263537728E+02 0.  0.
          3    1    3    3  502    0  0.14133247292E+03  0.84149666041E+03 -0.61193885882E+03  0.10500288874E+04  0.00000000000E+00 0.  1.
         -3    1    3    3    0  502 -0.15649015337E+01  0.15337127035E+03 -0.77057575894E+02  0.17164808618E+03  0.00000000000E+00 0. -1.
         11    1    5    5    0    0  0.65352355030E+01 -0.34083243222E+03 -0.13869862375E+03  0.36803092858E+03  0.00000000000E+00 0. -1.
        -11    1    5    5    0    0 -0.65616623641E+01 -0.66075168029E+02  0.13043811311E+02  0.67669226806E+02  0.00000000000E+00 0.  1.
          2    1    6    6  503    0  0.13010492100E+02 -0.52801379319E+02  0.80758327786E+02  0.97361008979E+02  0.00000000000E+00 0.  1.
         -2    1    6    6    0  503 -0.15275163663E+03 -0.53515895119E+03  0.93676910592E+03  0.10896166864E+04  0.00000000000E+00 0. -1.
<mgrwt>
<rscale>  0 0.28371104E+04</rscale>
<asrwt>0</asrwt>
<pdfrwt beam="1">  1        1 0.23440239E+00 0.28371104E+04</pdfrwt>
<pdfrwt beam="2">  1       -1 0.20319066E+00 0.28371104E+04</pdfrwt>
<totfact> 0.77790694E-01</totfact>
</mgrwt>
</event>
<event>
12    2  0.3555611E-008  0.1154494E+04  0.7818608E-02  0.9153647E-01
          3   -1    0    0  501    0  0.00000000000E+00  0.00000000000E+00  0.17985233649E+03  0.17985233649E+03  0.00000000000E+00 0. -1.
         -3   -1    0    0    0  501 -0.00000000000E+00 -0.00000000000E+00 -0.18527107827E+04  0.18527107827E+04  0.00000000000E+00 0.  1.
         23    2    1    2    0    0 -0.35694371530E+02 -0.68040060126E+02  0.15310629744E+02  0.11962174817E+03  0.90395847871E+02 0.  0.
        254    2    1    2    0    0  0.35694371530E+02  0.68040060126E+02 -0.16881690760E+04  0.19129413710E+04  0.89639629741E+03 0.  0.
         23    2    4    4    0    0 -0.40622068083E+03 -0.73238107309E+02 -0.88517508144E+03  0.98097348460E+03  0.91624182325E+02 0.  0.
         23    2    4    4    0    0  0.44191505236E+03  0.14127816743E+03 -0.80299399453E+03  0.93196788643E+03  0.92284083154E+02 0.  0.
          2    1    3    3  502    0 -0.49651223561E+02 -0.37541934802E+02  0.43392020999E+02  0.75878246924E+02  0.00000000000E+00 0. -1.
         -2    1    3    3    0  502  0.13956852031E+02 -0.30498125323E+02 -0.28081391255E+02  0.43743501251E+02  0.00000000000E+00 0.  1.
         11    1    5    5    0    0 -0.34330794974E+03 -0.50098737533E+02 -0.80423803414E+03  0.87588186841E+03  0.00000000000E+00 0. -1.
        -11    1    5    5    0    0 -0.62912731092E+02 -0.23139369776E+02 -0.80937047303E+02  0.10509161619E+03  0.00000000000E+00 0.  1.
          3    1    6    6  503    0  0.35208898056E+03  0.80394342402E+02 -0.56744213988E+03  0.67262209496E+03  0.00000000000E+00 0. -1.
         -3    1    6    6    0  503  0.89826071795E+02  0.60883825033E+02 -0.23555185465E+03  0.25934579147E+03  0.00000000000E+00 0.  1.
<mgrwt>
<rscale>  0 0.11544945E+04</rscale>
<asrwt>0</asrwt>
<pdfrwt beam="1">  1        3 0.27669591E-01 0.11544945E+04</pdfrwt>
<pdfrwt beam="2">  1       -3 0.28503242E+00 0.11544945E+04</pdfrwt>
<totfact> 0.15254802E+00</totfact>
</mgrwt>
</event>
<event>
12    2  0.3555611E-008  0.1652002E+04  0.7818608E-02  0.8789223E-01
          2   -1    0    0  501    0  0.00000000000E+00  0.00000000000E+00  0.99240500778E+03  0.99240500778E+03  0.00000000000E+00 0. -1.
         -2   -1    0    0    0  501 -0.00000000000E+00 -0.00000000000E+00 -0.68749950176E+03  0.68749950176E+03  0.00000000000E+00 0.  1.
         23    2    1    2    0    0 -0.22929021486E+03  0.49914298867E+03  0.26956910241E+03  0.61861850592E+03  0.91124251038E+02 0.  0.
        254    2    1    2    0    0  0.22929021486E+03 -0.49914298867E+03  0.35336403612E+02  0.10612860036E+04  0.90739274534E+03 0.  0.
         23    2    4    4    0    0 -0.19815980681E+03  0.10396780913E+03  0.18074162171E+03  0.30224736043E+03  0.92786414396E+02 0.  0.
         23    2    4    4    0    0  0.42745002167E+03 -0.60311079780E+03 -0.14540521810E+03  0.75903864319E+03  0.92416605437E+02 0.  0.
          2    1    3    3  502    0 -0.14846152596E+03  0.38190735326E+03  0.16397828338E+03  0.44134218989E+03  0.00000000000E+00 0. -1.
         -2    1    3    3    0  502 -0.80828688901E+02  0.11723563541E+03  0.10559081903E+03  0.17727631603E+03  0.00000000000E+00 0.  1.
         11    1    5    5    0    0 -0.70051846879E+02 -0.53286534356E+01  0.30568916787E+02  0.76616672285E+02  0.00000000000E+00 0. -1.
        -11    1    5    5    0    0 -0.12810795993E+03  0.10929646257E+03  0.15017270492E+03  0.22563068814E+03  0.00000000000E+00 0.  1.
          3    1    6    6  503    0  0.20984258338E+03 -0.22176486711E+03 -0.74736358298E+02  0.31432322430E+03  0.00000000000E+00 0. -1.
         -3    1    6    6    0  503  0.21760743829E+03 -0.38134593069E+03 -0.70668859802E+02  0.44471541889E+03  0.00000000000E+00 0.  1.
<mgrwt>
<rscale>  0 0.16520024E+04</rscale>
<asrwt>0</asrwt>
<pdfrwt beam="1">  1        2 0.15267769E+00 0.16520024E+04</pdfrwt>
<pdfrwt beam="2">  1       -2 0.10576915E+00 0.16520024E+04</pdfrwt>
<totfact> 0.17576617E+01</totfact>
</mgrwt>
</event>
<event>
12    2  0.3555611E-008  0.2805273E+04  0.7818608E-02  0.8301633E-01
         -2   -1    0    0    0  501 -0.00000000000E+00  0.00000000000E+00  0.25664543665E+04  0.25664543665E+04  0.00000000000E+00 0.  1.
          2   -1    0    0  501    0  0.00000000000E+00 -0.00000000000E+00 -0.76657887575E+03  0.76657887575E+03  0.00000000000E+00 0. -1.
         23    2    1    2    0    0 -0.35270150405E+03 -0.26886774591E+03 -0.58885818842E+03  0.74270130777E+03  0.90349602909E+02 0.  0.
        254    2    1    2    0    0  0.35270150405E+03  0.26886774591E+03  0.23887336792E+04  0.25903319345E+04  0.89837782981E+03 0.  0.
         23    2    4    4    0    0  0.62583222732E+03  0.30314811053E+03  0.18253895377E+04  0.19556192152E+04  0.93993600655E+02 0.  0.
         23    2    4    4    0    0 -0.27313072327E+03 -0.34280364624E+02  0.56334414153E+03  0.63471271932E+03  0.98631023883E+02 0.  0.
          3    1    3    3  502    0 -0.21705900473E+03 -0.19784851904E+03 -0.44102677274E+03  0.52987098646E+03  0.00000000000E+00 0. -1.
         -3    1    3    3    0  502 -0.13564249932E+03 -0.71019226872E+02 -0.14783141568E+03  0.21283032131E+03  0.00000000000E+00 0.  1.
         11    1    5    5    0    0  0.57395892684E+03  0.28779330505E+03  0.17383628977E+04  0.18531485100E+04  0.00000000000E+00 0. -1.
        -11    1    5    5    0    0  0.51873300482E+02  0.15354805485E+02  0.87026639983E+02  0.10247070519E+03  0.00000000000E+00 0.  1.
          3    1    6    6  503    0 -0.21982792381E+03 -0.53057827068E+02  0.37340141865E+03  0.43654102734E+03  0.00000000000E+00 0. -1.
         -3    1    6    6    0  503 -0.53302799463E+02  0.18777462445E+02  0.18994272289E+03  0.19817169198E+03  0.00000000000E+00 0.  1.
<mgrwt>
<rscale>  0 0.28052734E+04</rscale>
<asrwt>0</asrwt>
<pdfrwt beam="1">  1        2 0.11793521E+00 0.28052734E+04</pdfrwt>
<pdfrwt beam="2">  1       -2 0.39483913E+00 0.28052734E+04</pdfrwt>
<totfact> 0.25418115E-01</totfact>
</mgrwt>
</event>
<event>
12    2  0.3555611E-008  0.2304101E+04  0.7818608E-02  0.8476306E-01
         -1   -1    0    0    0  501 -0.00000000000E+00  0.00000000000E+00  0.29988869855E+03  0.29988869855E+03  0.00000000000E+00 0.  1.
          1   -1    0    0  501    0  0.00000000000E+00 -0.00000000000E+00 -0.44257088477E+04  0.44257088477E+04  0.00000000000E+00 0. -1.
         23    2    1    2    0    0 -0.86580567712E+03 -0.32948597573E+03 -0.23583156058E+04  0.25353535655E+04  0.90469478400E+02 0.  0.
        254    2    1    2    0    0  0.86580567712E+03  0.32948597573E+03 -0.17675045433E+04  0.21902439808E+04  0.90272692768E+03 0.  0.
         23    2    4    4    0    0  0.71843670158E+02  0.28945508737E+03 -0.79182283013E+02  0.32184055197E+03  0.91464454330E+02 0.  0.
         23    2    4    4    0    0  0.79396200696E+03  0.40030888359E+02 -0.16883222603E+04  0.18684034288E+04  0.92310224855E+02 0.  0.
          4    1    3    3  502    0 -0.94089541649E+02 -0.66070978496E+02 -0.26821671966E+03  0.29181916447E+03  0.00000000000E+00 0.  1.
         -4    1    3    3    0  502 -0.77171613547E+03 -0.26341499723E+03 -0.20900988862E+04  0.22435344010E+04  0.00000000000E+00 0. -1.
         11    1    5    5    0    0  0.72696041491E+02  0.28381850250E+03 -0.56405125014E+02  0.29836084685E+03  0.00000000000E+00 0. -1.
        -11    1    5    5    0    0 -0.85237133260E+00  0.56365848702E+01 -0.22777157999E+02  0.23479705117E+02  0.00000000000E+00 0.  1.
          2    1    6    6  503    0  0.75839402417E+03  0.24069988323E+02 -0.16335510460E+04  0.18011745835E+04  0.00000000000E+00 0. -1.
         -2    1    6    6    0  503  0.35567982796E+02  0.15960900036E+02 -0.54771214343E+02  0.67228845377E+02  0.00000000000E+00 0.  1.
<mgrwt>
<rscale>  0 0.23041007E+04</rscale>
<asrwt>0</asrwt>
<pdfrwt beam="1">  1        1 0.68087829E+00 0.23041007E+04</pdfrwt>
<pdfrwt beam="2">  1       -1 0.46136722E-01 0.23041007E+04</pdfrwt>
<totfact> 0.16299552E-01</totfact>
</mgrwt>
</event>
<event>
12    2  0.3555611E-008  0.1516480E+04  0.7818608E-02  0.8873567E-01
         -2   -1    0    0    0  501 -0.00000000000E+00  0.00000000000E+00  0.55108216743E+03  0.55108216743E+03  0.00000000000E+00 0.  1.
          2   -1    0    0  501    0  0.00000000000E+00 -0.00000000000E+00 -0.10432707156E+04  0.10432707156E+04  0.00000000000E+00 0. -1.
         23    2    1    2    0    0 -0.12059998509E+03 -0.34750798941E+03 -0.48925385565E+03  0.61881896959E+03  0.90892369075E+02 0.  0.
        254    2    1    2    0    0  0.12059998509E+03  0.34750798941E+03 -0.29346925122E+01  0.97553391343E+03  0.90352180092E+03 0.  0.
         23    2    4    4    0    0  0.12156552233E+03 -0.28600490985E+03 -0.73047727637E+02  0.33177139839E+03  0.90328874670E+02 0.  0.
         23    2    4    4    0    0 -0.96553724506E+00  0.63351289926E+03  0.70113035124E+02  0.64376251505E+03  0.90414668607E+02 0.  0.
          2    1    3    3  502    0 -0.74033355192E+02 -0.16995008588E+03 -0.31625980305E+03  0.36658455013E+03  0.00000000000E+00 0. -1.
         -2    1    3    3    0  502 -0.46566629898E+02 -0.17755790353E+03 -0.17299405260E+03  0.25223441946E+03  0.00000000000E+00 0.  1.
         11    1    5    5    0    0  0.80481540233E+02 -0.13852757215E+03 -0.78862984305E+02  0.17856801745E+03  0.00000000000E+00 0.  1.
        -11    1    5    5    0    0  0.41083982101E+02 -0.14747733770E+03  0.58152566686E+01  0.15320338094E+03  0.00000000000E+00 0. -1.
          1    1    6    6  503    0  0.20425123309E+02  0.32426383408E+03 -0.44344722331E+01  0.32493673892E+03  0.00000000000E+00 0. -1.
         -1    1    6    6    0  503 -0.21390660555E+02  0.30924906517E+03  0.74547507358E+02  0.31882577613E+03  0.00000000000E+00 0.  1.
<mgrwt>
<rscale>  0 0.15164800E+04</rscale>
<asrwt>0</asrwt>
<pdfrwt beam="1">  1        2 0.16050318E+00 0.15164800E+04</pdfrwt>
<pdfrwt beam="2">  1       -2 0.84781873E-01 0.15164800E+04</pdfrwt>
<totfact> 0.27652780E+01</totfact>
</mgrwt>
</event>
<event>
12    2  0.3555611E-008  0.1939863E+04  0.7818608E-02  0.8635264E-01
          2   -1    0    0  501    0  0.00000000000E+00  0.00000000000E+00  0.31230522997E+04  0.31230522997E+04  0.00000000000E+00 0.  1.
         -2   -1    0    0    0  501 -0.00000000000E+00 -0.00000000000E+00 -0.30123333740E+03  0.30123333740E+03  0.00000000000E+00 0. -1.
         23    2    1    2    0    0 -0.42290876908E+03 -0.15677892169E+03  0.21944905814E+04  0.22418932776E+04  0.82855891640E+02 0.  0.
        254    2    1    2    0    0  0.42290876908E+03  0.15677892169E+03  0.62732838087E+03  0.11823923595E+04  0.89503035545E+03 0.  0.
         23    2    4    4    0    0 -0.25981593507E+03 -0.17019211940E+02  0.84764080081E+02  0.28896843040E+03  0.92324594792E+02 0.  0.
         23    2    4    4    0    0  0.68272470415E+03  0.17379813363E+03  0.54256430079E+03  0.89342392912E+03  0.86668816375E+02 0.  0.
          1    1    3    3  502    0 -0.21434874620E+02 -0.30636693947E+02  0.15597581734E+03  0.16039487667E+03  0.00000000000E+00 0. -1.
         -1    1    3    3    0  502 -0.40147389446E+03 -0.12614222775E+03  0.20385147641E+04  0.20814984009E+04  0.00000000000E+00 0.  1.
         11    1    5    5    0    0 -0.12520227964E+03 -0.33642639388E+02  0.81813826496E+02  0.15330016379E+03  0.00000000000E+00 0.  1.
        -11    1    5    5    0    0 -0.13461365543E+03  0.16623427449E+02  0.29502535846E+01  0.13566826661E+03  0.00000000000E+00 0. -1.
          1    1    6    6  503    0  0.67651336593E+03  0.16073688635E+03  0.53133825087E+03  0.87511543110E+03  0.00000000000E+00 0. -1.
         -1    1    6    6    0  503  0.62113382191E+01  0.13061247283E+02  0.11226049915E+02  0.18308498020E+02  0.00000000000E+00 0.  1.
<mgrwt>
<rscale>  0 0.19398634E+04</rscale>
<asrwt>0</asrwt>
<pdfrwt beam="1">  1        2 0.48046956E+00 0.19398634E+04</pdfrwt>
<pdfrwt beam="2">  1       -2 0.46343592E-01 0.19398634E+04</pdfrwt>
<totfact> 0.60154757E+00</totfact>
</mgrwt>
</event>
<event>
12    2  0.3555611E-008  0.2486602E+04  0.7818608E-02  0.8407774E-01
         -1   -1    0    0    0  501 -0.00000000000E+00  0.00000000000E+00  0.14609987978E+04  0.14609987978E+04  0.00000000000E+00 0.  1.
          1   -1    0    0  501    0  0.00000000000E+00 -0.00000000000E+00 -0.10580418842E+04  0.10580418842E+04  0.00000000000E+00 0. -1.
         23    2    1    2    0    0 -0.18979583536E+03 -0.58500126643E+03 -0.71790482283E+03  0.94987024663E+03  0.92828928420E+02 0.  0.
        254    2    1    2    0    0  0.18979583536E+03  0.58500126643E+03  0.11208617364E+04  0.15691704353E+04  0.90978892173E+03 0.  0.
         23    2    4    4    0    0  0.32938272812E+03  0.13512730191E+03  0.18819686861E+02  0.36742968326E+03  0.88870817618E+02 0.  0.
         23    2    4    4    0    0 -0.13958689276E+03  0.44987396451E+03  0.11020420496E+04  0.12017407521E+04  0.88391581104E+02 0.  0.
          4    1    3    3  502    0 -0.63602691132E+02 -0.26892658892E+03 -0.38390884601E+03  0.47302517332E+03  0.00000000000E+00 0. -1.
         -4    1    3    3    0  502 -0.12619314423E+03 -0.31607467751E+03 -0.33399597681E+03  0.47684507331E+03  0.00000000000E+00 0.  1.
         11    1    5    5    0    0  0.18815074117E+03  0.10242159115E+03  0.48046320796E+02  0.21954346421E+03  0.00000000000E+00 0. -1.
        -11    1    5    5    0    0  0.14123198695E+03  0.32705710764E+02 -0.29226633935E+02  0.14788621905E+03  0.00000000000E+00 0.  1.
          2    1    6    6  503    0 -0.10189922538E+03  0.18153408251E+03  0.49114075199E+03  0.53343913759E+03  0.00000000000E+00 0. -1.
         -2    1    6    6    0  503 -0.37687667379E+02  0.26833988200E+03  0.61090129757E+03  0.66830161448E+03  0.00000000000E+00 0.  1.
<mgrwt>
<rscale>  0 0.24866024E+04</rscale>
<asrwt>0</asrwt>
<pdfrwt beam="1">  1        1 0.16277567E+00 0.24866024E+04</pdfrwt>
<pdfrwt beam="2">  1       -1 0.22476905E+00 0.24866024E+04</pdfrwt>
<totfact> 0.12409677E+00</totfact>
</mgrwt>
</event>
<event>
12    2  0.3555611E-008  0.1346836E+04  0.7818608E-02  0.8993226E-01
          2   -1    0    0  501    0  0.00000000000E+00  0.00000000000E+00  0.19754369796E+04  0.19754369796E+04  0.00000000000E+00 0. -1.
         -2   -1    0    0    0  501 -0.00000000000E+00 -0.00000000000E+00 -0.22956541873E+03  0.22956541873E+03  0.00000000000E+00 0.  1.
         23    2    1    2    0    0  0.34393167449E+03 -0.29819099050E+03  0.63669837259E+03  0.78799273716E+03  0.91328377954E+02 0.  0.
        254    2    1    2    0    0 -0.34393167449E+03  0.29819099050E+03  0.11091731882E+04  0.14170096611E+04  0.75527766729E+03 0.  0.
         23    2    4    4    0    0  0.10212335571E+03 -0.13571965773E+03  0.52583918247E+03  0.55951677033E+03  0.87767677357E+02 0.  0.
         23    2    4    4    0    0 -0.44605503020E+03  0.43391064823E+03  0.58333400576E+03  0.85749289079E+03  0.88158691426E+02 0.  0.
          4    1    3    3  502    0  0.22106460810E+03 -0.14160298298E+03  0.31955912386E+03  0.41356861508E+03  0.00000000000E+00 0. -1.
         -4    1    3    3    0  502  0.12286706639E+03 -0.15658800753E+03  0.31713924873E+03  0.37442412208E+03  0.00000000000E+00 0.  1.
         11    1    5    5    0    0  0.10895921795E+03 -0.85453460703E+02  0.41806043331E+03  0.44039633402E+03  0.00000000000E+00 0. -1.
        -11    1    5    5    0    0 -0.68358622437E+01 -0.50266197025E+02  0.10777874916E+03  0.11912043631E+03  0.00000000000E+00 0.  1.
          2    1    6    6  503    0 -0.43533359777E+03  0.39439514614E+03  0.54077660865E+03  0.79843735704E+03  0.00000000000E+00 0. -1.
         -2    1    6    6    0  503 -0.10721432425E+02  0.39515502087E+02  0.42557397108E+02  0.59055533755E+02  0.00000000000E+00 0.  1.
<mgrwt>
<rscale>  0 0.13468363E+04</rscale>
<asrwt>0</asrwt>
<pdfrwt beam="1">  1        2 0.30391337E+00 0.13468363E+04</pdfrwt>
<pdfrwt beam="2">  1       -2 0.35317758E-01 0.13468363E+04</pdfrwt>
<totfact> 0.50750923E+01</totfact>
</mgrwt>
</event>
<event>
12    2  0.3555611E-008  0.2186072E+04  0.7818608E-02  0.8524248E-01
         -2   -1    0    0    0  501 -0.00000000000E+00  0.00000000000E+00  0.57379724621E+03  0.57379724621E+03  0.00000000000E+00 0.  1.
          2   -1    0    0  501    0  0.00000000000E+00 -0.00000000000E+00 -0.20821418367E+04  0.20821418367E+04  0.00000000000E+00 0. -1.
         23    2    1    2    0    0 -0.17070067245E+03  0.54620211103E+03 -0.14859698606E+04  0.15946512219E+04  0.85619083103E+02 0.  0.
        254    2    1    2    0    0  0.17070067245E+03 -0.54620211103E+03 -0.22374729929E+02  0.10612878610E+04  0.89350759911E+03 0.  0.
         23    2    4    4    0    0 -0.34551703392E+03 -0.34722157502E+03  0.22129112820E+02  0.49888208123E+03  0.91917302220E+02 0.  0.
         23    2    4    4    0    0  0.51621770637E+03 -0.19898053601E+03 -0.44503842750E+02  0.56240577976E+03  0.90805809335E+02 0.  0.
          3    1    3    3  502    0 -0.17758973465E+03  0.52974017374E+03 -0.14589192536E+04  0.15622445885E+04  0.00000000000E+00 0. -1.
         -3    1    3    3    0  502  0.68890621938E+01  0.16461937290E+02 -0.27050606925E+02  0.32406633461E+02  0.00000000000E+00 0.  1.
         11    1    5    5    0    0 -0.13009007680E+03 -0.85384904548E+02  0.35284608458E+02  0.15955880923E+03  0.00000000000E+00 0. -1.
        -11    1    5    5    0    0 -0.21542695711E+03 -0.26183667048E+03 -0.13155495638E+02  0.33932327200E+03  0.00000000000E+00 0.  1.
          3    1    6    6  503    0  0.31153929579E+03 -0.14506703923E+03 -0.65014931566E+02  0.34975437098E+03  0.00000000000E+00 0. -1.
         -3    1    6    6    0  503  0.20467841058E+03 -0.53913496776E+02  0.20511088816E+02  0.21265140878E+03  0.00000000000E+00 0.  1.
<mgrwt>
<rscale>  0 0.21860716E+04</rscale>
<asrwt>0</asrwt>
<pdfrwt beam="1">  1        2 0.32032952E+00 0.21860716E+04</pdfrwt>
<pdfrwt beam="2">  1       -2 0.88276498E-01 0.21860716E+04</pdfrwt>
<totfact> 0.60787745E+00</totfact>
</mgrwt>
</event>
<event>
12    2  0.3555611E-008  0.2524257E+04  0.7818608E-02  0.8394395E-01
          2   -1    0    0  501    0  0.00000000000E+00  0.00000000000E+00  0.43435805109E+04  0.43435805109E+04  0.00000000000E+00 0. -1.
         -2   -1    0    0    0  501 -0.00000000000E+00 -0.00000000000E+00 -0.36674074556E+03  0.36674074556E+03  0.00000000000E+00 0.  1.
         23    2    1    2    0    0 -0.11750389390E+02 -0.11009720550E+04  0.17470193373E+04  0.20670242006E+04  0.90746590861E+02 0.  0.
        254    2    1    2    0    0  0.11750389390E+02  0.11009720550E+04  0.22298204281E+04  0.26432970558E+04  0.89590325726E+03 0.  0.
         23    2    4    4    0    0 -0.20001071680E+03  0.12796160726E+03  0.11213421354E+04  0.11498049336E+04  0.90910620683E+02 0.  0.
         23    2    4    4    0    0  0.21176110619E+03  0.97301044772E+03  0.11084782927E+04  0.14934921222E+04  0.10100740722E+03 0.  0.
          3    1    3    3  502    0 -0.29251959195E+01 -0.29564491425E+03  0.54716968115E+03  0.62193981385E+03  0.00000000000E+00 0. -1.
         -3    1    3    3    0  502 -0.88251934706E+01 -0.80532714074E+03  0.11998496561E+04  0.14450843868E+04  0.00000000000E+00 0.  1.
         11    1    5    5    0    0 -0.88716631255E+02  0.10020428847E+03  0.72275373666E+03  0.73504047775E+03  0.00000000000E+00 0. -1.
        -11    1    5    5    0    0 -0.11129408555E+03  0.27757318797E+02  0.39858839877E+03  0.41476445588E+03  0.00000000000E+00 0.  1.
          2    1    6    6  503    0 -0.11117997924E+02  0.57220855624E+02  0.69205394664E+02  0.90483273851E+02  0.00000000000E+00 0.  1.
         -2    1    6    6    0  503  0.22287910412E+03  0.91578959210E+03  0.10392728980E+04  0.14030088484E+04  0.00000000000E+00 0. -1.
<mgrwt>
<rscale>  0 0.25242567E+04</rscale>
<asrwt>0</asrwt>
<pdfrwt beam="1">  1        2 0.66824312E+00 0.25242567E+04</pdfrwt>
<pdfrwt beam="2">  1       -2 0.56421656E-01 0.25242567E+04</pdfrwt>
<totfact> 0.45643430E-01</totfact>
</mgrwt>
</event>
<event>
12    2  0.3555611E-008  0.2242567E+04  0.7818608E-02  0.8500917E-01
          1   -1    0    0  501    0  0.00000000000E+00  0.00000000000E+00  0.31115181886E+04  0.31115181886E+04  0.00000000000E+00 0. -1.
         -1   -1    0    0    0  501 -0.00000000000E+00 -0.00000000000E+00 -0.40407171884E+03  0.40407171884E+03  0.00000000000E+00 0.  1.
         23    2    1    2    0    0 -0.68524566098E+03 -0.46050893234E+03  0.46109623053E+03  0.95004449797E+03  0.91349448048E+02 0.  0.
        254    2    1    2    0    0  0.68524566098E+03  0.46050893234E+03  0.22463502392E+04  0.25655454095E+04  0.92428553925E+03 0.  0.
         23    2    4    4    0    0  0.87089259276E+03  0.23144717697E+03  0.14275535306E+04  0.16904953545E+04  0.88564987967E+02 0.  0.
         23    2    4    4    0    0 -0.18564693178E+03  0.22906175537E+03  0.81879670867E+03  0.87505005497E+03  0.91380947247E+02 0.  0.
          3    1    3    3  502    0 -0.61997074578E+02 -0.20978152025E+02  0.17405089858E+02  0.67724864500E+02  0.00000000000E+00 0. -1.
         -3    1    3    3    0  502 -0.62324858640E+03 -0.43953078032E+03  0.44369114067E+03  0.88231963347E+03  0.00000000000E+00 0.  1.
         11    1    5    5    0    0  0.72177845006E+03  0.18046581929E+03  0.11145164199E+04  0.13400294374E+04  0.00000000000E+00 0. -1.
        -11    1    5    5    0    0  0.14911414270E+03  0.50981357681E+02  0.31303711067E+03  0.35046591709E+03  0.00000000000E+00 0.  1.
          3    1    6    6  503    0 -0.10104230260E+03  0.16617664497E+03  0.42495575372E+03  0.46734528655E+03  0.00000000000E+00 0. -1.
         -3    1    6    6    0  503 -0.84604629187E+02  0.62885110397E+02  0.39384095495E+03  0.40770476841E+03  0.00000000000E+00 0.  1.
<mgrwt>
<rscale>  0 0.22425668E+04</rscale>
<asrwt>0</asrwt>
<pdfrwt beam="1">  1        1 0.47869509E+00 0.22425668E+04</pdfrwt>
<pdfrwt beam="2">  1       -1 0.62164882E-01 0.22425668E+04</pdfrwt>
<totfact> 0.11809985E+00</totfact>
</mgrwt>
</event>
<event>
12    2  0.3555611E-008  0.1421213E+04  0.7818608E-02  0.8938605E-01
          2   -1    0    0  501    0  0.00000000000E+00  0.00000000000E+00  0.90492849992E+03  0.90492849992E+03  0.00000000000E+00 0. -1.
         -2   -1    0    0    0  501 -0.00000000000E+00 -0.00000000000E+00 -0.55801252442E+03  0.55801252442E+03  0.00000000000E+00 0.  1.
         23    2    1    2    0    0 -0.41990224109E+03 -0.38810951909E+02  0.40057089174E+02  0.43321437449E+03  0.90807168294E+02 0.  0.
        254    2    1    2    0    0  0.41990224109E+03  0.38810951909E+02  0.30685888632E+03  0.10297266499E+04  0.88789099288E+03 0.  0.
         23    2    4    4    0    0 -0.48350108478E+02  0.38237522250E+03  0.13457919614E+03  0.41692789702E+03  0.84668574509E+02 0.  0.
         23    2    4    4    0    0  0.46825234957E+03 -0.34356427059E+03  0.17227969018E+03  0.61279875283E+03  0.92441056506E+02 0.  0.
          1    1    3    3  502    0 -0.52657506970E+02 -0.68198406035E+01 -0.25321826123E+02  0.58826168873E+02  0.00000000000E+00 0.  1.
         -1    1    3    3    0  502 -0.36724473412E+03 -0.31991111305E+02  0.65378915297E+02  0.37438820562E+03  0.00000000000E+00 0. -1.
         11    1    5    5    0    0 -0.48220929300E+02  0.21520384664E+03  0.37777841805E+02  0.22375236080E+03  0.00000000000E+00 0. -1.
        -11    1    5    5    0    0 -0.12917917756E+00  0.16717137586E+03  0.96801354335E+02  0.19317553622E+03  0.00000000000E+00 0.  1.
          4    1    6    6  503    0  0.23441659408E+03 -0.11643387473E+03  0.87334799277E+02  0.27592635599E+03  0.00000000000E+00 0. -1.
         -4    1    6    6    0  503  0.23383575549E+03 -0.22713039586E+03  0.84944890902E+02  0.33687239685E+03  0.00000000000E+00 0.  1.
<mgrwt>
<rscale>  0 0.14212128E+04</rscale>
<asrwt>0</asrwt>
<pdfrwt beam="1">  1        2 0.13921977E+00 0.14212128E+04</pdfrwt>
<pdfrwt beam="2">  1       -2 0.85848081E-01 0.14212128E+04</pdfrwt>
<totfact> 0.33318302E+01</totfact>
</mgrwt>
</event>
<event>
12    2  0.3555611E-008  0.2236934E+04  0.7818608E-02  0.8503211E-01
         -1   -1    0    0    0  501 -0.00000000000E+00  0.00000000000E+00  0.35193494706E+03  0.35193494706E+03  0.00000000000E+00 0.  1.
          1   -1    0    0  501    0  0.00000000000E+00 -0.00000000000E+00 -0.35545432153E+04  0.35545432153E+04  0.00000000000E+00 0. -1.
         23    2    1    2    0    0  0.49606799371E+03 -0.49401943955E+03 -0.26286331789E+03  0.75378640405E+03  0.94647546166E+02 0.  0.
        254    2    1    2    0    0 -0.49606799371E+03  0.49401943955E+03 -0.29397449504E+04  0.31526917583E+04  0.89845772785E+03 0.  0.
         23    2    4    4    0    0 -0.65220537148E+03  0.41475309586E+03 -0.28114793034E+04  0.29172308399E+04  0.91803720156E+02 0.  0.
         23    2    4    4    0    0  0.15613737777E+03  0.79266343690E+02 -0.12826564699E+03  0.23546091839E+03  0.91256418467E+02 0.  0.
          2    1    3    3  502    0  0.17492634467E+03 -0.11574769926E+03 -0.65131504495E+02  0.21963348748E+03  0.00000000000E+00 0. -1.
         -2    1    3    3    0  502  0.32114164904E+03 -0.37827174029E+03 -0.19773181339E+03  0.53415291657E+03  0.00000000000E+00 0.  1.
         11    1    5    5    0    0 -0.47048903014E+03  0.33868674280E+03 -0.20132139220E+04  0.20950176450E+04  0.00000000000E+00 0.  1.
        -11    1    5    5    0    0 -0.18171634134E+03  0.76066353059E+02 -0.79826538141E+03  0.82221319494E+03  0.00000000000E+00 0. -1.
          1    1    6    6  503    0 -0.72881685770E+01  0.20635395214E+02 -0.47767219553E+01  0.22399866282E+02  0.00000000000E+00 0. -1.
         -1    1    6    6    0  503  0.16342554634E+03  0.58630948476E+02 -0.12348892504E+03  0.21306105210E+03  0.00000000000E+00 0.  1.
<mgrwt>
<rscale>  0 0.22369336E+04</rscale>
<asrwt>0</asrwt>
<pdfrwt beam="1">  1        1 0.54685279E+00 0.22369336E+04</pdfrwt>
<pdfrwt beam="2">  1       -1 0.54143839E-01 0.22369336E+04</pdfrwt>
<totfact> 0.70998047E-01</totfact>
</mgrwt>
</event>
<event>
12    2  0.3555611E-008  0.2977029E+04  0.7818608E-02  0.8250321E-01
         -1   -1    0    0    0  501 -0.00000000000E+00  0.00000000000E+00  0.11169152662E+04  0.11169152662E+04  0.00000000000E+00 0.  1.
          1   -1    0    0  501    0  0.00000000000E+00 -0.00000000000E+00 -0.19837447242E+04  0.19837447242E+04  0.00000000000E+00 0. -1.
         23    2    1    2    0    0 -0.84270938845E+03  0.98844999973E+03 -0.16343707495E+01  0.13020256397E+04  0.89864230946E+02 0.  0.
        254    2    1    2    0    0  0.84270938845E+03 -0.98844999973E+03 -0.86519508729E+03  0.17986343507E+04  0.89405283568E+03 0.  0.
         23    2    4    4    0    0  0.10005026471E+04 -0.71187829688E+03 -0.57630173648E+03  0.13594597275E+04  0.90723771630E+02 0.  0.
         23    2    4    4    0    0 -0.15779325867E+03 -0.27657170285E+03 -0.28889335081E+03  0.43917462318E+03  0.89578804431E+02 0.  0.
          4    1    3    3  502    0 -0.12318266898E+03  0.19616449725E+03  0.70187627197E+01  0.23174068039E+03  0.00000000000E+00 0. -1.
         -4    1    3    3    0  502 -0.71952671947E+03  0.79228550249E+03 -0.86531334692E+01  0.10702849593E+04  0.00000000000E+00 0.  1.
         11    1    5    5    0    0  0.14993181191E+03 -0.69156245069E+02 -0.73001258573E+02  0.18053065725E+03  0.00000000000E+00 0.  1.
        -11    1    5    5    0    0  0.85057083521E+03 -0.64272205181E+03 -0.50330047791E+03  0.11789290702E+04  0.00000000000E+00 0. -1.
          1    1    6    6  503    0 -0.88525716270E+02 -0.80525930055E+02 -0.13557718500E+03  0.18083805171E+03  0.00000000000E+00 0. -1.
         -1    1    6    6    0  503 -0.69267542397E+02 -0.19604577280E+03 -0.15331616580E+03  0.25833657147E+03  0.00000000000E+00 0.  1.
<mgrwt>
<rscale>  0 0.29770286E+04</rscale>
<asrwt>0</asrwt>
<pdfrwt beam="1">  1        1 0.30519150E+00 0.29770286E+04</pdfrwt>
<pdfrwt beam="2">  1       -1 0.17183312E+00 0.29770286E+04</pdfrwt>
<totfact> 0.62178982E-01</totfact>
</mgrwt>
</event>
<event>
12    2  0.3555611E-008  0.1824074E+04  0.7818608E-02  0.8693601E-01
          1   -1    0    0  501    0  0.00000000000E+00  0.00000000000E+00  0.45698626136E+03  0.45698626136E+03  0.00000000000E+00 0. -1.
         -1   -1    0    0    0  501 -0.00000000000E+00 -0.00000000000E+00 -0.18202107627E+04  0.18202107627E+04  0.00000000000E+00 0.  1.
         23    2    1    2    0    0 -0.63485116710E+03  0.25914205406E+03 -0.47005915687E+03  0.83613544826E+03  0.89309956544E+02 0.  0.
        254    2    1    2    0    0  0.63485116710E+03 -0.25914205406E+03 -0.89316534442E+03  0.14410615757E+04  0.89929056711E+03 0.  0.
         23    2    4    4    0    0  0.11548708410E+03  0.31168584597E+03 -0.36529428792E+03  0.50144731518E+03  0.86741915711E+02 0.  0.
         23    2    4    4    0    0  0.51936408300E+03 -0.57082790003E+03 -0.52787105650E+03  0.93961426057E+03  0.92970770763E+02 0.  0.
          1    1    3    3  502    0 -0.29990409723E+02 -0.67157749420E+01 -0.23071797924E+02  0.38429600152E+02  0.00000000000E+00 0. -1.
         -1    1    3    3    0  502 -0.60486075737E+03  0.26585782900E+03 -0.44698735895E+03  0.79770584811E+03  0.00000000000E+00 0.  1.
         11    1    5    5    0    0  0.82976726567E+01  0.77075545291E+02 -0.43008211566E+02  0.88652113994E+02  0.00000000000E+00 0.  1.
        -11    1    5    5    0    0  0.10718941144E+03  0.23461030068E+03 -0.32228607635E+03  0.41279520119E+03  0.00000000000E+00 0. -1.
          3    1    6    6  503    0  0.29764202740E+03 -0.38790742119E+03 -0.30994149229E+03  0.57890126319E+03  0.00000000000E+00 0. -1.
         -3    1    6    6    0  503  0.22172205559E+03 -0.18292047884E+03 -0.21792956421E+03  0.36071299737E+03  0.00000000000E+00 0.  1.
<mgrwt>
<rscale>  0 0.18240738E+04</rscale>
<asrwt>0</asrwt>
<pdfrwt beam="1">  1        1 0.70305579E-01 0.18240738E+04</pdfrwt>
<pdfrwt beam="2">  1       -1 0.28003242E+00 0.18240738E+04</pdfrwt>
<totfact> 0.21018147E+00</totfact>
</mgrwt>
</event>
<event>
12    2  0.3555611E-008  0.1417941E+04  0.7818608E-02  0.8940933E-01
          1   -1    0    0  501    0  0.00000000000E+00  0.00000000000E+00  0.18562774479E+04  0.18562774479E+04  0.00000000000E+00 0. -1.
         -1   -1    0    0    0  501 -0.00000000000E+00 -0.00000000000E+00 -0.27077809129E+03  0.27077809129E+03  0.00000000000E+00 0.  1.
         23    2    1    2    0    0  0.99726261018E+02  0.39478781941E+03  0.62435931238E+03  0.75025473477E+03  0.85175504696E+02 0.  0.
        254    2    1    2    0    0 -0.99726261018E+02 -0.39478781941E+03  0.96114004418E+03  0.13768008044E+04  0.89776807746E+03 0.  0.
         23    2    4    4    0    0 -0.32825400005E+03 -0.17628231402E+03  0.97431164875E+03  0.10473704530E+04  0.94210053688E+02 0.  0.
         23    2    4    4    0    0  0.22852773903E+03 -0.21850550539E+03 -0.13171604564E+02  0.32943035134E+03  0.91549340929E+02 0.  0.
          3    1    3    3  502    0 -0.49919538619E+01  0.12120765511E+02  0.53423753673E+02  0.55008454045E+02  0.00000000000E+00 0. -1.
         -3    1    3    3    0  502  0.10471821488E+03  0.38266705390E+03  0.57093555871E+03  0.69524628073E+03  0.00000000000E+00 0.  1.
         11    1    5    5    0    0 -0.27061551119E+02  0.72864128793E+01  0.11749639645E+03  0.12079247716E+03  0.00000000000E+00 0. -1.
        -11    1    5    5    0    0 -0.30119244893E+03 -0.18356872690E+03  0.85681525230E+03  0.92657797587E+03  0.00000000000E+00 0.  1.
          2    1    6    6  503    0  0.40909191765E+02 -0.59153271695E+02  0.32747643666E+02  0.79025816597E+02  0.00000000000E+00 0. -1.
         -2    1    6    6    0  503  0.18761854727E+03 -0.15935223369E+03 -0.45919248230E+02  0.25040453474E+03  0.00000000000E+00 0.  1.
<mgrwt>
<rscale>  0 0.14179411E+04</rscale>
<asrwt>0</asrwt>
<pdfrwt beam="1">  1        1 0.28558114E+00 0.14179411E+04</pdfrwt>
<pdfrwt beam="2">  1       -1 0.41658169E-01 0.14179411E+04</pdfrwt>
<totfact> 0.20541081E+01</totfact>
</mgrwt>
</event>
<event>
12    2  0.3555611E-008  0.1892830E+04  0.7818608E-02  0.8658433E-01
          1   -1    0    0  501    0  0.00000000000E+00  0.00000000000E+00  0.11011104683E+04  0.11011104683E+04  0.00000000000E+00 0. -1.
         -1   -1    0    0    0  501 -0.00000000000E+00 -0.00000000000E+00 -0.81345299689E+03  0.81345299689E+03  0.00000000000E+00 0.  1.
         23    2    1    2    0    0 -0.27149115942E+03 -0.49920331800E+03  0.57178467744E+03  0.81121304113E+03  0.90650308318E+02 0.  0.
        254    2    1    2    0    0  0.27149115942E+03  0.49920331800E+03 -0.28412720600E+03  0.11033504241E+04  0.90207676326E+03 0.  0.
         23    2    4    4    0    0  0.25824216049E+03  0.44083721762E+03  0.23757011870E+03  0.57049041676E+03  0.89405192366E+02 0.  0.
         23    2    4    4    0    0  0.13248998937E+02  0.58366100382E+02 -0.52169732470E+03  0.53286000733E+03  0.90496138947E+02 0.  0.
          3    1    3    3  502    0 -0.92892424160E+02 -0.21178114990E+03  0.28958248577E+03  0.37059178888E+03  0.00000000000E+00 0. -1.
         -3    1    3    3    0  502 -0.17859873526E+03 -0.28742216810E+03  0.28220219167E+03  0.44062125225E+03  0.00000000000E+00 0.  1.
         11    1    5    5    0    0  0.18536105132E+03  0.37007407015E+03  0.21508229422E+03  0.46644820723E+03  0.00000000000E+00 0. -1.
        -11    1    5    5    0    0  0.72881109167E+02  0.70763147468E+02  0.22487824485E+02  0.10404220953E+03  0.00000000000E+00 0.  1.
          3    1    6    6  503    0 -0.32368787032E+02  0.26598552674E+02 -0.34729002386E+03  0.34980792165E+03  0.00000000000E+00 0. -1.
         -3    1    6    6    0  503  0.45617785968E+02  0.31767547709E+02 -0.17440730085E+03  0.18305208568E+03  0.00000000000E+00 0.  1.
<mgrwt>
<rscale>  0 0.18928303E+04</rscale>
<asrwt>0</asrwt>
<pdfrwt beam="1">  1        1 0.16940161E+00 0.18928303E+04</pdfrwt>
<pdfrwt beam="2">  1       -1 0.12514662E+00 0.18928303E+04</pdfrwt>
<totfact> 0.66113145E+00</totfact>
</mgrwt>
</event>
<event>
12    2  0.3555611E-008  0.1284625E+04  0.7818608E-02  0.9041847E-01
         -1   -1    0    0    0  501 -0.00000000000E+00  0.00000000000E+00  0.98825228766E+03  0.98825228766E+03  0.00000000000E+00 0.  1.
          1   -1    0    0  501    0  0.00000000000E+00 -0.00000000000E+00 -0.41746973340E+03  0.41746973340E+03  0.00000000000E+00 0. -1.
         23    2    1    2    0    0 -0.39465910789E+02 -0.30255954755E+03  0.55741853492E+02  0.32335071654E+03  0.91371186536E+02 0.  0.
        254    2    1    2    0    0  0.39465910789E+02  0.30255954755E+03  0.51504070077E+03  0.10823713045E+04  0.90175433432E+03 0.  0.
         23    2    4    4    0    0 -0.39609726489E+03  0.13916315499E+03  0.76786205226E+02  0.43680958966E+03  0.92989619561E+02 0.  0.
         23    2    4    4    0    0  0.43556317568E+03  0.16339639256E+03  0.43825449554E+03  0.64556171486E+03  0.90935492064E+02 0.  0.
          4    1    3    3  502    0 -0.67950378094E+02 -0.24543572524E+03  0.43555510283E+02  0.25836608056E+03  0.00000000000E+00 0. -1.
         -4    1    3    3    0  502  0.28484467305E+02 -0.57123822309E+02  0.12186343208E+02  0.64984635981E+02  0.00000000000E+00 0.  1.
         11    1    5    5    0    0 -0.14285520940E+03  0.46254775395E+02  0.73175700161E+02  0.16703831355E+03  0.00000000000E+00 0. -1.
        -11    1    5    5    0    0 -0.25324205548E+03  0.92908379591E+02  0.36105050653E+01  0.26977127610E+03  0.00000000000E+00 0.  1.
          2    1    6    6  503    0  0.23214760360E+03  0.85902530680E+02  0.29445456473E+03  0.38467550653E+03  0.00000000000E+00 0. -1.
         -2    1    6    6    0  503  0.20341557208E+03  0.77493861884E+02  0.14379993082E+03  0.26088620833E+03  0.00000000000E+00 0.  1.
<mgrwt>
<rscale>  0 0.12846251E+04</rscale>
<asrwt>0</asrwt>
<pdfrwt beam="1">  1        1 0.64226113E-01 0.12846251E+04</pdfrwt>
<pdfrwt beam="2">  1       -1 0.15203881E+00 0.12846251E+04</pdfrwt>
<totfact> 0.18748308E+01</totfact>
</mgrwt>
</event>
<event>
12    2  0.3555611E-008  0.1170047E+04  0.7818608E-02  0.9139486E-01
          1   -1    0    0  501    0  0.00000000000E+00  0.00000000000E+00  0.97552876593E+03  0.97552876593E+03  0.00000000000E+00 0. -1.
         -1   -1    0    0    0  501 -0.00000000000E+00 -0.00000000000E+00 -0.35083797786E+03  0.35083797786E+03  0.00000000000E+00 0.  1.
         23    2    1    2    0    0 -0.23143325301E+03 -0.11188392817E+02  0.13924829333E+03  0.28485331931E+03  0.89804207002E+02 0.  0.
        254    2    1    2    0    0  0.23143325301E+03  0.11188392817E+02  0.48544249474E+03  0.10415134245E+04  0.89185720097E+03 0.  0.
         23    2    4    4    0    0 -0.23579197998E+03 -0.25304017018E+03  0.83158719008E+02  0.36485232966E+03  0.81084304041E+02 0.  0.
         23    2    4    4    0    0  0.46722523299E+03  0.26422856300E+03  0.40228377574E+03  0.67666109482E+03  0.89004770500E+02 0.  0.
          3    1    3    3  502    0 -0.12423170489E+03  0.79297287043E+00  0.23141057951E+02  0.12637109586E+03  0.00000000000E+00 0. -1.
         -3    1    3    3    0  502 -0.10720154812E+03 -0.11981365688E+02  0.11610723538E+03  0.15848222345E+03  0.00000000000E+00 0.  1.
         11    1    5    5    0    0 -0.50553186076E+02 -0.94000736282E+02  0.52003649602E+02  0.11872717724E+03  0.00000000000E+00 0. -1.
        -11    1    5    5    0    0 -0.18523879391E+03 -0.15903943390E+03  0.31155069406E+02  0.24612515241E+03  0.00000000000E+00 0.  1.
          4    1    6    6  503    0  0.16606864813E+03  0.11228089725E+03  0.10140344098E+03  0.22465184981E+03  0.00000000000E+00 0. -1.
         -4    1    6    6    0  503  0.30115658487E+03  0.15194766574E+03  0.30088033476E+03  0.45200924501E+03  0.00000000000E+00 0.  1.
<mgrwt>
<rscale>  0 0.11700471E+04</rscale>
<asrwt>0</asrwt>
<pdfrwt beam="1">  1        1 0.15008135E+00 0.11700471E+04</pdfrwt>
<pdfrwt beam="2">  1       -1 0.53975074E-01 0.11700471E+04</pdfrwt>
<totfact> 0.54351645E+01</totfact>
</mgrwt>
</event>
<event>
12    2  0.3555611E-008  0.1777493E+04  0.7818608E-02  0.8718361E-01
         -2   -1    0    0    0  501 -0.00000000000E+00  0.00000000000E+00  0.33704811445E+03  0.33704811445E+03  0.00000000000E+00 0.  1.
          2   -1    0    0  501    0  0.00000000000E+00 -0.00000000000E+00 -0.23434939188E+04  0.23434939188E+04  0.00000000000E+00 0. -1.
         23    2    1    2    0    0 -0.35337131880E+03  0.48032991648E+03 -0.11370401281E+04  0.12872674804E+04  0.92785751657E+02 0.  0.
        254    2    1    2    0    0  0.35337131880E+03 -0.48032991648E+03 -0.86940567633E+03  0.13932745529E+04  0.91091142931E+03 0.  0.
         23    2    4    4    0    0  0.45655228356E+02 -0.68745516799E+03 -0.65836279687E+03  0.95740710246E+03  0.92237626116E+02 0.  0.
         23    2    4    4    0    0  0.30771609045E+03  0.20712525151E+03 -0.21104287946E+03  0.43586745042E+03  0.88607421994E+02 0.  0.
          1    1    3    3  502    0 -0.28245385171E+03  0.42327492972E+03 -0.10104849724E+04  0.11313804506E+04  0.00000000000E+00 0. -1.
         -1    1    3    3    0  502 -0.70917467089E+02  0.57054986758E+02 -0.12655515566E+03  0.15588702985E+03  0.00000000000E+00 0.  1.
         11    1    5    5    0    0  0.68529621574E+02 -0.33622485664E+03 -0.32668477689E+03  0.47377885844E+03  0.00000000000E+00 0.  1.
        -11    1    5    5    0    0 -0.22874393218E+02 -0.35123031135E+03 -0.33167801998E+03  0.48362824402E+03  0.00000000000E+00 0. -1.
          4    1    6    6  503    0  0.16967792502E+03  0.70996433002E+02 -0.73076987743E+02  0.19791750270E+03  0.00000000000E+00 0. -1.
         -4    1    6    6    0  503  0.13803816543E+03  0.13612881851E+03 -0.13796589171E+03  0.23794994772E+03  0.00000000000E+00 0.  1.
<mgrwt>
<rscale>  0 0.17774928E+04</rscale>
<asrwt>0</asrwt>
<pdfrwt beam="1">  1        2 0.36053754E+00 0.17774928E+04</pdfrwt>
<pdfrwt beam="2">  1       -2 0.51853555E-01 0.17774928E+04</pdfrwt>
<totfact> 0.14235056E+01</totfact>
</mgrwt>
</event>
<event>
12    2  0.3555611E-008  0.2976475E+04  0.7818608E-02  0.8250481E-01
         -2   -1    0    0    0  501 -0.00000000000E+00  0.00000000000E+00  0.83748804763E+03  0.83748804763E+03  0.00000000000E+00 0.  1.
          2   -1    0    0  501    0  0.00000000000E+00 -0.00000000000E+00 -0.26446354167E+04  0.26446354167E+04  0.00000000000E+00 0. -1.
         23    2    1    2    0    0 -0.55836822165E+03 -0.88107559426E+03  0.17686136685E+03  0.10654915970E+04  0.12618687080E+03 0.  0.
        254    2    1    2    0    0  0.55836822165E+03  0.88107559426E+03 -0.19840087359E+04  0.24166318674E+04  0.90318859850E+03 0.  0.
         23    2    4    4    0    0  0.78606824909E+03  0.56616169560E+03 -0.15240258036E+04  0.18081547865E+04  0.91250884993E+02 0.  0.
         23    2    4    4    0    0 -0.22770002745E+03  0.31491389865E+03 -0.45998293233E+03  0.60847708090E+03  0.87418498555E+02 0.  0.
          2    1    3    3  502    0 -0.23055621147E+03 -0.26052589684E+03  0.36759054817E+02  0.34983015548E+03  0.00000000000E+00 0. -1.
         -2    1    3    3    0  502 -0.32781201018E+03 -0.62054969742E+03  0.14010231203E+03  0.71566144148E+03  0.00000000000E+00 0.  1.
         11    1    5    5    0    0  0.41776414085E+03  0.33650293305E+03 -0.90699402730E+03  0.10537548419E+04  0.00000000000E+00 0. -1.
        -11    1    5    5    0    0  0.36830410824E+03  0.22965876256E+03 -0.61703177629E+03  0.75439994454E+03  0.00000000000E+00 0.  1.
          3    1    6    6  503    0 -0.80719726592E+02  0.13572787778E+03 -0.12632049763E+03  0.20222413108E+03  0.00000000000E+00 0. -1.
         -3    1    6    6    0  503 -0.14698030085E+03  0.17918602087E+03 -0.33366243470E+03  0.40625294982E+03  0.00000000000E+00 0.  1.
<mgrwt>
<rscale>  0 0.29764748E+04</rscale>
<asrwt>0</asrwt>
<pdfrwt beam="1">  1        2 0.40686699E+00 0.29764748E+04</pdfrwt>
<pdfrwt beam="2">  1       -2 0.12884432E+00 0.29764748E+04</pdfrwt>
<totfact> 0.10909654E+00</totfact>
</mgrwt>
</event>
<event>
12    2  0.3555611E-008  0.1539348E+04  0.7818608E-02  0.8858700E-01
         -1   -1    0    0    0  501 -0.00000000000E+00  0.00000000000E+00  0.11236461150E+04  0.11236461150E+04  0.00000000000E+00 0.  1.
          1   -1    0    0  501    0  0.00000000000E+00 -0.00000000000E+00 -0.52721068944E+03  0.52721068944E+03  0.00000000000E+00 0. -1.
         23    2    1    2    0    0  0.94602433680E+02 -0.49466056610E+03  0.19637191024E+03  0.54835696699E+03  0.92166913793E+02 0.  0.
        254    2    1    2    0    0 -0.94602433680E+02  0.49466056610E+03  0.40006351537E+03  0.11024998375E+04  0.89544200217E+03 0.  0.
         23    2    4    4    0    0 -0.50335899991E+02  0.39348786740E+03  0.67789979203E+03  0.78999773276E+03  0.84746003439E+02 0.  0.
         23    2    4    4    0    0 -0.44266533689E+02  0.10117269870E+03 -0.27783627667E+03  0.31250210475E+03  0.90934745126E+02 0.  0.
          3    1    3    3  502    0  0.88294785165E+02 -0.34091443917E+03  0.97339772961E+02  0.36536783564E+03  0.00000000000E+00 0. -1.
         -3    1    3    3    0  502  0.63076485146E+01 -0.15374612693E+03  0.99032137281E+02  0.18298913135E+03  0.00000000000E+00 0.  1.
         11    1    5    5    0    0  0.17431782731E+02  0.17915140828E+03  0.27614339269E+03  0.32962746770E+03  0.00000000000E+00 0. -1.
        -11    1    5    5    0    0 -0.67767682722E+02  0.21433645912E+03  0.40175639935E+03  0.46037026505E+03  0.00000000000E+00 0.  1.
          1    1    6    6  503    0  0.46174108531E+01  0.23553365036E+02 -0.48109114801E+01  0.24479100408E+02  0.00000000000E+00 0. -1.
         -1    1    6    6    0  503 -0.48883944542E+02  0.77619333664E+02 -0.27302536519E+03  0.28802300434E+03  0.00000000000E+00 0.  1.
<mgrwt>
<rscale>  0 0.15393482E+04</rscale>
<asrwt>0</asrwt>
<pdfrwt beam="1">  1        1 0.81109337E-01 0.15393482E+04</pdfrwt>
<pdfrwt beam="2">  1       -1 0.17286863E+00 0.15393482E+04</pdfrwt>
<totfact> 0.93061101E+00</totfact>
</mgrwt>
</event>
<event>
12    2  0.3555611E-008  0.3855119E+04  0.7818608E-02  0.8034429E-01
          2   -1    0    0  501    0  0.00000000000E+00  0.00000000000E+00  0.29920165121E+04  0.29920165121E+04  0.00000000000E+00 0. -1.
         -2   -1    0    0    0  501 -0.00000000000E+00 -0.00000000000E+00 -0.12417995205E+04  0.12417995205E+04  0.00000000000E+00 0.  1.
         23    2    1    2    0    0  0.61120783680E+02  0.73787540615E+03  0.26177977237E+04  0.27220373038E+04  0.91794859172E+02 0.  0.
        254    2    1    2    0    0 -0.61120783680E+02 -0.73787540615E+03 -0.86758073211E+03  0.15117787288E+04  0.99226142373E+03 0.  0.
         23    2    4    4    0    0 -0.38782061199E+03 -0.46064765655E+03 -0.84213462141E+02  0.61483376819E+03  0.91255491564E+02 0.  0.
         23    2    4    4    0    0  0.32669982831E+03 -0.27722774960E+03 -0.78336726997E+03  0.89694496064E+03  0.85193777903E+02 0.  0.
          1    1    3    3  502    0 -0.61503636463E+01  0.46447115615E+03  0.16282047673E+04  0.16931692313E+04  0.00000000000E+00 0. -1.
         -1    1    3    3    0  502  0.67271147326E+02  0.27340425000E+03  0.98959295643E+03  0.10288680725E+04  0.00000000000E+00 0.  1.
         11    1    5    5    0    0 -0.10406889904E+03 -0.71675639634E+02 -0.33305483189E+02  0.13067895115E+03  0.00000000000E+00 0. -1.
        -11    1    5    5    0    0 -0.28375171295E+03 -0.38897201691E+03 -0.50907978952E+02  0.48415481704E+03  0.00000000000E+00 0.  1.
          4    1    6    6  503    0  0.98992280291E+02 -0.65087256806E+02 -0.29433866980E+03  0.31728705473E+03  0.00000000000E+00 0. -1.
         -4    1    6    6    0  503  0.22770754802E+03 -0.21214049279E+03 -0.48902860016E+03  0.57965790591E+03  0.00000000000E+00 0.  1.
<mgrwt>
<rscale>  0 0.38551185E+04</rscale>
<asrwt>0</asrwt>
<pdfrwt beam="1">  1        2 0.46031023E+00 0.38551185E+04</pdfrwt>
<pdfrwt beam="2">  1       -2 0.19104608E+00 0.38551185E+04</pdfrwt>
<totfact> 0.21429127E-01</totfact>
</mgrwt>
</event>
<event>
12    2  0.3555611E-008  0.2190252E+04  0.7818608E-02  0.8522496E-01
         -2   -1    0    0    0  501 -0.00000000000E+00  0.00000000000E+00  0.15352165413E+04  0.15352165413E+04  0.00000000000E+00 0.  1.
          2   -1    0    0  501    0  0.00000000000E+00 -0.00000000000E+00 -0.78119330197E+03  0.78119330197E+03  0.00000000000E+00 0. -1.
         23    2    1    2    0    0  0.15992361519E+03  0.86035958052E+03  0.56818419581E+03  0.10478540923E+04  0.96802623864E+02 0.  0.
        254    2    1    2    0    0 -0.15992361519E+03 -0.86035958052E+03  0.18583904349E+03  0.12685557509E+04  0.89939055618E+03 0.  0.
         23    2    4    4    0    0  0.11325278240E+01 -0.49301492557E+03  0.53184864461E+03  0.73108683600E+03  0.92520168318E+02 0.  0.
         23    2    4    4    0    0 -0.16105614301E+03 -0.36734465495E+03 -0.34600960112E+03  0.53746891488E+03  0.90934117224E+02 0.  0.
          2    1    3    3  502    0  0.84147267157E+02  0.54392723566E+03  0.40834923143E+03  0.68533692084E+03  0.00000000000E+00 0. -1.
         -2    1    3    3    0  502  0.75776348028E+02  0.31643234486E+03  0.15983496438E+03  0.36251717150E+03  0.00000000000E+00 0.  1.
         11    1    5    5    0    0 -0.10714368481E+02 -0.53942376977E+02  0.25033843113E+02  0.60425748046E+02  0.00000000000E+00 0. -1.
        -11    1    5    5    0    0  0.11846896305E+02 -0.43907254859E+03  0.50681480150E+03  0.67066108796E+03  0.00000000000E+00 0.  1.
          4    1    6    6  503    0 -0.33436497097E+02 -0.69811332203E+02 -0.24475906502E+02  0.81183073612E+02  0.00000000000E+00 0. -1.
         -4    1    6    6    0  503 -0.12761964591E+03 -0.29753332275E+03 -0.32153369462E+03  0.45628584127E+03  0.00000000000E+00 0.  1.
<mgrwt>
<rscale>  0 0.21902519E+04</rscale>
<asrwt>0</asrwt>
<pdfrwt beam="1">  1        2 0.12018358E+00 0.21902519E+04</pdfrwt>
<pdfrwt beam="2">  1       -2 0.23618716E+00 0.21902519E+04</pdfrwt>
<totfact> 0.25431389E+00</totfact>
</mgrwt>
</event>
<event>
12    2  0.3555611E-008  0.3685959E+04  0.7818608E-02  0.8071081E-01
          1   -1    0    0  501    0  0.00000000000E+00  0.00000000000E+00  0.17134862277E+04  0.17134862277E+04  0.00000000000E+00 0. -1.
         -1   -1    0    0    0  501 -0.00000000000E+00 -0.00000000000E+00 -0.19822585870E+04  0.19822585870E+04  0.00000000000E+00 0.  1.
         23    2    1    2    0    0 -0.33898601178E+03 -0.16978117275E+04 -0.89151988017E+02  0.17358596089E+04  0.88228832177E+02 0.  0.
        254    2    1    2    0    0  0.33898601178E+03  0.16978117275E+04 -0.17962037122E+03  0.19598852058E+04  0.90078319486E+03 0.  0.
         23    2    4    4    0    0  0.23976131105E+03  0.13261805033E+04 -0.51074225726E+03  0.14440862316E+04  0.91033933986E+02 0.  0.
         23    2    4    4    0    0  0.99224700731E+02  0.37163122413E+03  0.33112188604E+03  0.51579897426E+03  0.91932423276E+02 0.  0.
          3    1    3    3  502    0 -0.32577210509E+03 -0.15197955919E+04 -0.95409621692E+02  0.15572440726E+04  0.00000000000E+00 0. -1.
         -3    1    3    3    0  502 -0.13213906694E+02 -0.17801613556E+03  0.62576336758E+01  0.17861553636E+03  0.00000000000E+00 0.  1.
         11    1    5    5    0    0  0.15156325467E+03  0.75246533236E+03 -0.24533629075E+03  0.80583211163E+03  0.00000000000E+00 0. -1.
        -11    1    5    5    0    0  0.88198056381E+02  0.57371517096E+03 -0.26540596651E+03  0.63825411993E+03  0.00000000000E+00 0.  1.
          2    1    6    6  503    0  0.35208303213E+02  0.11472917462E+03  0.16209608468E+03  0.20168675909E+03  0.00000000000E+00 0. -1.
         -2    1    6    6    0  503  0.64016397518E+02  0.25690204951E+03  0.16902580136E+03  0.31411221517E+03  0.00000000000E+00 0.  1.
<mgrwt>
<rscale>  0 0.36859586E+04</rscale>
<asrwt>0</asrwt>
<pdfrwt beam="1">  1        1 0.26361327E+00 0.36859586E+04</pdfrwt>
<pdfrwt beam="2">  1       -1 0.30496286E+00 0.36859586E+04</pdfrwt>
<totfact> 0.11491688E-01</totfact>
</mgrwt>
</event>
<event>
12    2  0.3555611E-008  0.1683968E+04  0.7818608E-02  0.8770561E-01
         -1   -1    0    0    0  501 -0.00000000000E+00  0.00000000000E+00  0.97952576850E+03  0.97952576850E+03  0.00000000000E+00 0.  1.
          1   -1    0    0  501    0  0.00000000000E+00 -0.00000000000E+00 -0.72375562499E+03  0.72375562499E+03  0.00000000000E+00 0. -1.
         23    2    1    2    0    0  0.27858865672E+03 -0.22503531236E+03  0.58069120250E+03  0.68833229758E+03  0.91359442688E+02 0.  0.
        254    2    1    2    0    0 -0.27858865672E+03  0.22503531236E+03 -0.32492105899E+03  0.10149490959E+04  0.89235387669E+03 0.  0.
         23    2    4    4    0    0  0.29113807455E+03 -0.20551960748E+02 -0.22064854430E+03  0.37843224145E+03  0.96651020314E+02 0.  0.
         23    2    4    4    0    0 -0.56972673127E+03  0.24558727311E+03 -0.10427251469E+03  0.63651685445E+03  0.96846743063E+02 0.  0.
          4    1    3    3  502    0 -0.38145366588E+01 -0.19436126797E+02  0.23967052859E+02  0.31092335672E+02  0.00000000000E+00 0. -1.
         -4    1    3    3    0  502  0.28240319338E+03 -0.20559918557E+03  0.55672414964E+03  0.65723996191E+03  0.00000000000E+00 0.  1.
         11    1    5    5    0    0  0.20658492439E+03 -0.52734695558E+02 -0.18090935335E+03  0.27961844222E+03  0.00000000000E+00 0.  1.
        -11    1    5    5    0    0  0.84553150160E+02  0.32182734810E+02 -0.39739190954E+02  0.98813799236E+02  0.00000000000E+00 0. -1.
          4    1    6    6  503    0 -0.49168561689E+03  0.23090473211E+03 -0.62497012298E+02  0.54678845792E+03  0.00000000000E+00 0.  1.
         -4    1    6    6    0  503 -0.78041114383E+02  0.14682540999E+02 -0.41775502392E+02  0.89728396533E+02  0.00000000000E+00 0. -1.
<mgrwt>
<rscale>  0 0.16839683E+04</rscale>
<asrwt>0</asrwt>
<pdfrwt beam="1">  1        1 0.11134702E+00 0.16839683E+04</pdfrwt>
<pdfrwt beam="2">  1       -1 0.15069627E+00 0.16839683E+04</pdfrwt>
<totfact> 0.84995463E+00</totfact>
</mgrwt>
</event>
<event>
12    2  0.3555611E-008  0.1281850E+04  0.7818608E-02  0.9044083E-01
         -1   -1    0    0    0  501 -0.00000000000E+00  0.00000000000E+00  0.65650433162E+03  0.65650433162E+03  0.00000000000E+00 0.  1.
          1   -1    0    0  501    0  0.00000000000E+00 -0.00000000000E+00 -0.62571579015E+03  0.62571579015E+03  0.00000000000E+00 0. -1.
         23    2    1    2    0    0  0.26171001761E+03  0.82266295635E+02  0.16496899172E+03  0.33274495633E+03  0.90799565087E+02 0.  0.
        254    2    1    2    0    0 -0.26171001761E+03 -0.82266295635E+02 -0.13418045025E+03  0.94947516544E+03  0.89902103414E+03 0.  0.
         23    2    4    4    0    0 -0.57843534994E+03  0.31226402840E+02 -0.13094289870E+03  0.60083439211E+03  0.91068006012E+02 0.  0.
         23    2    4    4    0    0  0.31672533233E+03 -0.11349269847E+03 -0.32375515495E+01  0.34864077333E+03  0.91347568871E+02 0.  0.
          3    1    3    3  502    0  0.25463048703E+03  0.95677421305E+02  0.14686330413E+03  0.30912729413E+03  0.00000000000E+00 0.  1.
         -3    1    3    3    0  502  0.70795305789E+01 -0.13411125670E+02  0.18105687593E+02  0.23617662208E+02  0.00000000000E+00 0. -1.
         11    1    5    5    0    0 -0.12997405818E+03 -0.30081413064E+02 -0.38557803659E+02  0.13886990831E+03  0.00000000000E+00 0. -1.
        -11    1    5    5    0    0 -0.44846129176E+03  0.61307815904E+02 -0.92385095042E+02  0.46196448379E+03  0.00000000000E+00 0.  1.
          3    1    6    6  503    0  0.14016941775E+03 -0.31236536188E+01  0.45866749675E+01  0.14027922324E+03  0.00000000000E+00 0. -1.
         -3    1    6    6    0  503  0.17655591458E+03 -0.11036904486E+03 -0.78242265170E+01  0.20836155009E+03  0.00000000000E+00 0.  1.
<mgrwt>
<rscale>  0 0.12818504E+04</rscale>
<asrwt>0</asrwt>
<pdfrwt beam="1">  1        1 0.96263967E-01 0.12818504E+04</pdfrwt>
<pdfrwt beam="2">  1       -1 0.10100067E+00 0.12818504E+04</pdfrwt>
<totfact> 0.29542138E+01</totfact>
</mgrwt>
</event>
<event>
12    2  0.3555611E-008  0.1393772E+04  0.7818608E-02  0.8958339E-01
          1   -1    0    0  501    0  0.00000000000E+00  0.00000000000E+00  0.90321283096E+03  0.90321283096E+03  0.00000000000E+00 0. -1.
         -1   -1    0    0    0  501 -0.00000000000E+00 -0.00000000000E+00 -0.53769138754E+03  0.53769138754E+03  0.00000000000E+00 0.  1.
         23    2    1    2    0    0  0.23843623397E+03  0.15262605761E+03  0.39784275221E+03  0.49706456360E+03  0.92993407156E+02 0.  0.
        254    2    1    2    0    0 -0.23843623397E+03 -0.15262605761E+03 -0.32321308791E+02  0.94383965490E+03  0.89980113138E+03 0.  0.
         23    2    4    4    0    0 -0.14247329166E+03 -0.41494653064E+03  0.26855205863E+03  0.52321926464E+03  0.95702291334E+02 0.  0.
         23    2    4    4    0    0 -0.95962942303E+02  0.26232047303E+03 -0.30087336743E+03  0.42062039026E+03  0.91519465753E+02 0.  0.
          3    1    3    3  502    0  0.13410364092E+03  0.12674821034E+03  0.20151056198E+03  0.27323140728E+03  0.00000000000E+00 0. -1.
         -3    1    3    3    0  502  0.10433259305E+03  0.25877847268E+02  0.19633219023E+03  0.22383315633E+03  0.00000000000E+00 0.  1.
         11    1    5    5    0    0 -0.41981139300E+02 -0.43897118317E+02  0.14526104682E+02  0.62453028515E+02  0.00000000000E+00 0. -1.
        -11    1    5    5    0    0 -0.10049215236E+03 -0.37104941232E+03  0.25402595395E+03  0.46076623612E+03  0.00000000000E+00 0.  1.
          2    1    6    6  503    0 -0.93840562246E+02  0.26120331714E+03 -0.30710659456E+03  0.41394164375E+03  0.00000000000E+00 0.  1.
         -2    1    6    6    0  503 -0.21223800568E+01  0.11171558940E+01  0.62332271391E+01  0.66787465114E+01  0.00000000000E+00 0. -1.
<mgrwt>
<rscale>  0 0.13937715E+04</rscale>
<asrwt>0</asrwt>
<pdfrwt beam="1">  1        1 0.13895582E+00 0.13937715E+04</pdfrwt>
<pdfrwt beam="2">  1       -1 0.82721752E-01 0.13937715E+04</pdfrwt>
<totfact> 0.25626506E+01</totfact>
</mgrwt>
</event>
<event>
12    2  0.3555611E-008  0.1484999E+04  0.7818608E-02  0.8894490E-01
          1   -1    0    0  501    0  0.00000000000E+00  0.00000000000E+00  0.10941580293E+04  0.10941580293E+04  0.00000000000E+00 0. -1.
         -1   -1    0    0    0  501 -0.00000000000E+00 -0.00000000000E+00 -0.50386262868E+03  0.50386262868E+03  0.00000000000E+00 0.  1.
         23    2    1    2    0    0  0.72457686091E+02  0.45553251133E+03  0.23702993064E+03  0.52708134342E+03  0.94189008951E+02 0.  0.
        254    2    1    2    0    0 -0.72457686091E+02 -0.45553251133E+03  0.35326547000E+03  0.10709393146E+04  0.89964133855E+03 0.  0.
         23    2    4    4    0    0 -0.13548326733E+03 -0.53844846922E+03  0.57862934978E+03  0.80711282943E+03  0.91305669451E+02 0.  0.
         23    2    4    4    0    0  0.63025581235E+02  0.82915957883E+02 -0.22536387978E+03  0.26382648514E+03  0.89265088310E+02 0.  0.
          1    1    3    3  502    0  0.20802388719E+02  0.19969161879E+03  0.15451089679E+03  0.25334383595E+03  0.00000000000E+00 0. -1.
         -1    1    3    3    0  502  0.51655297372E+02  0.25584089255E+03  0.82519033850E+02  0.27373750747E+03  0.00000000000E+00 0.  1.
         11    1    5    5    0    0 -0.10086813175E+03 -0.46957073848E+03  0.53328145587E+03  0.71767692565E+03  0.00000000000E+00 0. -1.
        -11    1    5    5    0    0 -0.34615135573E+02 -0.68877730739E+02  0.45347893914E+02  0.89435903780E+02  0.00000000000E+00 0.  1.
          1    1    6    6  503    0  0.63704004825E+02  0.63302431415E+02 -0.22701333096E+03  0.24413203495E+03  0.00000000000E+00 0. -1.
         -1    1    6    6    0  503 -0.67842358979E+00  0.19613526467E+02  0.16494511854E+01  0.19694450189E+02  0.00000000000E+00 0.  1.
<mgrwt>
<rscale>  0 0.14849988E+04</rscale>
<asrwt>0</asrwt>
<pdfrwt beam="1">  1        1 0.16833200E+00 0.14849988E+04</pdfrwt>
<pdfrwt beam="2">  1       -1 0.77517327E-01 0.14849988E+04</pdfrwt>
<totfact> 0.20693366E+01</totfact>
</mgrwt>
</event>
<event>
12    2  0.3555611E-008  0.1158737E+04  0.7818608E-02  0.9149761E-01
         -1   -1    0    0    0  501 -0.00000000000E+00  0.00000000000E+00  0.54031460123E+03  0.54031460123E+03  0.00000000000E+00 0.  1.
          1   -1    0    0  501    0  0.00000000000E+00 -0.00000000000E+00 -0.62124519913E+03  0.62124519913E+03  0.00000000000E+00 0. -1.
         23    2    1    2    0    0  0.11012289160E+03 -0.15521868713E+03 -0.30417759775E+03  0.37063754042E+03  0.92888553139E+02 0.  0.
        254    2    1    2    0    0 -0.11012289160E+03  0.15521868713E+03  0.22324699985E+03  0.79092225994E+03  0.73450589259E+03 0.  0.
         23    2    4    4    0    0 -0.20946582172E+03  0.25925026360E+03  0.41150554532E+03  0.53745604318E+03  0.91845276840E+02 0.  0.
         23    2    4    4    0    0  0.99342930115E+02 -0.10403157647E+03 -0.18825854547E+03  0.25346621676E+03  0.90068065537E+02 0.  0.
          3    1    3    3  502    0  0.91071793137E+02 -0.97992131645E+02 -0.26997044194E+03  0.30129813954E+03  0.00000000000E+00 0. -1.
         -3    1    3    3    0  502  0.19051098466E+02 -0.57226555483E+02 -0.34207155810E+02  0.69339400876E+02  0.00000000000E+00 0.  1.
         11    1    5    5    0    0 -0.10078301998E+03  0.16672204669E+03  0.17861052011E+03  0.26430129751E+03  0.00000000000E+00 0. -1.
        -11    1    5    5    0    0 -0.10868280173E+03  0.92528216912E+02  0.23289502521E+03  0.27315474567E+03  0.00000000000E+00 0.  1.
          2    1    6    6  503    0  0.89978298851E+02 -0.11454868964E+03 -0.13578447077E+03  0.19913542896E+03  0.00000000000E+00 0. -1.
         -2    1    6    6    0  503  0.93646312640E+01  0.10517113168E+02 -0.52474074697E+02  0.54330787804E+02  0.00000000000E+00 0.  1.
<mgrwt>
<rscale>  0 0.11587370E+04</rscale>
<asrwt>0</asrwt>
<pdfrwt beam="1">  1        1 0.95576185E-01 0.11587370E+04</pdfrwt>
<pdfrwt beam="2">  1       -1 0.83125323E-01 0.11587370E+04</pdfrwt>
<totfact> 0.46455825E+01</totfact>
</mgrwt>
</event>
<event>
12    2  0.3555611E-008  0.3976907E+04  0.7818608E-02  0.8009221E-01
          2   -1    0    0  501    0  0.00000000000E+00  0.00000000000E+00  0.32807469209E+04  0.32807469209E+04  0.00000000000E+00 0. -1.
         -2   -1    0    0    0  501 -0.00000000000E+00 -0.00000000000E+00 -0.12051970488E+04  0.12051970488E+04  0.00000000000E+00 0.  1.
         23    2    1    2    0    0  0.86045846530E+03  0.84943408501E+03  0.26139489283E+04  0.28824711358E+04  0.11825317795E+03 0.  0.
        254    2    1    2    0    0 -0.86045846530E+03 -0.84943408501E+03 -0.53839905610E+03  0.16034728339E+04  0.90516548215E+03 0.  0.
         23    2    4    4    0    0  0.96153603558E+02 -0.44021180619E+03 -0.23216424539E+03  0.51499627338E+03  0.91043807972E+02 0.  0.
         23    2    4    4    0    0 -0.95661206886E+03 -0.40922227881E+03 -0.30623481071E+03  0.10884765605E+04  0.91825593788E+02 0.  0.
          4    1    3    3  502    0  0.38718985965E+03  0.40365359494E+03  0.10745610648E+04  0.12114180509E+04  0.00000000000E+00 0.  1.
         -4    1    3    3    0  502  0.47326860565E+03  0.44578049007E+03  0.15393878635E+04  0.16710530849E+04  0.00000000000E+00 0. -1.
         11    1    5    5    0    0  0.94564687783E+01 -0.13915842168E+01 -0.14944582811E+02  0.17739838324E+02  0.00000000000E+00 0. -1.
        -11    1    5    5    0    0  0.86697134779E+02 -0.43882022198E+03 -0.21721966258E+03  0.49725643506E+03  0.00000000000E+00 0.  1.
          1    1    6    6  503    0 -0.78220000592E+01  0.44883336710E+01 -0.56813973956E+01  0.10658663164E+02  0.00000000000E+00 0. -1.
         -1    1    6    6    0  503 -0.94879006880E+03 -0.41371061248E+03 -0.30055341332E+03  0.10778178973E+04  0.00000000000E+00 0.  1.
<mgrwt>
<rscale>  0 0.39769066E+04</rscale>
<asrwt>0</asrwt>
<pdfrwt beam="1">  1        2 0.50473029E+00 0.39769066E+04</pdfrwt>
<pdfrwt beam="2">  1       -2 0.18541493E+00 0.39769066E+04</pdfrwt>
<totfact> 0.15075594E-01</totfact>
</mgrwt>
</event>
<event>
12    2  0.3555611E-008  0.3836407E+04  0.7818608E-02  0.8038387E-01
          2   -1    0    0  501    0  0.00000000000E+00  0.00000000000E+00  0.17501712239E+04  0.17501712239E+04  0.00000000000E+00 0. -1.
         -2   -1    0    0    0  501 -0.00000000000E+00 -0.00000000000E+00 -0.21023688245E+04  0.21023688245E+04  0.00000000000E+00 0.  1.
         23    2    1    2    0    0 -0.13150739530E+04  0.12381077526E+04 -0.35342875785E+03  0.18426739223E+04  0.90581389270E+02 0.  0.
        254    2    1    2    0    0  0.13150739530E+04 -0.12381077526E+04  0.12311572558E+01  0.20098661261E+04  0.88160649971E+03 0.  0.
         23    2    4    4    0    0  0.67580988645E+02 -0.29766721452E+03 -0.27538072835E+03  0.42094077413E+03  0.90463413313E+02 0.  0.
         23    2    4    4    0    0  0.12474929644E+04 -0.94044053804E+03  0.27661188561E+03  0.15889253520E+04  0.86617187664E+02 0.  0.
          2    1    3    3  502    0 -0.14248155528E+02  0.17034315731E+02 -0.14777155621E+02  0.26674747920E+02  0.00000000000E+00 0. -1.
         -2    1    3    3    0  502 -0.13008257975E+04  0.12210734368E+04 -0.33865160223E+03  0.18159991744E+04  0.00000000000E+00 0.  1.
         11    1    5    5    0    0 -0.19721074292E+02 -0.41197349849E+02 -0.25153120911E+02  0.52142323475E+02  0.00000000000E+00 0. -1.
        -11    1    5    5    0    0  0.87302062937E+02 -0.25646986467E+03 -0.25022760744E+03  0.36879845065E+03  0.00000000000E+00 0.  1.
          2    1    6    6  503    0  0.34431574904E+03 -0.21521478130E+03  0.85695621006E+02  0.41498732099E+03  0.00000000000E+00 0.  1.
         -2    1    6    6    0  503  0.90317721534E+03 -0.72522575674E+03  0.19091626460E+03  0.11739380310E+04  0.00000000000E+00 0. -1.
<mgrwt>
<rscale>  0 0.38364074E+04</rscale>
<asrwt>0</asrwt>
<pdfrwt beam="1">  1        2 0.26925711E+00 0.38364074E+04</pdfrwt>
<pdfrwt beam="2">  1       -2 0.32344136E+00 0.38364074E+04</pdfrwt>
<totfact> 0.16759075E-01</totfact>
</mgrwt>
</event>
<event>
12    2  0.3555611E-008  0.2328471E+04  0.7818608E-02  0.8466779E-01
          1   -1    0    0  501    0  0.00000000000E+00  0.00000000000E+00  0.24162522446E+04  0.24162522446E+04  0.00000000000E+00 0. -1.
         -1   -1    0    0    0  501 -0.00000000000E+00 -0.00000000000E+00 -0.56096988395E+03  0.56096988395E+03  0.00000000000E+00 0.  1.
         23    2    1    2    0    0 -0.89157740186E+03  0.79805124111E+02  0.25158315338E+03  0.93411557730E+03  0.89435492625E+02 0.  0.
        254    2    1    2    0    0  0.89157740186E+03 -0.79805124111E+02  0.16036992073E+04  0.20431065513E+04  0.89507212619E+03 0.  0.
         23    2    4    4    0    0  0.89682243423E+03 -0.68786610230E+01  0.72727002738E+03  0.11587122851E+04  0.96719555875E+02 0.  0.
         23    2    4    4    0    0 -0.52450323736E+01 -0.72926463088E+02  0.87642917993E+03  0.88439426616E+03  0.93162928220E+02 0.  0.
          2    1    3    3  502    0 -0.42651487331E+03  0.36995074570E+02  0.74003404682E+02  0.43446527664E+03  0.00000000000E+00 0. -1.
         -2    1    3    3    0  502 -0.46506252855E+03  0.42810049541E+02  0.17757974870E+03  0.49965030066E+03  0.00000000000E+00 0.  1.
         11    1    5    5    0    0  0.18181292415E+03  0.31453108360E+02  0.17670006581E+03  0.25547632116E+03  0.00000000000E+00 0. -1.
        -11    1    5    5    0    0  0.71500951008E+03 -0.38331769383E+02  0.55056996157E+03  0.90323596399E+03  0.00000000000E+00 0.  1.
          3    1    6    6  503    0  0.23728955514E+02 -0.25669817738E+02  0.98983121005E+02  0.10497457367E+03  0.00000000000E+00 0. -1.
         -3    1    6    6    0  503 -0.28973987888E+02 -0.47256645350E+02  0.77744605893E+03  0.77941969249E+03  0.00000000000E+00 0.  1.
<mgrwt>
<rscale>  0 0.23284714E+04</rscale>
<asrwt>0</asrwt>
<pdfrwt beam="1">  1        1 0.37173111E+00 0.23284714E+04</pdfrwt>
<pdfrwt beam="2">  1       -1 0.86303061E-01 0.23284714E+04</pdfrwt>
<totfact> 0.18486127E+00</totfact>
</mgrwt>
</event>
<event>
12    2  0.3555611E-008  0.1235998E+04  0.7818608E-02  0.9081918E-01
         -2   -1    0    0    0  501 -0.00000000000E+00  0.00000000000E+00  0.19314279435E+03  0.19314279435E+03  0.00000000000E+00 0.  1.
          2   -1    0    0  501    0  0.00000000000E+00 -0.00000000000E+00 -0.19774116516E+04  0.19774116516E+04  0.00000000000E+00 0. -1.
         23    2    1    2    0    0  0.15641247463E+03 -0.23014533102E+03 -0.49423563968E+03  0.57412314979E+03  0.88976333846E+02 0.  0.
        254    2    1    2    0    0 -0.15641247463E+03  0.23014533102E+03 -0.12900332176E+04  0.15964312962E+04  0.89831812034E+03 0.  0.
         23    2    4    4    0    0  0.36682742702E+03  0.12984618290E+03 -0.53429765885E+03  0.66739013914E+03  0.92267096736E+02 0.  0.
         23    2    4    4    0    0 -0.52323990164E+03  0.10029914812E+03 -0.75573555876E+03  0.92904115706E+03  0.90229279877E+02 0.  0.
          2    1    3    3  502    0  0.77177962156E+02 -0.96907894697E+02 -0.30693752746E+03  0.33099580611E+03  0.00000000000E+00 0. -1.
         -2    1    3    3    0  502  0.79234512471E+02 -0.13323743633E+03 -0.18729811222E+03  0.24312734368E+03  0.00000000000E+00 0.  1.
         11    1    5    5    0    0  0.71566100762E+02  0.24383001945E+02 -0.17436103223E+03  0.19004738126E+03  0.00000000000E+00 0.  1.
        -11    1    5    5    0    0  0.29526132625E+03  0.10546318096E+03 -0.35993662662E+03  0.47734275788E+03  0.00000000000E+00 0. -1.
          1    1    6    6  503    0 -0.42754254758E+03  0.50764583550E+02 -0.63515377756E+03  0.76732652377E+03  0.00000000000E+00 0. -1.
         -1    1    6    6    0  503 -0.95697354059E+02  0.49534564567E+02 -0.12058178120E+03  0.16171463329E+03  0.00000000000E+00 0.  1.
<mgrwt>
<rscale>  0 0.12359981E+04</rscale>
<asrwt>0</asrwt>
<pdfrwt beam="1">  1        2 0.30421716E+00 0.12359981E+04</pdfrwt>
<pdfrwt beam="2">  1       -2 0.29714278E-01 0.12359981E+04</pdfrwt>
<totfact> 0.70748838E+01</totfact>
</mgrwt>
</event>
<event>
12    2  0.3555611E-008  0.2028173E+04  0.7818608E-02  0.8593561E-01
         -2   -1    0    0    0  501 -0.00000000000E+00  0.00000000000E+00  0.43136443157E+03  0.43136443157E+03  0.00000000000E+00 0.  1.
          2   -1    0    0  501    0  0.00000000000E+00 -0.00000000000E+00 -0.23839978383E+04  0.23839978383E+04  0.00000000000E+00 0. -1.
         23    2    1    2    0    0  0.77300009803E+03  0.19414197654E+03 -0.67122372179E+03  0.10467282098E+04  0.99390149948E+02 0.  0.
        254    2    1    2    0    0 -0.77300009803E+03 -0.19414197654E+03 -0.12814096850E+04  0.17686340601E+04  0.92240739328E+03 0.  0.
         23    2    4    4    0    0 -0.25342719209E+03  0.64107627765E+01  0.92254252391E+02  0.28350209066E+03  0.87155887660E+02 0.  0.
         23    2    4    4    0    0 -0.51957290595E+03 -0.20055273931E+03 -0.13736639374E+04  0.14851319694E+04  0.92124632924E+02 0.  0.
          1    1    3    3  502    0  0.65030019948E+03  0.19917436113E+03 -0.55884145870E+03  0.88026391017E+03  0.00000000000E+00 0. -1.
         -1    1    3    3    0  502  0.12269989855E+03 -0.50323845930E+01 -0.11238226309E+03  0.16646429964E+03  0.00000000000E+00 0.  1.
         11    1    5    5    0    0 -0.25114239640E+03 -0.56581414794E+01  0.74700732289E+02  0.26207769313E+03  0.00000000000E+00 0.  1.
        -11    1    5    5    0    0 -0.22847956891E+01  0.12068904256E+02  0.17553520101E+02  0.21424397523E+02  0.00000000000E+00 0. -1.
          2    1    6    6  503    0 -0.17595060270E+03 -0.53144417763E+02 -0.35014575112E+03  0.39545542196E+03  0.00000000000E+00 0. -1.
         -2    1    6    6    0  503 -0.34362230325E+03 -0.14740832155E+03 -0.10235181863E+04  0.10896765475E+04  0.00000000000E+00 0.  1.
<mgrwt>
<rscale>  0 0.20281734E+04</rscale>
<asrwt>0</asrwt>
<pdfrwt beam="1">  1        2 0.36676891E+00 0.20281734E+04</pdfrwt>
<pdfrwt beam="2">  1       -2 0.66363757E-01 0.20281734E+04</pdfrwt>
<totfact> 0.78586963E+00</totfact>
</mgrwt>
</event>
<event>
12    2  0.3555611E-008  0.3349686E+04  0.7818608E-02  0.8150367E-01
         -1   -1    0    0    0  501 -0.00000000000E+00  0.00000000000E+00  0.14516337072E+04  0.14516337072E+04  0.00000000000E+00 0.  1.
          1   -1    0    0  501    0  0.00000000000E+00 -0.00000000000E+00 -0.19323736334E+04  0.19323736334E+04  0.00000000000E+00 0. -1.
         23    2    1    2    0    0  0.14110229048E+04 -0.47255570159E+03 -0.66576381834E+03  0.16327581766E+04  0.91450929320E+02 0.  0.
        254    2    1    2    0    0 -0.14110229048E+04  0.47255570159E+03  0.18502389214E+03  0.17512491640E+04  0.90462437763E+03 0.  0.
         23    2    4    4    0    0 -0.27225302820E+03 -0.13677612775E+03  0.31883205909E+03  0.44963232783E+03  0.87669423614E+02 0.  0.
         23    2    4    4    0    0 -0.11387698766E+04  0.60933182934E+03 -0.13380816695E+03  0.13016168361E+04  0.90662298932E+02 0.  0.
          2    1    3    3  502    0  0.64756479366E+02 -0.42934502590E+02 -0.35744614525E+02  0.85524561385E+02  0.00000000000E+00 0. -1.
         -2    1    3    3    0  502  0.13462664254E+04 -0.42962119900E+03 -0.63001920382E+03  0.15472336152E+04  0.00000000000E+00 0.  1.
         11    1    5    5    0    0 -0.20728184152E+03 -0.11407693909E+03  0.29185686089E+03  0.37571230629E+03  0.00000000000E+00 0. -1.
        -11    1    5    5    0    0 -0.64971186689E+02 -0.22699188659E+02  0.26975198202E+02  0.73920021534E+02  0.00000000000E+00 0.  1.
          1    1    6    6  503    0 -0.10384881607E+04  0.54414648639E+03 -0.14565184837E+03  0.11814260533E+04  0.00000000000E+00 0. -1.
         -1    1    6    6    0  503 -0.10028171595E+03  0.65185342943E+02  0.11843681417E+02  0.12019078283E+03  0.00000000000E+00 0.  1.
<mgrwt>
<rscale>  0 0.33496858E+04</rscale>
<asrwt>0</asrwt>
<pdfrwt beam="1">  1        1 0.29728825E+00 0.33496858E+04</pdfrwt>
<pdfrwt beam="2">  1       -1 0.22332826E+00 0.33496858E+04</pdfrwt>
<totfact> 0.28611644E-01</totfact>
</mgrwt>
</event>
<event>
12    2  0.3555611E-008  0.1513698E+04  0.7818608E-02  0.8875395E-01
          1   -1    0    0  501    0  0.00000000000E+00  0.00000000000E+00  0.20802181240E+04  0.20802181240E+04  0.00000000000E+00 0. -1.
         -1   -1    0    0    0  501 -0.00000000000E+00 -0.00000000000E+00 -0.27536547764E+03  0.27536547764E+03  0.00000000000E+00 0.  1.
         23    2    1    2    0    0  0.18073352431E+03 -0.15628185046E+03 -0.67701477483E+02  0.26412729646E+03  0.89950625834E+02 0.  0.
        254    2    1    2    0    0 -0.18073352431E+03  0.15628185046E+03  0.18725541239E+04  0.20914563052E+04  0.90035654391E+03 0.  0.
         23    2    4    4    0    0  0.29984052520E+03 -0.15766591201E+03  0.69001183589E+03  0.77382585111E+03  0.89035014511E+02 0.  0.
         23    2    4    4    0    0 -0.48057404951E+03  0.31394776247E+03  0.11825422880E+04  0.13176304541E+04  0.90714585803E+02 0.  0.
          1    1    3    3  502    0  0.15633274054E+03 -0.87731668733E+02 -0.28635710426E+02  0.18154001040E+03  0.00000000000E+00 0. -1.
         -1    1    3    3    0  502  0.24400783773E+02 -0.68550181725E+02 -0.39065767057E+02  0.82587286062E+02  0.00000000000E+00 0.  1.
         11    1    5    5    0    0  0.10092080942E+03 -0.40488534977E+02  0.13957491159E+03  0.17693356715E+03  0.00000000000E+00 0. -1.
        -11    1    5    5    0    0  0.19891971578E+03 -0.11717737703E+03  0.55043692430E+03  0.59689228395E+03  0.00000000000E+00 0.  1.
          1    1    6    6  503    0 -0.85055535714E+02  0.70573920586E+02  0.31145784477E+03  0.33048617444E+03  0.00000000000E+00 0. -1.
         -1    1    6    6    0  503 -0.39551851380E+03  0.24337384188E+03  0.87108444321E+03  0.98714427967E+03  0.00000000000E+00 0.  1.
<mgrwt>
<rscale>  0 0.15136978E+04</rscale>
<asrwt>0</asrwt>
<pdfrwt beam="1">  1        1 0.32003355E+00 0.15136978E+04</pdfrwt>
<pdfrwt beam="2">  1       -1 0.42363921E-01 0.15136978E+04</pdfrwt>
<totfact> 0.13929255E+01</totfact>
</mgrwt>
</event>
<event>
12    2  0.3555611E-008  0.2255153E+04  0.7818608E-02  0.8495817E-01
          1   -1    0    0  501    0  0.00000000000E+00  0.00000000000E+00  0.10591257417E+04  0.10591257417E+04  0.00000000000E+00 0. -1.
         -1   -1    0    0    0  501 -0.00000000000E+00 -0.00000000000E+00 -0.12004507516E+04  0.12004507516E+04  0.00000000000E+00 0.  1.
         23    2    1    2    0    0 -0.78199267180E+03  0.41305382470E+03 -0.47793254503E+03  0.10093393296E+04  0.90666222300E+02 0.  0.
        254    2    1    2    0    0  0.78199267180E+03 -0.41305382470E+03  0.33660753506E+03  0.12502371637E+04  0.81710607140E+03 0.  0.
         23    2    4    4    0    0 -0.11916350758E+03 -0.18490765709E+03  0.18304622670E+03  0.30411108892E+03  0.10289242006E+03 0.  0.
         23    2    4    4    0    0  0.90115617938E+03 -0.22814616761E+03  0.15356130835E+03  0.94612607475E+03  0.86257408168E+02 0.  0.
          1    1    3    3  502    0 -0.93802533430E+02  0.82178285426E+02 -0.81355301852E+02  0.14889886169E+03  0.00000000000E+00 0. -1.
         -1    1    3    3    0  502 -0.68819013837E+03  0.33087553928E+03 -0.39657724318E+03  0.86044046793E+03  0.00000000000E+00 0.  1.
         11    1    5    5    0    0  0.89065545596E+01 -0.69859939714E+02  0.59748214406E+02  0.92355763305E+02  0.00000000000E+00 0.  1.
        -11    1    5    5    0    0 -0.12807006214E+03 -0.11504771738E+03  0.12329801230E+03  0.21175532562E+03  0.00000000000E+00 0. -1.
          4    1    6    6  503    0  0.80781787383E+03 -0.20096150672E+03  0.11028763749E+03  0.83971340792E+03  0.00000000000E+00 0. -1.
         -4    1    6    6    0  503  0.93338305552E+02 -0.27184660896E+02  0.43273670864E+02  0.10641266683E+03  0.00000000000E+00 0.  1.
<mgrwt>
<rscale>  0 0.22551526E+04</rscale>
<asrwt>0</asrwt>
<pdfrwt beam="1">  1        1 0.16294242E+00 0.22551526E+04</pdfrwt>
<pdfrwt beam="2">  1       -1 0.18468473E+00 0.22551526E+04</pdfrwt>
<totfact> 0.23807668E+00</totfact>
</mgrwt>
</event>
<event>
12    2  0.3555611E-008  0.2266805E+04  0.7818608E-02  0.8491126E-01
         -1   -1    0    0    0  501 -0.00000000000E+00  0.00000000000E+00  0.51367876640E+03  0.51367876640E+03  0.00000000000E+00 0.  1.
          1   -1    0    0  501    0  0.00000000000E+00 -0.00000000000E+00 -0.25007872144E+04  0.25007872144E+04  0.00000000000E+00 0. -1.
         23    2    1    2    0    0  0.54715770008E+03 -0.64261779057E+03 -0.14134859787E+04  0.16488589684E+04  0.91946246154E+02 0.  0.
        254    2    1    2    0    0 -0.54715770008E+03  0.64261779057E+03 -0.57362246931E+03  0.13656070124E+04  0.90746933915E+03 0.  0.
         23    2    4    4    0    0 -0.21720650602E+03  0.31315777112E+03  0.21324067754E+03  0.44635686448E+03  0.92284386727E+02 0.  0.
         23    2    4    4    0    0 -0.32995119405E+03  0.32946001945E+03 -0.78686314685E+03  0.91925014792E+03  0.91953943398E+02 0.  0.
          4    1    3    3  502    0  0.14522685197E+03 -0.13804285164E+03 -0.27404062573E+03  0.33947743956E+03  0.00000000000E+00 0. -1.
         -4    1    3    3    0  502  0.40193084811E+03 -0.50457493893E+03 -0.11394453530E+04  0.13093815288E+04  0.00000000000E+00 0.  1.
         11    1    5    5    0    0 -0.17297639708E+03  0.29390298513E+03  0.16775539539E+03  0.38005482670E+03  0.00000000000E+00 0. -1.
        -11    1    5    5    0    0 -0.44230108946E+02  0.19254785991E+02  0.45485282152E+02  0.66302037777E+02  0.00000000000E+00 0.  1.
          1    1    6    6  503    0 -0.19967855680E+03  0.15841337905E+03 -0.49468417676E+03  0.55648787897E+03  0.00000000000E+00 0. -1.
         -1    1    6    6    0  503 -0.13027263726E+03  0.17104664040E+03 -0.29217897010E+03  0.36276226895E+03  0.00000000000E+00 0.  1.
<mgrwt>
<rscale>  0 0.22668051E+04</rscale>
<asrwt>0</asrwt>
<pdfrwt beam="1">  1        1 0.38473648E+00 0.22668051E+04</pdfrwt>
<pdfrwt beam="2">  1       -1 0.79027505E-01 0.22668051E+04</pdfrwt>
<totfact> 0.19635452E+00</totfact>
</mgrwt>
</event>
<event>
12    2  0.3555611E-008  0.1641698E+04  0.7818608E-02  0.8795333E-01
         -1   -1    0    0    0  501 -0.00000000000E+00  0.00000000000E+00  0.47882248419E+03  0.47882248419E+03  0.00000000000E+00 0.  1.
          1   -1    0    0  501    0  0.00000000000E+00 -0.00000000000E+00 -0.14071869825E+04  0.14071869825E+04  0.00000000000E+00 0. -1.
         23    2    1    2    0    0  0.55302361802E+03 -0.11752358752E+02 -0.47927358323E+03  0.73826035108E+03  0.96705420645E+02 0.  0.
        254    2    1    2    0    0 -0.55302361802E+03  0.11752358752E+02 -0.44909091509E+03  0.11477491156E+04  0.89981783844E+03 0.  0.
         23    2    4    4    0    0 -0.68046384992E+03 -0.21674702137E+03 -0.48345222921E+03  0.86770757789E+03  0.95812632089E+02 0.  0.
         23    2    4    4    0    0  0.12744023191E+03  0.22849938013E+03  0.34361314120E+02  0.28004153773E+03  0.93752778744E+02 0.  0.
          4    1    3    3  502    0  0.30560537270E+03 -0.31657417982E+02 -0.21068033738E+03  0.37253595866E+03  0.00000000000E+00 0. -1.
         -4    1    3    3    0  502  0.24741824531E+03  0.19905059231E+02 -0.26859324585E+03  0.36572439242E+03  0.00000000000E+00 0.  1.
         11    1    5    5    0    0 -0.66154475017E+02  0.41053946834E+00 -0.23708852578E+02  0.70275833670E+02  0.00000000000E+00 0. -1.
        -11    1    5    5    0    0 -0.61430937491E+03 -0.21715756084E+03 -0.45974337663E+03  0.79743174422E+03  0.00000000000E+00 0.  1.
          2    1    6    6  503    0  0.31841436911E+02  0.32964656440E+02 -0.27902854865E+02  0.53657385217E+02  0.00000000000E+00 0. -1.
         -2    1    6    6    0  503  0.95598794997E+02  0.19553472369E+03  0.62264168984E+02  0.22638415252E+03  0.00000000000E+00 0.  1.
<mgrwt>
<rscale>  0 0.16416976E+04</rscale>
<asrwt>0</asrwt>
<pdfrwt beam="1">  1        1 0.21649030E+00 0.16416976E+04</pdfrwt>
<pdfrwt beam="2">  1       -1 0.73664999E-01 0.16416976E+04</pdfrwt>
<totfact> 0.13479634E+01</totfact>
</mgrwt>
</event>
<event>
12    2  0.3555611E-008  0.1450011E+04  0.7818608E-02  0.8918393E-01
         -1   -1    0    0    0  501 -0.00000000000E+00  0.00000000000E+00  0.22584175738E+03  0.22584175738E+03  0.00000000000E+00 0.  1.
          1   -1    0    0  501    0  0.00000000000E+00 -0.00000000000E+00 -0.23274391340E+04  0.23274391340E+04  0.00000000000E+00 0. -1.
         23    2    1    2    0    0  0.39267734620E+03 -0.87860105863E+01 -0.10229886727E+04  0.10996851007E+04  0.92351524744E+02 0.  0.
        254    2    1    2    0    0 -0.39267734620E+03  0.87860105863E+01 -0.10786087040E+04  0.14535957907E+04  0.89177984626E+03 0.  0.
         23    2    4    4    0    0  0.14194018489E+03  0.20608942349E+03 -0.73340780813E+03  0.78015168177E+03  0.90165220427E+02 0.  0.
         23    2    4    4    0    0 -0.53461753109E+03 -0.19730341291E+03 -0.34520089583E+03  0.67344410891E+03  0.98075318222E+02 0.  0.
          4    1    3    3  502    0  0.12895480821E+03  0.31840313369E+02 -0.27197757532E+03  0.30267961542E+03  0.00000000000E+00 0. -1.
         -4    1    3    3    0  502  0.26372253800E+03 -0.40626323956E+02 -0.75101109738E+03  0.79700548532E+03  0.00000000000E+00 0.  1.
         11    1    5    5    0    0  0.36920712420E+02  0.57896759944E+01 -0.71587445188E+02  0.80755319715E+02  0.00000000000E+00 0.  1.
        -11    1    5    5    0    0  0.10501947247E+03  0.20029974750E+03 -0.66182036294E+03  0.69939636205E+03  0.00000000000E+00 0. -1.
          2    1    6    6  503    0 -0.13312664035E+03 -0.33673508542E+02 -0.13131810464E+03  0.19000276881E+03  0.00000000000E+00 0.  1.
         -2    1    6    6    0  503 -0.40149089073E+03 -0.16362990436E+03 -0.21388279120E+03  0.48344134010E+03  0.00000000000E+00 0. -1.
<mgrwt>
<rscale>  0 0.14500110E+04</rscale>
<asrwt>0</asrwt>
<pdfrwt beam="1">  1        1 0.35806754E+00 0.14500110E+04</pdfrwt>
<pdfrwt beam="2">  1       -1 0.34744887E-01 0.14500110E+04</pdfrwt>
<totfact> 0.13637740E+01</totfact>
</mgrwt>
</event>
<event>
12    2  0.3555611E-008  0.2558576E+04  0.7818608E-02  0.8382410E-01
          2   -1    0    0  501    0  0.00000000000E+00  0.00000000000E+00  0.22025985849E+04  0.22025985849E+04  0.00000000000E+00 0. -1.
         -2   -1    0    0    0  501 -0.00000000000E+00 -0.00000000000E+00 -0.74302112274E+03  0.74302112274E+03  0.00000000000E+00 0.  1.
         23    2    1    2    0    0  0.92489432354E+03 -0.21401680628E+03  0.13127578311E+04  0.16225917708E+04  0.90764687593E+02 0.  0.
        254    2    1    2    0    0 -0.92489432354E+03  0.21401680628E+03  0.14681963099E+03  0.13230279368E+04  0.90973304565E+03 0.  0.
         23    2    4    4    0    0  0.84218397268E+02  0.55740777078E+02  0.25798285028E+03  0.29155387970E+03  0.90822580118E+02 0.  0.
         23    2    4    4    0    0 -0.10091127208E+04  0.15827602920E+03 -0.11116321929E+03  0.10314740571E+04  0.90673504291E+02 0.  0.
          3    1    3    3  502    0  0.72965651429E+03 -0.13263387685E+03  0.10434608022E+04  0.12801565607E+04  0.00000000000E+00 0. -1.
         -3    1    3    3    0  502  0.19523780924E+03 -0.81382929425E+02  0.26929702891E+03  0.34243521014E+03  0.00000000000E+00 0.  1.
         11    1    5    5    0    0  0.76158874190E+01 -0.23476716695E+02  0.34991931611E+02  0.42820476945E+02  0.00000000000E+00 0.  1.
        -11    1    5    5    0    0  0.76602509849E+02  0.79217493773E+02  0.22299091867E+03  0.24873340275E+03  0.00000000000E+00 0. -1.
          3    1    6    6  503    0 -0.10080098345E+04  0.16231550580E+03 -0.10910343235E+03  0.10268075325E+04  0.00000000000E+00 0. -1.
         -3    1    6    6    0  503 -0.11028863370E+01 -0.40394766061E+01 -0.20597869395E+01  0.46665245912E+01  0.00000000000E+00 0.  1.
<mgrwt>
<rscale>  0 0.25585756E+04</rscale>
<asrwt>0</asrwt>
<pdfrwt beam="1">  1        2 0.33886132E+00 0.25585756E+04</pdfrwt>
<pdfrwt beam="2">  1       -2 0.11431094E+00 0.25585756E+04</pdfrwt>
<totfact> 0.27330047E+00</totfact>
</mgrwt>
</event>
<event>
12    2  0.3555611E-008  0.1713915E+04  0.7818608E-02  0.8753468E-01
          1   -1    0    0  501    0  0.00000000000E+00  0.00000000000E+00  0.35285196930E+03  0.35285196930E+03  0.00000000000E+00 0. -1.
         -1   -1    0    0    0  501 -0.00000000000E+00 -0.00000000000E+00 -0.20812582203E+04  0.20812582203E+04  0.00000000000E+00 0.  1.
         23    2    1    2    0    0 -0.45792726281E+03  0.20494272792E+03 -0.11593336119E+04  0.12662560250E+04  0.87469980642E+02 0.  0.
        254    2    1    2    0    0  0.45792726281E+03 -0.20494272792E+03 -0.56907263915E+03  0.11678541646E+04  0.88788556775E+03 0.  0.
         23    2    4    4    0    0 -0.22233183715E+03 -0.19136634673E+03 -0.58556098681E+02  0.31211751324E+03  0.89084234893E+02 0.  0.
         23    2    4    4    0    0  0.68025909996E+03 -0.13576381194E+02 -0.51051654047E+03  0.85573665137E+03  0.93387992852E+02 0.  0.
          3    1    3    3  502    0 -0.18744388027E+02  0.59727256450E+01 -0.15799626239E+02  0.25231998007E+02  0.00000000000E+00 0. -1.
         -3    1    3    3    0  502 -0.43918287478E+03  0.19897000228E+03 -0.11435339856E+04  0.12410240270E+04  0.00000000000E+00 0.  1.
         11    1    5    5    0    0 -0.16422205914E+03 -0.10522423796E+03 -0.70789623063E+02  0.20749023036E+03  0.00000000000E+00 0. -1.
        -11    1    5    5    0    0 -0.58109778014E+02 -0.86142108766E+02  0.12233524382E+02  0.10462728288E+03  0.00000000000E+00 0.  1.
          1    1    6    6  503    0  0.49691764975E+03 -0.50579582018E+02 -0.36106140108E+03  0.61632035509E+03  0.00000000000E+00 0. -1.
         -1    1    6    6    0  503  0.18334145021E+03  0.37003200824E+02 -0.14945513939E+03  0.23941629628E+03  0.00000000000E+00 0.  1.
<mgrwt>
<rscale>  0 0.17139149E+04</rscale>
<asrwt>0</asrwt>
<pdfrwt beam="1">  1        1 0.54284920E-01 0.17139149E+04</pdfrwt>
<pdfrwt beam="2">  1       -1 0.32019356E+00 0.17139149E+04</pdfrwt>
<totfact> 0.16471164E+00</totfact>
</mgrwt>
</event>
<event>
12    2  0.3555611E-008  0.1436751E+04  0.7818608E-02  0.8927637E-01
          1   -1    0    0  501    0  0.00000000000E+00  0.00000000000E+00  0.24666795310E+04  0.24666795310E+04  0.00000000000E+00 0. -1.
         -1   -1    0    0    0  501 -0.00000000000E+00 -0.00000000000E+00 -0.20921391528E+03  0.20921391528E+03  0.00000000000E+00 0.  1.
         23    2    1    2    0    0  0.39724053447E+03  0.16259574971E+03  0.65013674203E+03  0.78444001006E+03  0.91820074103E+02 0.  0.
        254    2    1    2    0    0 -0.39724053447E+03 -0.16259574971E+03  0.16073288737E+04  0.18914534362E+04  0.89991809245E+03 0.  0.
         23    2    4    4    0    0 -0.37586266033E+03 -0.37715292546E+03  0.42712899080E+03  0.68840105265E+03  0.89105364013E+02 0.  0.
         23    2    4    4    0    0 -0.21377874135E+02  0.21455717574E+03  0.11801998829E+04  0.12030523836E+04  0.89283138667E+02 0.  0.
          4    1    3    3  502    0  0.33378863542E+03  0.11808589162E+03  0.58202704146E+03  0.68125957456E+03  0.00000000000E+00 0. -1.
         -4    1    3    3    0  502  0.63451899046E+02  0.44509858091E+02  0.68109700563E+02  0.10318043550E+03  0.00000000000E+00 0.  1.
         11    1    5    5    0    0 -0.37510246084E+03 -0.35613657120E+03  0.39884637310E+03  0.65315659899E+03  0.00000000000E+00 0. -1.
        -11    1    5    5    0    0 -0.76019949061E+00 -0.21016354258E+02  0.28282617700E+02  0.35244453656E+02  0.00000000000E+00 0.  1.
          1    1    6    6  503    0 -0.44250109314E+02  0.20177131690E+03  0.10175396664E+04  0.10382950974E+04  0.00000000000E+00 0. -1.
         -1    1    6    6    0  503  0.22872235179E+02  0.12785858842E+02  0.16266021646E+03  0.16475728618E+03  0.00000000000E+00 0.  1.
<mgrwt>
<rscale>  0 0.14367515E+04</rscale>
<asrwt>0</asrwt>
<pdfrwt beam="1">  1        1 0.37948914E+00 0.14367515E+04</pdfrwt>
<pdfrwt beam="2">  1       -1 0.32186758E-01 0.14367515E+04</pdfrwt>
<totfact> 0.12555361E+01</totfact>
</mgrwt>
</event>
<event>
12    2  0.3555611E-008  0.2039524E+04  0.7818608E-02  0.8588362E-01
          1   -1    0    0  501    0  0.00000000000E+00  0.00000000000E+00  0.70621690166E+03  0.70621690166E+03  0.00000000000E+00 0. -1.
         -1   -1    0    0    0  501 -0.00000000000E+00 -0.00000000000E+00 -0.14725145144E+04  0.14725145144E+04  0.00000000000E+00 0.  1.
         23    2    1    2    0    0 -0.58936486823E+03 -0.40535957072E+03 -0.67750474742E+03  0.98948287896E+03  0.91631629415E+02 0.  0.
        254    2    1    2    0    0  0.58936486823E+03  0.40535957072E+03 -0.88792865323E+02  0.11892485371E+04  0.94591785086E+03 0.  0.
         23    2    4    4    0    0  0.11799828038E+03  0.63094059840E+03 -0.10928319989E+03  0.65783188283E+03  0.93756788547E+02 0.  0.
         23    2    4    4    0    0  0.47136658785E+03 -0.22558102768E+03  0.20490334566E+02  0.53141665427E+03  0.94395690744E+02 0.  0.
          3    1    3    3  502    0 -0.34548955784E+02 -0.51416633949E+02 -0.74572727606E+02  0.96945305688E+02  0.00000000000E+00 0. -1.
         -3    1    3    3    0  502 -0.55481591244E+03 -0.35394293677E+03 -0.60293201982E+03  0.89253757328E+03  0.00000000000E+00 0.  1.
         11    1    5    5    0    0  0.65666438475E+02  0.26307170968E+03 -0.90262461519E+02  0.28577284254E+03  0.00000000000E+00 0.  1.
        -11    1    5    5    0    0  0.52331841902E+02  0.36786888872E+03 -0.19020738369E+02  0.37205904028E+03  0.00000000000E+00 0. -1.
          1    1    6    6  503    0  0.99980971692E+02 -0.82151128674E+02 -0.21171066821E+02  0.13112290690E+03  0.00000000000E+00 0. -1.
         -1    1    6    6    0  503  0.37138561616E+03 -0.14342989901E+03  0.41661401386E+02  0.40029374737E+03  0.00000000000E+00 0.  1.
<mgrwt>
<rscale>  0 0.20395241E+04</rscale>
<asrwt>0</asrwt>
<pdfrwt beam="1">  1        1 0.10864875E+00 0.20395241E+04</pdfrwt>
<pdfrwt beam="2">  1       -1 0.22654069E+00 0.20395241E+04</pdfrwt>
<totfact> 0.24727628E+00</totfact>
</mgrwt>
</event>
<event>
12    2  0.3555611E-008  0.1800268E+04  0.7818608E-02  0.8706157E-01
         -2   -1    0    0    0  501 -0.00000000000E+00  0.00000000000E+00  0.11006701597E+04  0.11006701597E+04  0.00000000000E+00 0. -1.
          2   -1    0    0  501    0  0.00000000000E+00 -0.00000000000E+00 -0.73613483599E+03  0.73613483599E+03  0.00000000000E+00 0.  1.
         23    2    1    2    0    0  0.12140426823E+03 -0.66112014358E+03  0.65129544593E+02  0.68157634449E+03  0.92117399010E+02 0.  0.
        254    2    1    2    0    0 -0.12140426823E+03  0.66112014358E+03  0.29940577912E+03  0.11552286512E+04  0.89055632915E+03 0.  0.
         23    2    4    4    0    0 -0.17800521198E+03 -0.13662289809E+03  0.25024445724E+03  0.34920905242E+03  0.94725931713E+02 0.  0.
         23    2    4    4    0    0  0.56600943748E+02  0.79774304166E+03  0.49161321878E+02  0.80601959878E+03  0.87482173586E+02 0.  0.
          1    1    3    3  502    0  0.12446688249E+03 -0.44083158746E+03  0.48923262442E+02  0.46067122652E+03  0.00000000000E+00 0. -1.
         -1    1    3    3    0  502 -0.30626142574E+01 -0.22028855612E+03  0.16206282150E+02  0.22090511797E+03  0.00000000000E+00 0.  1.
         11    1    5    5    0    0 -0.35722086288E+02  0.60891923015E+01  0.70075519350E+02  0.78890583239E+02  0.00000000000E+00 0. -1.
        -11    1    5    5    0    0 -0.14228312569E+03 -0.14271209039E+03  0.18016893789E+03  0.27031846918E+03  0.00000000000E+00 0.  1.
          1    1    6    6  503    0  0.69085186416E+02  0.75792586708E+03  0.58315609086E+02  0.76329882302E+03  0.00000000000E+00 0. -1.
         -1    1    6    6    0  503 -0.12484242668E+02  0.39817174587E+02 -0.91542872077E+01  0.42720775758E+02  0.00000000000E+00 0.  1.
<mgrwt>
<rscale>  0 0.18002685E+04</rscale>
<asrwt>0</asrwt>
<pdfrwt beam="1">  1        2 0.11325151E+00 0.18002685E+04</pdfrwt>
<pdfrwt beam="2">  1       -2 0.16933387E+00 0.18002685E+04</pdfrwt>
<totfact> 0.78100292E+00</totfact>
</mgrwt>
</event>
<event>
12    2  0.3555611E-008  0.1376569E+04  0.7818608E-02  0.8970956E-01
          1   -1    0    0  501    0  0.00000000000E+00  0.00000000000E+00  0.69666922508E+03  0.69666922508E+03  0.00000000000E+00 0. -1.
         -1   -1    0    0    0  501 -0.00000000000E+00 -0.00000000000E+00 -0.68000038779E+03  0.68000038779E+03  0.00000000000E+00 0.  1.
         23    2    1    2    0    0 -0.19570469461E+03 -0.15454404199E+03 -0.28880799371E+03  0.39239015111E+03  0.91519315185E+02 0.  0.
        254    2    1    2    0    0  0.19570469461E+03  0.15454404199E+03  0.30547683101E+03  0.98427946175E+03  0.90183467229E+03 0.  0.
         23    2    4    4    0    0  0.17566891008E+03  0.11675796657E+03 -0.29546537812E+03  0.37424319637E+03  0.90918598950E+02 0.  0.
         23    2    4    4    0    0  0.20035784533E+02  0.37786075418E+02  0.60094220913E+03  0.61003626539E+03  0.95830507770E+02 0.  0.
          3    1    3    3  502    0 -0.49379947100E+01 -0.32314505786E+02 -0.70746379375E+02  0.77933697915E+02  0.00000000000E+00 0. -1.
         -3    1    3    3    0  502 -0.19076669990E+03 -0.12222953620E+03 -0.21806161434E+03  0.31445645320E+03  0.00000000000E+00 0.  1.
         11    1    5    5    0    0  0.14523934484E+03  0.86342225636E+02 -0.16225251770E+03  0.23425483286E+03  0.00000000000E+00 0. -1.
        -11    1    5    5    0    0  0.30429565235E+02  0.30415740937E+02 -0.13321286042E+03  0.13998836351E+03  0.00000000000E+00 0.  1.
          1    1    6    6  503    0  0.37845742873E+00  0.29350912102E+02  0.57771380387E+03  0.57845903784E+03  0.00000000000E+00 0. -1.
         -1    1    6    6    0  503  0.19657327104E+02  0.84351633158E+01  0.23228405255E+02  0.31577227550E+02  0.00000000000E+00 0.  1.
<mgrwt>
<rscale>  0 0.13765687E+04</rscale>
<asrwt>0</asrwt>
<pdfrwt beam="1">  1        1 0.10717988E+00 0.13765687E+04</pdfrwt>
<pdfrwt beam="2">  1       -1 0.10461544E+00 0.13765687E+04</pdfrwt>
<totfact> 0.23028814E+01</totfact>
</mgrwt>
</event>
<event>
12    2  0.3555611E-008  0.1277905E+04  0.7818608E-02  0.9047272E-01
          1   -1    0    0  501    0  0.00000000000E+00  0.00000000000E+00  0.19904430952E+04  0.19904430952E+04  0.00000000000E+00 0. -1.
         -1   -1    0    0    0  501 -0.00000000000E+00 -0.00000000000E+00 -0.20511029319E+03  0.20511029319E+03  0.00000000000E+00 0.  1.
         23    2    1    2    0    0 -0.20991272393E+03  0.22711619313E+03  0.40013319758E+03  0.51389798109E+03  0.91320547085E+02 0.  0.
        254    2    1    2    0    0  0.20991272393E+03 -0.22711619313E+03  0.13851996044E+04  0.16816554073E+04  0.90196554695E+03 0.  0.
         23    2    4    4    0    0  0.18310983887E+03 -0.54309006372E+03  0.11088416826E+04  0.12514763978E+04  0.90483516235E+02 0.  0.
         23    2    4    4    0    0  0.26802885067E+02  0.31597387060E+03  0.27635792183E+03  0.43017900951E+03  0.90124345863E+02 0.  0.
          1    1    3    3  502    0 -0.56366732285E+02  0.87578033971E+02  0.20068805005E+03  0.22610354702E+03  0.00000000000E+00 0. -1.
         -1    1    3    3    0  502 -0.15354599165E+03  0.13953815916E+03  0.19944514753E+03  0.28779443408E+03  0.00000000000E+00 0.  1.
         11    1    5    5    0    0  0.44606491755E+02 -0.25360250351E+03  0.44483080884E+03  0.51398289601E+03  0.00000000000E+00 0.  1.
        -11    1    5    5    0    0  0.13850334711E+03 -0.28948756021E+03  0.66401087374E+03  0.73749350175E+03  0.00000000000E+00 0. -1.
          4    1    6    6  503    0  0.49791244998E+02  0.28929992445E+03  0.23629730722E+03  0.37684218416E+03  0.00000000000E+00 0. -1.
         -4    1    6    6    0  503 -0.22988359931E+02  0.26673946150E+02  0.40060614604E+02  0.53336825346E+02  0.00000000000E+00 0.  1.
<mgrwt>
<rscale>  0 0.12779051E+04</rscale>
<asrwt>0</asrwt>
<pdfrwt beam="1">  1        1 0.30622200E+00 0.12779051E+04</pdfrwt>
<pdfrwt beam="2">  1       -1 0.31555431E-01 0.12779051E+04</pdfrwt>
<totfact> 0.27821778E+01</totfact>
</mgrwt>
</event>
<event>
12    2  0.3555611E-008  0.1967067E+04  0.7818608E-02  0.8622175E-01
          1   -1    0    0  501    0  0.00000000000E+00  0.00000000000E+00  0.15171176809E+04  0.15171176809E+04  0.00000000000E+00 0. -1.
         -1   -1    0    0    0  501 -0.00000000000E+00 -0.00000000000E+00 -0.63761581340E+03  0.63761581340E+03  0.00000000000E+00 0.  1.
         23    2    1    2    0    0 -0.23356967191E+03 -0.73581459514E+03  0.26624970239E+03  0.82169898235E+03  0.91227208210E+02 0.  0.
        254    2    1    2    0    0  0.23356967191E+03  0.73581459514E+03  0.61325216510E+03  0.13330345119E+04  0.89717605963E+03 0.  0.
         23    2    4    4    0    0  0.45834265632E+03  0.26405824333E+03  0.59681122913E+03  0.80236156707E+03  0.88293230853E+02 0.  0.
         23    2    4    4    0    0 -0.22477298442E+03  0.47175635180E+03  0.16440935977E+02  0.53067294488E+03  0.90920405081E+02 0.  0.
          1    1    3    3  502    0 -0.57771843964E+02 -0.98004950832E+02  0.60492270436E+02  0.12884824844E+03  0.00000000000E+00 0. -1.
         -1    1    3    3    0  502 -0.17579782794E+03 -0.63780964430E+03  0.20575743195E+03  0.69285073391E+03  0.00000000000E+00 0.  1.
         11    1    5    5    0    0  0.10344424503E+03  0.20403325248E+02  0.10600142838E+03  0.14951023487E+03  0.00000000000E+00 0. -1.
        -11    1    5    5    0    0  0.35489841129E+03  0.24365491809E+03  0.49080980074E+03  0.65285133219E+03  0.00000000000E+00 0.  1.
          4    1    6    6  503    0  0.66179126680E+01  0.17917968018E+02 -0.78982082617E+01  0.20669592152E+02  0.00000000000E+00 0. -1.
         -4    1    6    6    0  503 -0.23139089708E+03  0.45383838378E+03  0.24339144239E+02  0.51000335272E+03  0.00000000000E+00 0.  1.
<mgrwt>
<rscale>  0 0.19670671E+04</rscale>
<asrwt>0</asrwt>
<pdfrwt beam="1">  1        1 0.23340272E+00 0.19670671E+04</pdfrwt>
<pdfrwt beam="2">  1       -1 0.98094741E-01 0.19670671E+04</pdfrwt>
<totfact> 0.58968733E+00</totfact>
</mgrwt>
</event>
<event>
12    2  0.3555611E-008  0.2324130E+04  0.7818608E-02  0.8468467E-01
          2   -1    0    0  501    0  0.00000000000E+00  0.00000000000E+00  0.69546460585E+03  0.69546460585E+03  0.00000000000E+00 0. -1.
         -2   -1    0    0    0  501 -0.00000000000E+00 -0.00000000000E+00 -0.19417168629E+04  0.19417168629E+04  0.00000000000E+00 0.  1.
         23    2    1    2    0    0 -0.93438143750E+03  0.28619497301E+03 -0.38160951988E+03  0.10532004036E+04  0.92892578622E+02 0.  0.
        254    2    1    2    0    0  0.93438143750E+03 -0.28619497301E+03 -0.86464273713E+03  0.15839810651E+04  0.89800485432E+03 0.  0.
         23    2    4    4    0    0  0.22309911337E+03 -0.27237756157E+03  0.10441085852E+03  0.37842014775E+03  0.91309530795E+02 0.  0.
         23    2    4    4    0    0  0.71128232413E+03 -0.13817411448E+02 -0.96905359565E+03  0.12055609173E+04  0.90547162981E+02 0.  0.
          2    1    3    3  502    0 -0.14741892574E+03  0.67321799999E+02 -0.34606603985E+02  0.16571717310E+03  0.00000000000E+00 0. -1.
         -2    1    3    3    0  502 -0.78696251176E+03  0.21887317302E+03 -0.34700291589E+03  0.88748323050E+03  0.00000000000E+00 0.  1.
         11    1    5    5    0    0  0.16352859955E+03 -0.25116649237E+03  0.95522444697E+02  0.31456437687E+03  0.00000000000E+00 0. -1.
        -11    1    5    5    0    0  0.59570513823E+02 -0.21211069201E+02  0.88884138209E+01  0.63855770876E+02  0.00000000000E+00 0.  1.
          2    1    6    6  503    0  0.62956145351E+03 -0.13588125471E+02 -0.90084365952E+03  0.10991139885E+04  0.00000000000E+00 0. -1.
         -2    1    6    6    0  503  0.81720870622E+02 -0.22928597748E+00 -0.68209936124E+02  0.10644692881E+03  0.00000000000E+00 0.  1.
<mgrwt>
<rscale>  0 0.23241302E+04</rscale>
<asrwt>0</asrwt>
<pdfrwt beam="1">  1        2 0.10699455E+00 0.23241302E+04</pdfrwt>
<pdfrwt beam="2">  1       -2 0.29872567E+00 0.23241302E+04</pdfrwt>
<totfact> 0.12100378E+00</totfact>
</mgrwt>
</event>
<event>
12    2  0.3555611E-008  0.1358575E+04  0.7818608E-02  0.8984362E-01
          2   -1    0    0  501    0  0.00000000000E+00  0.00000000000E+00  0.82162455238E+03  0.82162455238E+03  0.00000000000E+00 0. -1.
         -2   -1    0    0    0  501 -0.00000000000E+00 -0.00000000000E+00 -0.56160849736E+03  0.56160849736E+03  0.00000000000E+00 0.  1.
         23    2    1    2    0    0 -0.15995357949E+03 -0.17847243444E+03  0.35878395033E+03  0.44193214896E+03  0.95606191323E+02 0.  0.
        254    2    1    2    0    0  0.15995357949E+03  0.17847243444E+03 -0.98767895308E+02  0.94130090078E+03  0.90490592397E+03 0.  0.
         23    2    4    4    0    0  0.19766929868E+03 -0.31098788945E+03 -0.20491324364E+03  0.43123615335E+03  0.90490681919E+02 0.  0.
         23    2    4    4    0    0 -0.37715719192E+02  0.48946032389E+03  0.10614534833E+03  0.51006474743E+03  0.88911908419E+02 0.  0.
          1    1    3    3  502    0 -0.16166072748E+03 -0.15889788933E+03  0.35606513681E+03  0.42209609296E+03  0.00000000000E+00 0. -1.
         -1    1    3    3    0  502  0.17071479940E+01 -0.19574545108E+02  0.27188135264E+01  0.19836055996E+02  0.00000000000E+00 0.  1.
         11    1    5    5    0    0 -0.92274055366E+01 -0.12355229756E+02 -0.13996755481E+02  0.20825606336E+02  0.00000000000E+00 0. -1.
        -11    1    5    5    0    0  0.20689670422E+03 -0.29863265970E+03 -0.19091648816E+03  0.41041054702E+03  0.00000000000E+00 0.  1.
          4    1    6    6  503    0  0.21231225562E+02  0.47389790460E+02  0.21066447152E+02  0.56038847011E+02  0.00000000000E+00 0. -1.
         -4    1    6    6    0  503 -0.58946944754E+02  0.44207053343E+03  0.85078901180E+02  0.45402590042E+03  0.00000000000E+00 0.  1.
<mgrwt>
<rscale>  0 0.13585747E+04</rscale>
<asrwt>0</asrwt>
<pdfrwt beam="1">  1        2 0.12640378E+00 0.13585747E+04</pdfrwt>
<pdfrwt beam="2">  1       -2 0.86401307E-01 0.13585747E+04</pdfrwt>
<totfact> 0.37673542E+01</totfact>
</mgrwt>
</event>
<event>
12    2  0.3555611E-008  0.2901808E+04  0.7818608E-02  0.8272340E-01
          2   -1    0    0  501    0  0.00000000000E+00  0.00000000000E+00  0.16344823053E+04  0.16344823053E+04  0.00000000000E+00 0. -1.
         -2   -1    0    0    0  501 -0.00000000000E+00 -0.00000000000E+00 -0.12879442666E+04  0.12879442666E+04  0.00000000000E+00 0.  1.
         23    2    1    2    0    0  0.11959935087E+04 -0.10522442822E+03  0.67769148509E+03  0.13817512928E+04  0.92185861304E+02 0.  0.
        254    2    1    2    0    0 -0.11959935087E+04  0.10522442822E+03 -0.33115344640E+03  0.15406752792E+04  0.90694269820E+03 0.  0.
         23    2    4    4    0    0 -0.87310319036E+03  0.45745205480E+03 -0.35996099204E+03  0.10533636349E+04  0.91823025572E+02 0.  0.
         23    2    4    4    0    0 -0.32289031831E+03 -0.35222762658E+03  0.28807545646E+02  0.48731164433E+03  0.91215708249E+02 0.  0.
          2    1    3    3  502    0  0.30571490653E+03 -0.24272785237E+02  0.12799358007E+03  0.33231480364E+03  0.00000000000E+00 0. -1.
         -2    1    3    3    0  502  0.89027860213E+03 -0.80951642987E+02  0.54969790503E+03  0.10494364891E+04  0.00000000000E+00 0.  1.
         11    1    5    5    0    0 -0.14356670612E+03  0.11099971631E+03 -0.83208453335E+02  0.19963963242E+03  0.00000000000E+00 0. -1.
        -11    1    5    5    0    0 -0.72953648424E+03  0.34645233849E+03 -0.27675253871E+03  0.85372400245E+03  0.00000000000E+00 0.  1.
          1    1    6    6  503    0 -0.16199837220E+03 -0.11057534990E+03  0.12901880487E+02  0.19656255778E+03  0.00000000000E+00 0. -1.
         -1    1    6    6    0  503 -0.16089194611E+03 -0.24165227667E+03  0.15905665158E+02  0.29074908655E+03  0.00000000000E+00 0.  1.
<mgrwt>
<rscale>  0 0.29018078E+04</rscale>
<asrwt>0</asrwt>
<pdfrwt beam="1">  1        2 0.25145882E+00 0.29018078E+04</pdfrwt>
<pdfrwt beam="2">  1       -2 0.19814527E+00 0.29018078E+04</pdfrwt>
<totfact> 0.12593961E+00</totfact>
</mgrwt>
</event>
<event>
12    2  0.3555611E-008  0.1838262E+04  0.7818608E-02  0.8686213E-01
          1   -1    0    0  501    0  0.00000000000E+00  0.00000000000E+00  0.72275281460E+03  0.72275281460E+03  0.00000000000E+00 0.  1.
         -1   -1    0    0    0  501 -0.00000000000E+00 -0.00000000000E+00 -0.11688665235E+04  0.11688665235E+04  0.00000000000E+00 0. -1.
         23    2    1    2    0    0  0.20475220901E+02  0.63828249057E+02  0.55067255621E+03  0.56199434262E+03  0.90022757821E+02 0.  0.
        254    2    1    2    0    0 -0.20475220901E+02 -0.63828249057E+02 -0.99678626511E+03  0.13296249955E+04  0.87739756681E+03 0.  0.
         23    2    4    4    0    0 -0.21923790144E+03  0.54713761693E+02 -0.10502945057E+04  0.10787680629E+04  0.97791265828E+02 0.  0.
         23    2    4    4    0    0  0.19876268054E+03 -0.11854201075E+03  0.53508240578E+02  0.25085693260E+03  0.80667573007E+02 0.  0.
          3    1    3    3  502    0 -0.14338910085E+02  0.42440680715E+02  0.10124117850E+03  0.11070949348E+03  0.00000000000E+00 0. -1.
         -3    1    3    3    0  502  0.34814130986E+02  0.21387568342E+02  0.44943137770E+03  0.45128484914E+03  0.00000000000E+00 0.  1.
         11    1    5    5    0    0 -0.17066260800E+03  0.73462810946E+02 -0.68381117698E+03  0.70860442852E+03  0.00000000000E+00 0. -1.
        -11    1    5    5    0    0 -0.48575293439E+02 -0.18749049254E+02 -0.36648332871E+03  0.37016363436E+03  0.00000000000E+00 0.  1.
          3    1    6    6  503    0  0.14217473827E+03 -0.53028636037E+02  0.54437666492E+01  0.15183980716E+03  0.00000000000E+00 0. -1.
         -3    1    6    6    0  503  0.56587942270E+02 -0.65513374713E+02  0.48064473929E+02  0.99017125441E+02  0.00000000000E+00 0.  1.
<mgrwt>
<rscale>  0 0.18382618E+04</rscale>
<asrwt>0</asrwt>
<pdfrwt beam="1">  1        1 0.11119274E+00 0.18382618E+04</pdfrwt>
<pdfrwt beam="2">  1       -1 0.17982562E+00 0.18382618E+04</pdfrwt>
<totfact> 0.50917645E+00</totfact>
</mgrwt>
</event>
<event>
12    2  0.3555611E-008  0.1586578E+04  0.7818608E-02  0.8828836E-01
         -2   -1    0    0    0  501 -0.00000000000E+00  0.00000000000E+00  0.57058302733E+03  0.57058302733E+03  0.00000000000E+00 0. -1.
          2   -1    0    0  501    0  0.00000000000E+00 -0.00000000000E+00 -0.11029201838E+04  0.11029201838E+04  0.00000000000E+00 0.  1.
         23    2    1    2    0    0 -0.17506825530E+03 -0.42824087193E+03 -0.47142277515E+03  0.66700499472E+03  0.92828291180E+02 0.  0.
        254    2    1    2    0    0  0.17506825530E+03  0.42824087193E+03 -0.60914381345E+02  0.10064982164E+04  0.89178975068E+03 0.  0.
         23    2    4    4    0    0  0.55031508801E+02  0.97934794968E+01  0.37122202992E+03  0.38647790524E+03  0.91842237213E+02 0.  0.
         23    2    4    4    0    0  0.12003674650E+03  0.41844739243E+03 -0.43213641127E+03  0.62002031119E+03  0.90422716208E+02 0.  0.
          3    1    3    3  502    0 -0.40662070674E+02 -0.40341892298E+02 -0.31825976187E+02  0.65526826765E+02  0.00000000000E+00 0. -1.
         -3    1    3    3    0  502 -0.13440618463E+03 -0.38789897963E+03 -0.43959679896E+03  0.60147816795E+03  0.00000000000E+00 0.  1.
         11    1    5    5    0    0  0.16922566603E+02 -0.15001372825E+02  0.14485824035E+02  0.26856164005E+02  0.00000000000E+00 0. -1.
        -11    1    5    5    0    0  0.38108942198E+02  0.24794852322E+02  0.35673620589E+03  0.35962174123E+03  0.00000000000E+00 0.  1.
          1    1    6    6  503    0  0.33032783735E+01  0.68739440186E+02 -0.31880028400E+02  0.75844304307E+02  0.00000000000E+00 0. -1.
         -1    1    6    6    0  503  0.11673346813E+03  0.34970795225E+03 -0.40025638287E+03  0.54417600689E+03  0.00000000000E+00 0.  1.
<mgrwt>
<rscale>  0 0.15865781E+04</rscale>
<asrwt>0</asrwt>
<pdfrwt beam="1">  1        2 0.16968003E+00 0.15865781E+04</pdfrwt>
<pdfrwt beam="2">  1       -2 0.87782005E-01 0.15865781E+04</pdfrwt>
<totfact> 0.23315661E+01</totfact>
</mgrwt>
</event>
<event>
12    2  0.3555611E-008  0.1187907E+04  0.7818608E-02  0.9123508E-01
          2   -1    0    0  501    0  0.00000000000E+00  0.00000000000E+00  0.91069674167E+03  0.91069674167E+03  0.00000000000E+00 0. -1.
         -2   -1    0    0    0  501 -0.00000000000E+00 -0.00000000000E+00 -0.38737435168E+03  0.38737435168E+03  0.00000000000E+00 0.  1.
         23    2    1    2    0    0  0.12791465898E+02  0.98435670281E+01 -0.15296472820E+03  0.17441861239E+03  0.82238232372E+02 0.  0.
        254    2    1    2    0    0 -0.12791465898E+02 -0.98435670281E+01  0.67628711819E+03  0.11236524810E+04  0.89720126745E+03 0.  0.
         23    2    4    4    0    0 -0.19016313230E+03  0.39417981029E+03  0.33573143404E+03  0.55913203852E+03  0.91505742826E+02 0.  0.
         23    2    4    4    0    0  0.17737166641E+03 -0.40402337732E+03  0.34055568415E+03  0.56452044243E+03  0.89496136495E+02 0.  0.
          3    1    3    3  502    0  0.29675073813E+01  0.31495566465E+02 -0.16085532388E+02  0.35489733152E+02  0.00000000000E+00 0. -1.
         -3    1    3    3    0  502  0.98239585165E+01 -0.21651999437E+02 -0.13687919581E+03  0.13892887924E+03  0.00000000000E+00 0.  1.
         11    1    5    5    0    0 -0.10299755158E+03  0.11714052885E+03  0.13244642887E+03  0.20462760238E+03  0.00000000000E+00 0.  1.
        -11    1    5    5    0    0 -0.87165580719E+02  0.27703928144E+03  0.20328500516E+03  0.35450443615E+03  0.00000000000E+00 0. -1.
          3    1    6    6  503    0  0.47503860661E+02 -0.18382218779E+03  0.18599500095E+03  0.26578441241E+03  0.00000000000E+00 0. -1.
         -3    1    6    6    0  503  0.12986780574E+03 -0.22020118953E+03  0.15456068320E+03  0.29873603002E+03  0.00000000000E+00 0.  1.
<mgrwt>
<rscale>  0 0.11879067E+04</rscale>
<asrwt>0</asrwt>
<pdfrwt beam="1">  1        2 0.14010719E+00 0.11879067E+04</pdfrwt>
<pdfrwt beam="2">  1       -2 0.59596054E-01 0.11879067E+04</pdfrwt>
<totfact> 0.74831332E+01</totfact>
</mgrwt>
</event>
<event>
12    2  0.3555611E-008  0.1896297E+04  0.7818608E-02  0.8656702E-01
         -2   -1    0    0    0  501 -0.00000000000E+00  0.00000000000E+00  0.28546527762E+03  0.28546527762E+03  0.00000000000E+00 0.  1.
          2   -1    0    0  501    0  0.00000000000E+00 -0.00000000000E+00 -0.31491946643E+04  0.31491946643E+04  0.00000000000E+00 0. -1.
         23    2    1    2    0    0 -0.47180345550E+03  0.37509237355E+03 -0.18762107709E+04  0.19727630445E+04  0.91292845346E+02 0.  0.
        254    2    1    2    0    0  0.47180345550E+03 -0.37509237355E+03 -0.98751861582E+03  0.14618968974E+04  0.89367596637E+03 0.  0.
         23    2    4    4    0    0 -0.11652864927E+03 -0.51188565961E+02 -0.71342821443E+03  0.73043029731E+03  0.91375087950E+02 0.  0.
         23    2    4    4    0    0  0.58833210477E+03 -0.32390380759E+03 -0.27409040139E+03  0.73146660014E+03  0.94178006525E+02 0.  0.
          4    1    3    3  502    0 -0.16205457818E+03  0.12143655495E+03 -0.49855852846E+03  0.53811627878E+03  0.00000000000E+00 0. -1.
         -4    1    3    3    0  502 -0.30974887732E+03  0.25365581860E+03 -0.13776522424E+04  0.14346467657E+04  0.00000000000E+00 0.  1.
         11    1    5    5    0    0 -0.58589649811E+02 -0.32576818850E+02 -0.15739057481E+03  0.17107246778E+03  0.00000000000E+00 0.  1.
        -11    1    5    5    0    0 -0.57938999458E+02 -0.18611747111E+02 -0.55603763962E+03  0.55935782953E+03  0.00000000000E+00 0. -1.
          3    1    6    6  503    0  0.59351127202E+01 -0.20707116376E+02 -0.10087302610E+02  0.23785792094E+02  0.00000000000E+00 0. -1.
         -3    1    6    6    0  503  0.58239699205E+03 -0.30319669121E+03 -0.26400309878E+03  0.70768080805E+03  0.00000000000E+00 0.  1.
<mgrwt>
<rscale>  0 0.18962972E+04</rscale>
<asrwt>0</asrwt>
<pdfrwt beam="1">  1        2 0.48449151E+00 0.18962972E+04</pdfrwt>
<pdfrwt beam="2">  1       -2 0.43917733E-01 0.18962972E+04</pdfrwt>
<totfact> 0.64708287E+00</totfact>
</mgrwt>
</event>
<event>
12    2  0.3555611E-008  0.1849793E+04  0.7818608E-02  0.8680259E-01
          2   -1    0    0  501    0  0.00000000000E+00  0.00000000000E+00  0.31376760497E+04  0.31376760497E+04  0.00000000000E+00 0.  1.
         -2   -1    0    0    0  501 -0.00000000000E+00 -0.00000000000E+00 -0.27263281955E+03  0.27263281955E+03  0.00000000000E+00 0. -1.
         23    2    1    2    0    0 -0.46032319171E+03 -0.15472702145E+03  0.16354953218E+03  0.52093204008E+03  0.93722190078E+02 0.  0.
        254    2    1    2    0    0  0.46032319171E+03  0.15472702145E+03  0.27014936980E+04  0.28893768292E+04  0.90254770998E+03 0.  0.
         23    2    4    4    0    0  0.55311071632E+03  0.31078476217E+03  0.10863246604E+04  0.12614381131E+04  0.92769674749E+02 0.  0.
         23    2    4    4    0    0 -0.92787524611E+02 -0.15605774072E+03  0.16151690376E+04  0.16279387161E+04  0.91923338152E+02 0.  0.
          3    1    3    3  502    0 -0.44357520424E+03 -0.15277505527E+03  0.17480897396E+03  0.50065692515E+03  0.00000000000E+00 0. -1.
         -3    1    3    3    0  502 -0.16747987474E+02 -0.19519661797E+01 -0.11259441773E+02  0.20275114931E+02  0.00000000000E+00 0.  1.
         11    1    5    5    0    0  0.20303274306E+03  0.71551325333E+02  0.41279905433E+03  0.46555874621E+03  0.00000000000E+00 0.  1.
        -11    1    5    5    0    0  0.35007797326E+03  0.23923343684E+03  0.67352560607E+03  0.79587936692E+03  0.00000000000E+00 0. -1.
          1    1    6    6  503    0 -0.11458475745E+02 -0.85012461269E+02  0.97088048473E+03  0.97466267542E+03  0.00000000000E+00 0. -1.
         -1    1    6    6    0  503 -0.81329048867E+02 -0.71045279450E+02  0.64428855287E+03  0.65327604065E+03  0.00000000000E+00 0.  1.
<mgrwt>
<rscale>  0 0.18497929E+04</rscale>
<asrwt>0</asrwt>
<pdfrwt beam="1">  1        2 0.48271937E+00 0.18497929E+04</pdfrwt>
<pdfrwt beam="2">  1       -2 0.41943513E-01 0.18497929E+04</pdfrwt>
<totfact> 0.72411296E+00</totfact>
</mgrwt>
</event>
<event>
12    2  0.3555611E-008  0.2216566E+04  0.7818608E-02  0.8511564E-01
         -2   -1    0    0    0  501 -0.00000000000E+00  0.00000000000E+00  0.49171038021E+03  0.49171038021E+03  0.00000000000E+00 0.  1.
          2   -1    0    0  501    0  0.00000000000E+00 -0.00000000000E+00 -0.24979973950E+04  0.24979973950E+04  0.00000000000E+00 0. -1.
         23    2    1    2    0    0 -0.82333306977E+03 -0.40783333742E+03 -0.10310482458E+04  0.13840169598E+04  0.90758387853E+02 0.  0.
        254    2    1    2    0    0  0.82333306977E+03  0.40783333742E+03 -0.97523876892E+03  0.16056908154E+04  0.88484290314E+03 0.  0.
         23    2    4    4    0    0  0.41168855040E+03  0.59207865543E+03 -0.87001696138E+03  0.11336863912E+04  0.90943519755E+02 0.  0.
         23    2    4    4    0    0  0.41164451937E+03 -0.18424531801E+03 -0.10522180754E+03  0.47200442415E+03  0.91208552766E+02 0.  0.
          1    1    3    3  502    0 -0.77450407523E+03 -0.35755269054E+03 -0.94634713479E+03  0.12740774657E+04  0.00000000000E+00 0. -1.
         -1    1    3    3    0  502 -0.48828994536E+02 -0.50280646880E+02 -0.84701111050E+02  0.10993949414E+03  0.00000000000E+00 0.  1.
         11    1    5    5    0    0  0.38732249068E+03  0.55269376059E+03 -0.84367669412E+03  0.10804070848E+04  0.00000000000E+00 0. -1.
        -11    1    5    5    0    0  0.24366059721E+02  0.39384894840E+02 -0.26340267265E+02  0.53279306371E+02  0.00000000000E+00 0.  1.
          4    1    6    6  503    0  0.37261519964E+03 -0.17932808142E+03 -0.70407227408E+02  0.41947327144E+03  0.00000000000E+00 0. -1.
         -4    1    6    6    0  503  0.39029319733E+02 -0.49172365935E+01 -0.34814580134E+02  0.52531152704E+02  0.00000000000E+00 0.  1.
<mgrwt>
<rscale>  0 0.22165660E+04</rscale>
<asrwt>0</asrwt>
<pdfrwt beam="1">  1        2 0.38430729E+00 0.22165660E+04</pdfrwt>
<pdfrwt beam="2">  1       -2 0.75647751E-01 0.22165660E+04</pdfrwt>
<totfact> 0.49916077E+00</totfact>
</mgrwt>
</event>
<event>
12    2  0.3555611E-008  0.2322627E+04  0.7818608E-02  0.8469053E-01
         -2   -1    0    0    0  501 -0.00000000000E+00  0.00000000000E+00  0.75400064905E+03  0.75400064905E+03  0.00000000000E+00 0.  1.
          2   -1    0    0  501    0  0.00000000000E+00 -0.00000000000E+00 -0.17886575086E+04  0.17886575086E+04  0.00000000000E+00 0. -1.
         23    2    1    2    0    0 -0.79629108430E+03 -0.68711944397E+02 -0.10014848229E+04  0.12846430219E+04  0.92385176756E+02 0.  0.
        254    2    1    2    0    0  0.79629108430E+03  0.68711944397E+02 -0.33172036655E+02  0.12580151358E+04  0.97092784264E+03 0.  0.
         23    2    4    4    0    0  0.73930076173E+03 -0.85041808856E+01 -0.41592495813E+03  0.85327938410E+03  0.91946719102E+02 0.  0.
         23    2    4    4    0    0  0.56990322568E+02  0.77216125282E+02  0.38275292147E+03  0.40473575168E+03  0.90005571622E+02 0.  0.
          1    1    3    3  502    0 -0.76189387509E+03 -0.47569518943E+02 -0.93754784444E+03  0.12090248536E+04  0.00000000000E+00 0. -1.
         -1    1    3    3    0  502 -0.34397209213E+02 -0.21142425453E+02 -0.63936978460E+02  0.75618168255E+02  0.00000000000E+00 0.  1.
         11    1    5    5    0    0  0.18063151898E+02 -0.14038338387E+02 -0.59225995870E+01  0.23631114808E+02  0.00000000000E+00 0.  1.
        -11    1    5    5    0    0  0.72123760983E+03  0.55341575019E+01 -0.41000235854E+03  0.82964826930E+03  0.00000000000E+00 0. -1.
          1    1    6    6  503    0  0.22516925549E+02  0.24597880299E+02  0.29436740934E+03  0.29625029846E+03  0.00000000000E+00 0. -1.
         -1    1    6    6    0  503  0.34473397019E+02  0.52618244983E+02  0.88385512126E+02  0.10848545322E+03  0.00000000000E+00 0.  1.
<mgrwt>
<rscale>  0 0.23226269E+04</rscale>
<asrwt>0</asrwt>
<pdfrwt beam="1">  1        2 0.27517808E+00 0.23226269E+04</pdfrwt>
<pdfrwt beam="2">  1       -2 0.11600010E+00 0.23226269E+04</pdfrwt>
<totfact> 0.45739834E+00</totfact>
</mgrwt>
</event>
<event>
12    2  0.3555611E-008  0.2067011E+04  0.7818608E-02  0.8575916E-01
          1   -1    0    0  501    0  0.00000000000E+00  0.00000000000E+00  0.24818495071E+04  0.24818495071E+04  0.00000000000E+00 0. -1.
         -1   -1    0    0    0  501 -0.00000000000E+00 -0.00000000000E+00 -0.43037805819E+03  0.43037805819E+03  0.00000000000E+00 0.  1.
         23    2    1    2    0    0 -0.39915066194E+03  0.70434039598E+03  0.10912377080E+04  0.13619390823E+04  0.93068169630E+02 0.  0.
        254    2    1    2    0    0  0.39915066194E+03 -0.70434039598E+03  0.96023374092E+03  0.15502884830E+04  0.90880630442E+03 0.  0.
         23    2    4    4    0    0  0.13518423387E+03 -0.51836677403E+03  0.10673070558E+04  0.11976954489E+04  0.91384612176E+02 0.  0.
         23    2    4    4    0    0  0.26396642807E+03 -0.18597362195E+03 -0.10707331491E+03  0.35259303411E+03  0.92696762225E+02 0.  0.
          1    1    3    3  502    0 -0.10698713923E+03  0.24232181955E+03  0.41585607221E+03  0.49305414001E+03  0.00000000000E+00 0. -1.
         -1    1    3    3    0  502 -0.29216352271E+03  0.46201857643E+03  0.67538163578E+03  0.86888494228E+03  0.00000000000E+00 0.  1.
         11    1    5    5    0    0  0.14271150615E+03 -0.47288588868E+03  0.10085341621E+04  0.11229999082E+04  0.00000000000E+00 0.  1.
        -11    1    5    5    0    0 -0.75272722732E+01 -0.45480885354E+02  0.58772893736E+02  0.74695540687E+02  0.00000000000E+00 0. -1.
          4    1    6    6  503    0  0.74546529075E+02 -0.27668410371E+02  0.85913864229E+01  0.79978358637E+02  0.00000000000E+00 0. -1.
         -4    1    6    6    0  503  0.18941989900E+03 -0.15830521157E+03 -0.11566470133E+03  0.27261467547E+03  0.00000000000E+00 0.  1.
<mgrwt>
<rscale>  0 0.20670110E+04</rscale>
<asrwt>0</asrwt>
<pdfrwt beam="1">  1        1 0.38182299E+00 0.20670110E+04</pdfrwt>
<pdfrwt beam="2">  1       -1 0.66212010E-01 0.20670110E+04</pdfrwt>
<totfact> 0.29741500E+00</totfact>
</mgrwt>
</event>
<event>
12    2  0.3555611E-008  0.1271999E+04  0.7818608E-02  0.9052069E-01
          1   -1    0    0  501    0  0.00000000000E+00  0.00000000000E+00  0.34892655371E+04  0.34892655371E+04  0.00000000000E+00 0. -1.
         -1   -1    0    0    0  501 -0.00000000000E+00 -0.00000000000E+00 -0.11592569845E+03  0.11592569845E+03  0.00000000000E+00 0.  1.
         23    2    1    2    0    0  0.22716516351E+03 -0.25491453529E+03  0.89852335509E+03  0.96542940329E+03  0.90134795078E+02 0.  0.
        254    2    1    2    0    0 -0.22716516351E+03  0.25491453529E+03  0.24748164836E+04  0.26397618323E+04  0.85266668281E+03 0.  0.
         23    2    4    4    0    0  0.29566137280E+02 -0.17591621091E+03  0.12813248690E+03  0.23840812491E+03  0.92735268848E+02 0.  0.
         23    2    4    4    0    0 -0.25673130079E+03  0.43083074620E+03  0.23466839967E+04  0.24013537074E+04  0.89709280453E+02 0.  0.
          2    1    3    3  502    0 -0.20920412155E+01 -0.26538034628E+02  0.10813727308E+03  0.11136567581E+03  0.00000000000E+00 0. -1.
         -2    1    3    3    0  502  0.22925720473E+03 -0.22837650066E+03  0.79038608201E+03  0.85406372748E+03  0.00000000000E+00 0.  1.
         11    1    5    5    0    0  0.60252699039E+01 -0.77466386478E+02  0.11138242893E+03  0.13580644456E+03  0.00000000000E+00 0. -1.
        -11    1    5    5    0    0  0.23540867376E+02 -0.98449824430E+02  0.16750057975E+02  0.10260168034E+03  0.00000000000E+00 0.  1.
          4    1    6    6  503    0 -0.89731005863E+01 -0.33402117170E+01  0.41250754752E+02  0.42347353118E+02  0.00000000000E+00 0. -1.
         -4    1    6    6    0  503 -0.24775820021E+03  0.43417095791E+03  0.23054332419E+04  0.23590063543E+04  0.00000000000E+00 0.  1.
<mgrwt>
<rscale>  0 0.12719993E+04</rscale>
<asrwt>0</asrwt>
<pdfrwt beam="1">  1        1 0.53681000E+00 0.12719993E+04</pdfrwt>
<pdfrwt beam="2">  1       -1 0.17834725E-01 0.12719993E+04</pdfrwt>
<totfact> 0.63292949E+00</totfact>
</mgrwt>
</event>
<event>
12    2  0.3555611E-008  0.2011418E+04  0.7818608E-02  0.8601301E-01
         -1   -1    0    0    0  501 -0.00000000000E+00  0.00000000000E+00  0.88200478997E+03  0.88200478997E+03  0.00000000000E+00 0. -1.
          1   -1    0    0  501    0  0.00000000000E+00 -0.00000000000E+00 -0.11467636035E+04  0.11467636035E+04  0.00000000000E+00 0.  1.
         23    2    1    2    0    0  0.14219263771E+03 -0.78765830207E+03 -0.91654162568E+02  0.81168100019E+03  0.99001078352E+02 0.  0.
        254    2    1    2    0    0 -0.14219263771E+03  0.78765830207E+03 -0.17310465098E+03  0.12170873933E+04  0.90039555512E+03 0.  0.
         23    2    4    4    0    0 -0.49941942459E+03  0.35919121596E+03  0.12439464611E+02  0.62203484683E+03  0.91293587466E+02 0.  0.
         23    2    4    4    0    0  0.35722678689E+03  0.42846708611E+03 -0.18554411559E+03  0.59505254646E+03  0.92010287811E+02 0.  0.
          1    1    3    3  502    0  0.10330234350E+02 -0.70624362589E+02  0.19994930440E+02  0.74123623603E+02  0.00000000000E+00 0. -1.
         -1    1    3    3    0  502  0.13186240336E+03 -0.71703393948E+03 -0.11164909301E+03  0.73755737659E+03  0.00000000000E+00 0.  1.
         11    1    5    5    0    0 -0.96794366004E+02  0.32371464683E+02 -0.12709360518E+02  0.10285226716E+03  0.00000000000E+00 0.  1.
        -11    1    5    5    0    0 -0.40262505859E+03  0.32681975127E+03  0.25148825129E+02  0.51918257967E+03  0.00000000000E+00 0. -1.
          1    1    6    6  503    0  0.24286971374E+03  0.22938269397E+03 -0.87036987389E+02  0.34522102386E+03  0.00000000000E+00 0. -1.
         -1    1    6    6    0  503  0.11435707315E+03  0.19908439215E+03 -0.98507128197E+02  0.24983152259E+03  0.00000000000E+00 0.  1.
<mgrwt>
<rscale>  0 0.20114184E+04</rscale>
<asrwt>0</asrwt>
<pdfrwt beam="1">  1        1 0.17642517E+00 0.20114184E+04</pdfrwt>
<pdfrwt beam="2">  1       -1 0.13569304E+00 0.20114184E+04</pdfrwt>
<totfact> 0.49285400E+00</totfact>
</mgrwt>
</event>
<event>
12    2  0.3555611E-008  0.1651528E+04  0.7818608E-02  0.8789503E-01
         -2   -1    0    0    0  501 -0.00000000000E+00  0.00000000000E+00  0.25898860417E+03  0.25898860417E+03  0.00000000000E+00 0.  1.
          2   -1    0    0  501    0  0.00000000000E+00 -0.00000000000E+00 -0.26328822913E+04  0.26328822913E+04  0.00000000000E+00 0. -1.
         23    2    1    2    0    0  0.45140725932E+03  0.10682341792E+03 -0.24824960512E+03  0.53452764117E+03  0.94404323774E+02 0.  0.
        254    2    1    2    0    0 -0.45140725932E+03 -0.10682341792E+03 -0.21256440820E+04  0.23573432543E+04  0.90748261625E+03 0.  0.
         23    2    4    4    0    0  0.17306827724E+03  0.93633582710E+02 -0.12178867726E+03  0.24737745166E+03  0.87425655759E+02 0.  0.
         23    2    4    4    0    0 -0.62447553657E+03 -0.20045700063E+03 -0.20038554048E+04  0.21099658027E+04  0.79790351770E+02 0.  0.
          3    1    3    3  502    0  0.21277751892E+03  0.68152271323E+01 -0.13505051925E+03  0.25210982255E+03  0.00000000000E+00 0. -1.
         -3    1    3    3    0  502  0.23862974041E+03  0.10000819079E+03 -0.11319908587E+03  0.28241781862E+03  0.00000000000E+00 0.  1.
         11    1    5    5    0    0  0.17626294888E+03  0.10334943062E+03 -0.11107989739E+03  0.23256929196E+03  0.00000000000E+00 0.  1.
        -11    1    5    5    0    0 -0.31946716428E+01 -0.97158479102E+01 -0.10708779869E+02  0.14808159703E+02  0.00000000000E+00 0. -1.
          3    1    6    6  503    0 -0.51164995829E+02 -0.21447696952E+02 -0.11072942198E+03  0.12385017317E+03  0.00000000000E+00 0. -1.
         -3    1    6    6    0  503 -0.57331054074E+03 -0.17900930368E+03 -0.18931259828E+04  0.19861156295E+04  0.00000000000E+00 0.  1.
<mgrwt>
<rscale>  0 0.16515284E+04</rscale>
<asrwt>0</asrwt>
<pdfrwt beam="1">  1        2 0.40505881E+00 0.16515284E+04</pdfrwt>
<pdfrwt beam="2">  1       -2 0.39844401E-01 0.16515284E+04</pdfrwt>
<totfact> 0.16610928E+01</totfact>
</mgrwt>
</event>
<event>
12    2  0.3555611E-008  0.1693251E+04  0.7818608E-02  0.8765223E-01
          2   -1    0    0  501    0  0.00000000000E+00  0.00000000000E+00  0.24379487832E+04  0.24379487832E+04  0.00000000000E+00 0. -1.
         -2   -1    0    0    0  501 -0.00000000000E+00 -0.00000000000E+00 -0.29400746860E+03  0.29400746860E+03  0.00000000000E+00 0.  1.
         23    2    1    2    0    0  0.61433943857E+02 -0.38277845503E+03  0.15127566125E+04  0.15643101707E+04  0.91325058105E+02 0.  0.
        254    2    1    2    0    0 -0.61433943857E+02  0.38277845503E+03  0.63118470210E+03  0.11676460812E+04  0.90261274509E+03 0.  0.
         23    2    4    4    0    0 -0.80652069768E+02  0.57833311174E+03  0.72208581530E+03  0.93304512619E+03  0.90506012741E+02 0.  0.
         23    2    4    4    0    0  0.19218125911E+02 -0.19555465672E+03 -0.90901113202E+02  0.23460095497E+03  0.90352839278E+02 0.  0.
          3    1    3    3  502    0  0.30331503956E+02 -0.33999320314E+03  0.13753070795E+04  0.14170338532E+04  0.00000000000E+00 0. -1.
         -3    1    3    3    0  502  0.31102439901E+02 -0.42785251890E+02  0.13744953305E+03  0.14727631745E+03  0.00000000000E+00 0.  1.
         11    1    5    5    0    0 -0.62701233488E+01  0.21128794636E+03  0.20392411485E+03  0.29371236839E+03  0.00000000000E+00 0.  1.
        -11    1    5    5    0    0 -0.74381946419E+02  0.36704516538E+03  0.51816170045E+03  0.63933275780E+03  0.00000000000E+00 0. -1.
          3    1    6    6  503    0  0.25613181006E+02 -0.19692648548E+03 -0.10082582391E+03  0.22271489059E+03  0.00000000000E+00 0. -1.
         -3    1    6    6    0  503 -0.63950550951E+01  0.13718287593E+01  0.99247107101E+01  0.11886064382E+02  0.00000000000E+00 0.  1.
<mgrwt>
<rscale>  0 0.16932515E+04</rscale>
<asrwt>0</asrwt>
<pdfrwt beam="1">  1        2 0.37506903E+00 0.16932515E+04</pdfrwt>
<pdfrwt beam="2">  1       -2 0.45231920E-01 0.16932515E+04</pdfrwt>
<totfact> 0.16707477E+01</totfact>
</mgrwt>
</event>
<event>
12    2  0.3555611E-008  0.1497757E+04  0.7818608E-02  0.8885946E-01
          2   -1    0    0  501    0  0.00000000000E+00  0.00000000000E+00  0.20795543181E+04  0.20795543181E+04  0.00000000000E+00 0. -1.
         -2   -1    0    0    0  501 -0.00000000000E+00 -0.00000000000E+00 -0.26968241919E+03  0.26968241919E+03  0.00000000000E+00 0.  1.
         23    2    1    2    0    0 -0.41690144956E+03 -0.14702950655E+03  0.32657493297E+03  0.55719730764E+03  0.91614182036E+02 0.  0.
        254    2    1    2    0    0  0.41690144956E+03  0.14702950655E+03  0.14832969660E+04  0.17920394297E+04  0.90322252732E+03 0.  0.
         23    2    4    4    0    0  0.25398910548E+03  0.51583910347E+03  0.74391082539E+03  0.94464157365E+03  0.91345170515E+02 0.  0.
         23    2    4    4    0    0  0.16291234408E+03 -0.36880959692E+03  0.73938614059E+03  0.84739785604E+03  0.93969733941E+02 0.  0.
          2    1    3    3  502    0 -0.26248974099E+03 -0.10518282993E+03  0.25922539559E+03  0.38361712365E+03  0.00000000000E+00 0. -1.
         -2    1    3    3    0  502 -0.15441170857E+03 -0.41846676619E+02  0.67349537378E+02  0.17358018399E+03  0.00000000000E+00 0.  1.
         11    1    5    5    0    0  0.11759609948E+03  0.31405714017E+03  0.47973301106E+03  0.58532426210E+03  0.00000000000E+00 0. -1.
        -11    1    5    5    0    0  0.13639300600E+03  0.20178196330E+03  0.26417781433E+03  0.35931731155E+03  0.00000000000E+00 0.  1.
          3    1    6    6  503    0  0.15285967463E+03 -0.25451709824E+03  0.57206726204E+03  0.64451996534E+03  0.00000000000E+00 0. -1.
         -3    1    6    6    0  503  0.10052669455E+02 -0.11429249867E+03  0.16731887855E+03  0.20287789070E+03  0.00000000000E+00 0.  1.
<mgrwt>
<rscale>  0 0.14977573E+04</rscale>
<asrwt>0</asrwt>
<pdfrwt beam="1">  1        2 0.31993142E+00 0.14977573E+04</pdfrwt>
<pdfrwt beam="2">  1       -2 0.41489604E-01 0.14977573E+04</pdfrwt>
<totfact> 0.32105166E+01</totfact>
</mgrwt>
</event>
<event>
12    2  0.3555611E-008  0.1793142E+04  0.7818608E-02  0.8709955E-01
         -2   -1    0    0    0  501 -0.00000000000E+00  0.00000000000E+00  0.45261831811E+03  0.45261831811E+03  0.00000000000E+00 0.  1.
          2   -1    0    0  501    0  0.00000000000E+00 -0.00000000000E+00 -0.17759760553E+04  0.17759760553E+04  0.00000000000E+00 0. -1.
         23    2    1    2    0    0  0.62479950762E+03  0.29017173582E+03 -0.45456979928E+03  0.83040778566E+03  0.91484026335E+02 0.  0.
        254    2    1    2    0    0 -0.62479950762E+03 -0.29017173582E+03 -0.86878793794E+03  0.13981865878E+04  0.85179762393E+03 0.  0.
         23    2    4    4    0    0 -0.75529746459E+03 -0.32301880510E+03 -0.43286198750E+03  0.93306259424E+03  0.91765440466E+02 0.  0.
         23    2    4    4    0    0  0.13049795698E+03  0.32847069287E+02 -0.43592595043E+03  0.46512399354E+03  0.90555222756E+02 0.  0.
          3    1    3    3  502    0  0.49759226205E+03  0.24697977148E+03 -0.40390867662E+03  0.68683279320E+03  0.00000000000E+00 0. -1.
         -3    1    3    3    0  502  0.12720724557E+03  0.43191964334E+02 -0.50661122664E+02  0.14357499246E+03  0.00000000000E+00 0.  1.
         11    1    5    5    0    0 -0.30384995133E+03 -0.12060760254E+03 -0.12296780667E+03  0.34927362939E+03  0.00000000000E+00 0. -1.
        -11    1    5    5    0    0 -0.45144751327E+03 -0.20241120256E+03 -0.30989418083E+03  0.58378896484E+03  0.00000000000E+00 0.  1.
          4    1    6    6  503    0  0.71586795845E+02  0.36190368527E+02 -0.36072935395E+03  0.36954036169E+03  0.00000000000E+00 0. -1.
         -4    1    6    6    0  503  0.58911161130E+02 -0.33432992402E+01 -0.75196596484E+02  0.95583631853E+02  0.00000000000E+00 0.  1.
<mgrwt>
<rscale>  0 0.17931417E+04</rscale>
<asrwt>0</asrwt>
<pdfrwt beam="1">  1        2 0.27322708E+00 0.17931417E+04</pdfrwt>
<pdfrwt beam="2">  1       -2 0.69633588E-01 0.17931417E+04</pdfrwt>
<totfact> 0.15802548E+01</totfact>
</mgrwt>
</event>
<event>
12    2  0.3555611E-008  0.2785453E+04  0.7818608E-02  0.8307799E-01
          2   -1    0    0  501    0  0.00000000000E+00  0.00000000000E+00  0.17692496062E+04  0.17692496062E+04  0.00000000000E+00 0. -1.
         -2   -1    0    0    0  501 -0.00000000000E+00 -0.00000000000E+00 -0.10963333136E+04  0.10963333136E+04  0.00000000000E+00 0.  1.
         23    2    1    2    0    0  0.63646165848E+03 -0.84058806828E+03  0.98227632670E+03  0.14437352764E+04  0.88504366895E+02 0.  0.
        254    2    1    2    0    0 -0.63646165848E+03  0.84058806828E+03 -0.30936003415E+03  0.14218476434E+04  0.90237206689E+03 0.  0.
         23    2    4    4    0    0 -0.53696530008E+03  0.83940173842E+03  0.85272448988E+02  0.10047515273E+04  0.96577580577E+02 0.  0.
         23    2    4    4    0    0 -0.99496358406E+02  0.11863298628E+01 -0.39463248313E+03  0.41709611614E+03  0.91287680641E+02 0.  0.
          1    1    3    3  502    0  0.55955545281E+03 -0.68512497112E+03  0.82535867186E+03  0.12098410921E+04  0.00000000000E+00 0. -1.
         -1    1    3    3    0  502  0.76906205678E+02 -0.15546309716E+03  0.15691765484E+03  0.23389418430E+03  0.00000000000E+00 0.  1.
         11    1    5    5    0    0 -0.14251133338E+03  0.16220301989E+03  0.41188836716E+02  0.21980859872E+03  0.00000000000E+00 0. -1.
        -11    1    5    5    0    0 -0.39445396670E+03  0.67719871853E+03  0.44083612272E+02  0.78494292856E+03  0.00000000000E+00 0.  1.
          3    1    6    6  503    0 -0.80894931721E+02  0.41281896883E+02 -0.26252428045E+03  0.27778981769E+03  0.00000000000E+00 0. -1.
         -3    1    6    6    0  503 -0.18601426685E+02 -0.40095567020E+02 -0.13210820268E+03  0.13930629844E+03  0.00000000000E+00 0.  1.
<mgrwt>
<rscale>  0 0.27854531E+04</rscale>
<asrwt>0</asrwt>
<pdfrwt beam="1">  1        2 0.27219225E+00 0.27854531E+04</pdfrwt>
<pdfrwt beam="2">  1       -2 0.16866666E+00 0.27854531E+04</pdfrwt>
<totfact> 0.17036264E+00</totfact>
</mgrwt>
</event>
<event>
12    2  0.3555611E-008  0.1022458E+04  0.7818608E-02  0.9284251E-01
         -1   -1    0    0    0  501 -0.00000000000E+00  0.00000000000E+00  0.15605373550E+03  0.15605373550E+03  0.00000000000E+00 0.  1.
          1   -1    0    0  501    0  0.00000000000E+00 -0.00000000000E+00 -0.16747750355E+04  0.16747750355E+04  0.00000000000E+00 0. -1.
         23    2    1    2    0    0 -0.19604005210E+01 -0.66150081834E+02 -0.25690471875E+03  0.28103155290E+03  0.92730915622E+02 0.  0.
        254    2    1    2    0    0  0.19604005210E+01  0.66150081834E+02 -0.12618165812E+04  0.15497972181E+04  0.89739102736E+03 0.  0.
         23    2    4    4    0    0 -0.10956987806E+03 -0.92439546118E+02  0.82168252986E+02  0.18879460276E+03  0.91329909501E+02 0.  0.
         23    2    4    4    0    0  0.11153027858E+03  0.15858962795E+03 -0.13439848342E+04  0.13610026153E+04  0.91886947633E+02 0.  0.
          2    1    3    3  502    0  0.19442154773E+02 -0.74576218411E+02 -0.24111378725E+03  0.25313132587E+03  0.00000000000E+00 0. -1.
         -2    1    3    3    0  502 -0.21402555294E+02  0.84261365771E+01 -0.15790931504E+02  0.27900227033E+02  0.00000000000E+00 0.  1.
         11    1    5    5    0    0 -0.23403888167E+02  0.14102098062E+02  0.33846561846E+02  0.43499435626E+02  0.00000000000E+00 0. -1.
        -11    1    5    5    0    0 -0.86165989890E+02 -0.10654164418E+03  0.48321691141E+02  0.14529516714E+03  0.00000000000E+00 0.  1.
          2    1    6    6  503    0  0.15255067232E+02  0.49846807155E+02 -0.16330306725E+03  0.17142144858E+03  0.00000000000E+00 0.  1.
         -2    1    6    6    0  503  0.96275211346E+02  0.10874282080E+03 -0.11806817670E+04  0.11895811667E+04  0.00000000000E+00 0. -1.
<mgrwt>
<rscale>  0 0.10224576E+04</rscale>
<asrwt>0</asrwt>
<pdfrwt beam="1">  1        1 0.25765771E+00 0.10224576E+04</pdfrwt>
<pdfrwt beam="2">  1       -1 0.24008266E-01 0.10224576E+04</pdfrwt>
<totfact> 0.74625077E+01</totfact>
</mgrwt>
</event>
<event>
12    2  0.3555611E-008  0.1440891E+04  0.7818608E-02  0.8924740E-01
         -2   -1    0    0    0  501 -0.00000000000E+00  0.00000000000E+00  0.67178593992E+03  0.67178593992E+03  0.00000000000E+00 0.  1.
          2   -1    0    0  501    0  0.00000000000E+00 -0.00000000000E+00 -0.77262979360E+03  0.77262979360E+03  0.00000000000E+00 0. -1.
         23    2    1    2    0    0 -0.14203906261E+03  0.34741056821E+03 -0.25953073551E+03  0.46491058660E+03  0.88974449426E+02 0.  0.
        254    2    1    2    0    0  0.14203906261E+03 -0.34741056821E+03  0.15868688184E+03  0.97950514692E+03  0.89071859089E+03 0.  0.
         23    2    4    4    0    0 -0.14894496519E+03 -0.16195315690E+03 -0.30953129575E+03  0.39065513862E+03  0.91588135693E+02 0.  0.
         23    2    4    4    0    0  0.29098402780E+03 -0.18545741130E+03  0.46821817759E+03  0.58885000830E+03  0.91923417064E+02 0.  0.
          2    1    3    3  502    0 -0.75287314735E+02  0.24057381601E+03 -0.21494286479E+03  0.33127688696E+03  0.00000000000E+00 0. -1.
         -2    1    3    3    0  502 -0.66751747879E+02  0.10683675220E+03 -0.44587870721E+02  0.13363369964E+03  0.00000000000E+00 0.  1.
         11    1    5    5    0    0 -0.77907496833E+02 -0.23610532222E+02 -0.12708586032E+03  0.15092332884E+03  0.00000000000E+00 0. -1.
        -11    1    5    5    0    0 -0.71037468355E+02 -0.13834262468E+03 -0.18244543543E+03  0.23973180979E+03  0.00000000000E+00 0.  1.
          3    1    6    6  503    0  0.26557682837E+03 -0.18538108462E+03  0.39189057110E+03  0.50840477773E+03  0.00000000000E+00 0. -1.
         -3    1    6    6    0  503  0.25407199433E+02 -0.76326683283E-01  0.76327606492E+02  0.80445230571E+02  0.00000000000E+00 0.  1.
<mgrwt>
<rscale>  0 0.14408912E+04</rscale>
<asrwt>0</asrwt>
<pdfrwt beam="1">  1        2 0.11886612E+00 0.14408912E+04</pdfrwt>
<pdfrwt beam="2">  1       -2 0.10335168E+00 0.14408912E+04</pdfrwt>
<totfact> 0.26731187E+01</totfact>
</mgrwt>
</event>
<event>
12    2  0.3555611E-008  0.1824845E+04  0.7818608E-02  0.8693198E-01
          2   -1    0    0  501    0  0.00000000000E+00  0.00000000000E+00  0.30434833563E+04  0.30434833563E+04  0.00000000000E+00 0. -1.
         -2   -1    0    0    0  501 -0.00000000000E+00 -0.00000000000E+00 -0.27354000094E+03  0.27354000094E+03  0.00000000000E+00 0.  1.
         23    2    1    2    0    0 -0.16478107794E+03  0.57982155841E+03  0.46528447988E+03  0.76741763349E+03  0.95364216190E+02 0.  0.
        254    2    1    2    0    0  0.16478107794E+03 -0.57982155841E+03  0.23046588755E+04  0.25496057237E+04  0.90867539365E+03 0.  0.
         23    2    4    4    0    0 -0.26701557781E+03 -0.10853937861E+03  0.14340251624E+04  0.14654759394E+04  0.90074674327E+02 0.  0.
         23    2    4    4    0    0  0.43179665575E+03 -0.47128217980E+03  0.87063371304E+03  0.10841297844E+04  0.93696756181E+02 0.  0.
          4    1    3    3  502    0 -0.14294929745E+03  0.56074633536E+03  0.45668318708E+03  0.73717737867E+03  0.00000000000E+00 0.  1.
         -4    1    3    3    0  502 -0.21831780490E+02  0.19075223054E+02  0.86012928006E+01  0.30240254823E+02  0.00000000000E+00 0. -1.
         11    1    5    5    0    0 -0.37111874548E+02 -0.37818347779E+02  0.41914203623E+03  0.42247788723E+03  0.00000000000E+00 0. -1.
        -11    1    5    5    0    0 -0.22990370326E+03 -0.70721030830E+02  0.10148831262E+04  0.10429980522E+04  0.00000000000E+00 0.  1.
          3    1    6    6  503    0  0.75697861669E+02 -0.37578106234E+02  0.10246358080E+03  0.13281967369E+03  0.00000000000E+00 0. -1.
         -3    1    6    6    0  503  0.35609879408E+03 -0.43370407357E+03  0.76817013224E+03  0.95131011066E+03  0.00000000000E+00 0.  1.
<mgrwt>
<rscale>  0 0.18248446E+04</rscale>
<asrwt>0</asrwt>
<pdfrwt beam="1">  1        2 0.46822819E+00 0.18248446E+04</pdfrwt>
<pdfrwt beam="2">  1       -2 0.42083079E-01 0.18248446E+04</pdfrwt>
<totfact> 0.82750904E+00</totfact>
</mgrwt>
</event>
<event>
12    2  0.3555611E-008  0.1842906E+04  0.7818608E-02  0.8683810E-01
          1   -1    0    0  501    0  0.00000000000E+00  0.00000000000E+00  0.10050555782E+04  0.10050555782E+04  0.00000000000E+00 0. -1.
         -1   -1    0    0    0  501 -0.00000000000E+00 -0.00000000000E+00 -0.84480467995E+03  0.84480467995E+03  0.00000000000E+00 0.  1.
         23    2    1    2    0    0  0.35350722907E+02 -0.33715292918E+03  0.67372336227E+03  0.75996862441E+03  0.93420393703E+02 0.  0.
        254    2    1    2    0    0 -0.35350722907E+02  0.33715292918E+03 -0.51347246405E+03  0.10898916337E+04  0.89960437451E+03 0.  0.
         23    2    4    4    0    0  0.15614748920E+03  0.48629873072E+03 -0.62107959095E+03  0.80920885150E+03  0.90612433793E+02 0.  0.
         23    2    4    4    0    0 -0.19149821211E+03 -0.14914580154E+03  0.10760712690E+03  0.28068278222E+03  0.91035680444E+02 0.  0.
          2    1    3    3  502    0  0.47161441022E+02 -0.32634842672E+03  0.60108901473E+03  0.68559135115E+03  0.00000000000E+00 0. -1.
         -2    1    3    3    0  502 -0.11810718115E+02 -0.10804502462E+02  0.72634347535E+02  0.74377273260E+02  0.00000000000E+00 0.  1.
         11    1    5    5    0    0  0.13680805256E+03  0.34447216810E+03 -0.49552475141E+03  0.61880715663E+03  0.00000000000E+00 0.  1.
        -11    1    5    5    0    0  0.19339436639E+02  0.14182656262E+03 -0.12555483955E+03  0.19040169486E+03  0.00000000000E+00 0. -1.
          1    1    6    6  503    0 -0.13343274939E+03 -0.11972232946E+03  0.34079228279E+02  0.18248048822E+03  0.00000000000E+00 0. -1.
         -1    1    6    6    0  503 -0.58065462720E+02 -0.29423472082E+02  0.73527898622E+02  0.98202293996E+02  0.00000000000E+00 0.  1.
<mgrwt>
<rscale>  0 0.18429060E+04</rscale>
<asrwt>0</asrwt>
<pdfrwt beam="1">  1        1 0.15462394E+00 0.18429060E+04</pdfrwt>
<pdfrwt beam="2">  1       -1 0.12996995E+00 0.18429060E+04</pdfrwt>
<totfact> 0.71542471E+00</totfact>
</mgrwt>
</event>
<event>
12    2  0.3555611E-008  0.1696472E+04  0.7818608E-02  0.8763379E-01
         -1   -1    0    0    0  501 -0.00000000000E+00  0.00000000000E+00  0.15865778204E+04  0.15865778204E+04  0.00000000000E+00 0.  1.
          1   -1    0    0  501    0  0.00000000000E+00 -0.00000000000E+00 -0.45349463592E+03  0.45349463592E+03  0.00000000000E+00 0. -1.
         23    2    1    2    0    0  0.48342142018E+03 -0.12277192716E+03  0.82053717067E+03  0.96555003552E+03  0.10117513067E+03 0.  0.
        254    2    1    2    0    0 -0.48342142018E+03  0.12277192716E+03  0.31254601377E+03  0.10745224207E+04  0.89896841234E+03 0.  0.
         23    2    4    4    0    0 -0.22104313949E+03  0.45664221497E+03  0.37261742184E+03  0.63590195660E+03  0.90251722070E+02 0.  0.
         23    2    4    4    0    0 -0.26237828068E+03 -0.33387028782E+03 -0.60071408071E+02  0.43862046415E+03  0.92019597046E+02 0.  0.
          1    1    3    3  502    0  0.31038213637E+03 -0.72197729429E+02  0.61119284368E+03  0.68927953319E+03  0.00000000000E+00 0. -1.
         -1    1    3    3    0  502  0.17303928381E+03 -0.50574197730E+02  0.20934432699E+03  0.27627050234E+03  0.00000000000E+00 0.  1.
         11    1    5    5    0    0 -0.10753172047E+03  0.24710387789E+03  0.25135882503E+03  0.36851683312E+03  0.00000000000E+00 0.  1.
        -11    1    5    5    0    0 -0.11351141903E+03  0.20953833708E+03  0.12125859681E+03  0.26738512348E+03  0.00000000000E+00 0. -1.
          4    1    6    6  503    0  0.40733593652E+01  0.22003265062E+01  0.23959810676E+01  0.52129088356E+01  0.00000000000E+00 0.  1.
         -4    1    6    6    0  503 -0.26645164005E+03 -0.33607061432E+03 -0.62467389139E+02  0.43340755531E+03  0.00000000000E+00 0. -1.
<mgrwt>
<rscale>  0 0.16964723E+04</rscale>
<asrwt>0</asrwt>
<pdfrwt beam="1">  1        1 0.69768406E-01 0.16964723E+04</pdfrwt>
<pdfrwt beam="2">  1       -1 0.24408889E+00 0.16964723E+04</pdfrwt>
<totfact> 0.36764603E+00</totfact>
</mgrwt>
</event>
<event>
12    2  0.3555611E-008  0.1907481E+04  0.7818608E-02  0.8651142E-01
         -1   -1    0    0    0  501 -0.00000000000E+00  0.00000000000E+00  0.75735147738E+03  0.75735147738E+03  0.00000000000E+00 0.  1.
          1   -1    0    0  501    0  0.00000000000E+00 -0.00000000000E+00 -0.12010548249E+04  0.12010548249E+04  0.00000000000E+00 0. -1.
         23    2    1    2    0    0  0.43650326161E+03 -0.21139162157E+03 -0.73708813235E+03  0.88694245029E+03  0.90257853952E+02 0.  0.
        254    2    1    2    0    0 -0.43650326161E+03  0.21139162157E+03  0.29338478485E+03  0.10714638520E+04  0.90925169181E+03 0.  0.
         23    2    4    4    0    0 -0.37246155007E+03 -0.15085991461E+03  0.49358002925E+03  0.64273691882E+03  0.89460502057E+02 0.  0.
         23    2    4    4    0    0 -0.64041711536E+02  0.36225153618E+03 -0.20019524440E+03  0.42872693316E+03  0.91657684115E+02 0.  0.
          4    1    3    3  502    0  0.22824147004E+03 -0.61359290736E+02 -0.36886287265E+03  0.43808555103E+03  0.00000000000E+00 0. -1.
         -4    1    3    3    0  502  0.20826179157E+03 -0.15003233084E+03 -0.36822525971E+03  0.44885689926E+03  0.00000000000E+00 0.  1.
         11    1    5    5    0    0 -0.17380537111E+03 -0.78100798729E+02  0.30333159642E+03  0.35821515766E+03  0.00000000000E+00 0. -1.
        -11    1    5    5    0    0 -0.19865617896E+03 -0.72759115878E+02  0.19024843283E+03  0.28452176116E+03  0.00000000000E+00 0.  1.
          4    1    6    6  503    0 -0.67031005568E+02  0.25778508090E+03 -0.18211781161E+03  0.32266577281E+03  0.00000000000E+00 0. -1.
         -4    1    6    6    0  503  0.29892940323E+01  0.10446645528E+03 -0.18077432792E+02  0.10606116035E+03  0.00000000000E+00 0.  1.
<mgrwt>
<rscale>  0 0.19074807E+04</rscale>
<asrwt>0</asrwt>
<pdfrwt beam="1">  1        1 0.18477766E+00 0.19074807E+04</pdfrwt>
<pdfrwt beam="2">  1       -1 0.11651561E+00 0.19074807E+04</pdfrwt>
<totfact> 0.66340670E+00</totfact>
</mgrwt>
</event>
<event>
12    2  0.3555611E-008  0.2307329E+04  0.7818608E-02  0.8475037E-01
         -1   -1    0    0    0  501 -0.00000000000E+00  0.00000000000E+00  0.58012315788E+03  0.58012315788E+03  0.00000000000E+00 0.  1.
          1   -1    0    0  501    0  0.00000000000E+00 -0.00000000000E+00 -0.22942410001E+04  0.22942410001E+04  0.00000000000E+00 0. -1.
         23    2    1    2    0    0  0.10822750105E+03 -0.79274346081E+03 -0.14408029520E+04  0.16508200852E+04  0.95595087447E+02 0.  0.
        254    2    1    2    0    0 -0.10822750105E+03  0.79274346081E+03 -0.27331489023E+03  0.12235440727E+04  0.88442279599E+03 0.  0.
         23    2    4    4    0    0  0.27471335465E+03  0.19708277322E+03  0.16300415425E+03  0.38633136717E+03  0.91501498524E+02 0.  0.
         23    2    4    4    0    0 -0.38294085570E+03  0.59566068759E+03 -0.43631904447E+03  0.83721270557E+03  0.95370079622E+02 0.  0.
          2    1    3    3  502    0  0.11851761046E+03 -0.77900251085E+03 -0.14186561692E+04  0.16227990210E+04  0.00000000000E+00 0. -1.
         -2    1    3    3    0  502 -0.10290109411E+02 -0.13740949958E+02 -0.22146782732E+02  0.28021064270E+02  0.00000000000E+00 0.  1.
         11    1    5    5    0    0  0.26551146691E+03  0.15910207558E+03  0.15603134773E+03  0.34663466501E+03  0.00000000000E+00 0. -1.
        -11    1    5    5    0    0  0.92018877411E+01  0.37980697640E+02  0.69728065181E+01  0.39696702155E+02  0.00000000000E+00 0.  1.
          2    1    6    6  503    0 -0.24039225382E+03  0.36931130066E+03 -0.21642957731E+03  0.49093893147E+03  0.00000000000E+00 0. -1.
         -2    1    6    6    0  503 -0.14254860188E+03  0.22634938693E+03 -0.21988946717E+03  0.34627377410E+03  0.00000000000E+00 0.  1.
<mgrwt>
<rscale>  0 0.23073295E+04</rscale>
<asrwt>0</asrwt>
<pdfrwt beam="1">  1        1 0.35296015E+00 0.23073295E+04</pdfrwt>
<pdfrwt beam="2">  1       -1 0.89249718E-01 0.23073295E+04</pdfrwt>
<totfact> 0.20871476E+00</totfact>
</mgrwt>
</event>
<event>
12    2  0.3555611E-008  0.1529701E+04  0.7818608E-02  0.8864939E-01
         -3   -1    0    0    0  501 -0.00000000000E+00  0.00000000000E+00  0.55678246036E+03  0.55678246036E+03  0.00000000000E+00 0.  1.
          3   -1    0    0  501    0  0.00000000000E+00 -0.00000000000E+00 -0.10506733279E+04  0.10506733279E+04  0.00000000000E+00 0. -1.
         23    2    1    2    0    0  0.12602008510E+03  0.46450543583E+03 -0.27010329686E+03  0.56245653058E+03  0.10842138189E+03 0.  0.
        254    2    1    2    0    0 -0.12602008510E+03 -0.46450543583E+03 -0.22378757070E+03  0.10449992577E+04  0.90016454607E+03 0.  0.
         23    2    4    4    0    0  0.35587426636E+03 -0.36410921803E+03 -0.13768366002E+03  0.53709279519E+03  0.10143896837E+03 0.  0.
         23    2    4    4    0    0 -0.48189435146E+03 -0.10039621781E+03 -0.86103910680E+02  0.50790646250E+03  0.90848911368E+02 0.  0.
          3    1    3    3  502    0  0.28284784024E+02  0.19263952522E+03 -0.16439344320E+03  0.25482389968E+03  0.00000000000E+00 0. -1.
         -3    1    3    3    0  502  0.97735301080E+02  0.27186591061E+03 -0.10570985367E+03  0.30763263090E+03  0.00000000000E+00 0.  1.
         11    1    5    5    0    0  0.34063080590E+03 -0.31192140727E+03 -0.14015759895E+03  0.48266806688E+03  0.00000000000E+00 0. -1.
        -11    1    5    5    0    0  0.15243460459E+02 -0.52187810752E+02  0.24739389344E+01  0.54424728311E+02  0.00000000000E+00 0.  1.
          4    1    6    6  503    0 -0.35695689350E+03 -0.62229292199E+02 -0.23659621495E+02  0.36311222275E+03  0.00000000000E+00 0. -1.
         -4    1    6    6    0  503 -0.12493745796E+03 -0.38166925606E+02 -0.62444289184E+02  0.14479423975E+03  0.00000000000E+00 0.  1.
<mgrwt>
<rscale>  0 0.15297013E+04</rscale>
<asrwt>0</asrwt>
<pdfrwt beam="1">  1        3 0.16164205E+00 0.15297013E+04</pdfrwt>
<pdfrwt beam="2">  1       -3 0.85658840E-01 0.15297013E+04</pdfrwt>
<totfact> 0.83739214E-01</totfact>
</mgrwt>
</event>
<event>
12    2  0.3555611E-008  0.1445099E+04  0.7818608E-02  0.8921805E-01
          2   -1    0    0  501    0  0.00000000000E+00  0.00000000000E+00  0.15154288618E+04  0.15154288618E+04  0.00000000000E+00 0.  1.
         -2   -1    0    0    0  501 -0.00000000000E+00 -0.00000000000E+00 -0.34450843970E+03  0.34450843970E+03  0.00000000000E+00 0. -1.
         23    2    1    2    0    0  0.27275256939E+03  0.27857848764E+03  0.34574543666E+03  0.52903625332E+03  0.91320931197E+02 0.  0.
        254    2    1    2    0    0 -0.27275256939E+03 -0.27857848764E+03  0.82517498546E+03  0.13309010482E+04  0.96870217589E+03 0.  0.
         23    2    4    4    0    0 -0.41708153927E+03 -0.54469152854E+03  0.39396396560E+03  0.79626271250E+03  0.90447937893E+02 0.  0.
         23    2    4    4    0    0  0.14432896989E+03  0.26611304090E+03  0.43121101987E+03  0.53463833569E+03  0.90819624824E+02 0.  0.
          1    1    3    3  502    0  0.38078936749E+02  0.17233473722E+02  0.96529456468E+01  0.42897288960E+02  0.00000000000E+00 0. -1.
         -1    1    3    3    0  502  0.23467363264E+03  0.26134501392E+03  0.33609249101E+03  0.48613896436E+03  0.00000000000E+00 0.  1.
         11    1    5    5    0    0 -0.59300348425E+01 -0.42580822014E+02  0.25630220055E+02  0.50051971956E+02  0.00000000000E+00 0. -1.
        -11    1    5    5    0    0 -0.41115150443E+03 -0.50211070652E+03  0.36833374554E+03  0.74621074055E+03  0.00000000000E+00 0.  1.
          1    1    6    6  503    0  0.73433277212E+02  0.88298099948E+02  0.10092613415E+03  0.15288912718E+03  0.00000000000E+00 0. -1.
         -1    1    6    6    0  503  0.70895692675E+02  0.17781494095E+03  0.33028488571E+03  0.38174920851E+03  0.00000000000E+00 0.  1.
<mgrwt>
<rscale>  0 0.14450993E+04</rscale>
<asrwt>0</asrwt>
<pdfrwt beam="1">  1        2 0.23314290E+00 0.14450993E+04</pdfrwt>
<pdfrwt beam="2">  1       -2 0.53001299E-01 0.14450993E+04</pdfrwt>
<totfact> 0.40512124E+01</totfact>
</mgrwt>
</event>
<event>
12    2  0.3555611E-008  0.2769590E+04  0.7818608E-02  0.8312772E-01
         -1   -1    0    0    0  501 -0.00000000000E+00  0.00000000000E+00  0.13056969259E+04  0.13056969259E+04  0.00000000000E+00 0.  1.
          1   -1    0    0  501    0  0.00000000000E+00 -0.00000000000E+00 -0.14686850251E+04  0.14686850251E+04  0.00000000000E+00 0. -1.
         23    2    1    2    0    0  0.10049784402E+04 -0.43431956377E+03 -0.65969361288E+03  0.12817320232E+04  0.95006145132E+02 0.  0.
        254    2    1    2    0    0 -0.10049784402E+04  0.43431956377E+03  0.49670551367E+03  0.14926499279E+04  0.88468768000E+03 0.  0.
         23    2    4    4    0    0 -0.15607586593E+03 -0.25436989951E+03  0.97995012472E+02  0.32562943683E+03  0.85835808146E+02 0.  0.
         23    2    4    4    0    0 -0.84890257424E+03  0.68868946328E+03  0.39871050120E+03  0.11670204910E+04  0.89654923538E+02 0.  0.
          1    1    3    3  502    0  0.36077976934E+03 -0.18232856839E+03 -0.19840362584E+03  0.45029961977E+03  0.00000000000E+00 0. -1.
         -1    1    3    3    0  502  0.64419867083E+03 -0.25199099539E+03 -0.46128998704E+03  0.83143240338E+03  0.00000000000E+00 0.  1.
         11    1    5    5    0    0  0.54278577327E+00 -0.21324620475E+02  0.29860587467E+02  0.36697257918E+02  0.00000000000E+00 0.  1.
        -11    1    5    5    0    0 -0.15661865170E+03 -0.23304527903E+03  0.68134425005E+02  0.28893217891E+03  0.00000000000E+00 0. -1.
          4    1    6    6  503    0 -0.25788721252E+03  0.18418938794E+03  0.15396487408E+03  0.35233042369E+03  0.00000000000E+00 0. -1.
         -4    1    6    6    0  503 -0.59101536172E+03  0.50450007535E+03  0.24474562712E+03  0.81469006733E+03  0.00000000000E+00 0.  1.
<mgrwt>
<rscale>  0 0.27695902E+04</rscale>
<asrwt>0</asrwt>
<pdfrwt beam="1">  1        1 0.22595154E+00 0.27695902E+04</pdfrwt>
<pdfrwt beam="2">  1       -1 0.20087645E+00 0.27695902E+04</pdfrwt>
<totfact> 0.88611620E-01</totfact>
</mgrwt>
</event>
<event>
12    2  0.3555611E-008  0.5017126E+04  0.7818608E-02  0.7825871E-01
          2   -1    0    0  501    0  0.00000000000E+00  0.00000000000E+00  0.41401023853E+04  0.41401023853E+04  0.00000000000E+00 0. -1.
         -2   -1    0    0    0  501 -0.00000000000E+00 -0.00000000000E+00 -0.15199839111E+04  0.15199839111E+04  0.00000000000E+00 0.  1.
         23    2    1    2    0    0  0.82876461779E+03 -0.96584997584E+03  0.35930046185E+04  0.38128676854E+04  0.92524752196E+02 0.  0.
        254    2    1    2    0    0 -0.82876461779E+03  0.96584997584E+03 -0.97288614435E+03  0.18472186110E+04  0.91977833158E+03 0.  0.
         23    2    4    4    0    0  0.14038430811E+03  0.22749461617E+03  0.43215082431E+01  0.28269257192E+03  0.91841496259E+02 0.  0.
         23    2    4    4    0    0 -0.96914892590E+03  0.73835535966E+03 -0.97720765260E+03  0.15645260390E+04  0.91589588822E+02 0.  0.
          4    1    3    3  502    0  0.78466570646E+03 -0.92484600983E+03  0.33598581332E+04  0.35720704203E+04  0.00000000000E+00 0. -1.
         -4    1    3    3    0  502  0.44098911329E+02 -0.41003966002E+02  0.23314648537E+03  0.24079726503E+03  0.00000000000E+00 0.  1.
         11    1    5    5    0    0  0.24549521223E+02  0.88432450431E+02  0.36682345994E+02  0.98836085461E+02  0.00000000000E+00 0. -1.
        -11    1    5    5    0    0  0.11583478689E+03  0.13906216574E+03 -0.32360837750E+02  0.18385648646E+03  0.00000000000E+00 0.  1.
          2    1    6    6  503    0 -0.44969064631E+03  0.34687812971E+03 -0.39735074314E+03  0.69313326808E+03  0.00000000000E+00 0. -1.
         -2    1    6    6    0  503 -0.51945827959E+03  0.39147722995E+03 -0.57985690946E+03  0.87139277094E+03  0.00000000000E+00 0.  1.
<mgrwt>
<rscale>  0 0.50171263E+04</rscale>
<asrwt>0</asrwt>
<pdfrwt beam="1">  1        2 0.63693882E+00 0.50171263E+04</pdfrwt>
<pdfrwt beam="2">  1       -2 0.23384368E+00 0.50171263E+04</pdfrwt>
<totfact> 0.15307815E-02</totfact>
</mgrwt>
</event>
<event>
12    2  0.3555611E-008  0.1765989E+04  0.7818608E-02  0.8724598E-01
          1   -1    0    0  501    0  0.00000000000E+00  0.00000000000E+00  0.17607896400E+04  0.17607896400E+04  0.00000000000E+00 0. -1.
         -1   -1    0    0    0  501 -0.00000000000E+00 -0.00000000000E+00 -0.44280112497E+03  0.44280112497E+03  0.00000000000E+00 0.  1.
         23    2    1    2    0    0 -0.27851077834E+03 -0.10855083831E+03  0.12133773187E+04  0.12524975063E+04  0.84344219853E+02 0.  0.
        254    2    1    2    0    0  0.27851077834E+03  0.10855083831E+03  0.10461119630E+03  0.95109325871E+03  0.89681845779E+03 0.  0.
         23    2    4    4    0    0 -0.21520141928E+03  0.29273101499E+03 -0.78832162556E+02  0.38544158109E+03  0.10172317624E+03 0.  0.
         23    2    4    4    0    0  0.49371219763E+03 -0.18418017667E+03  0.18344335885E+03  0.56565167762E+03  0.92931603472E+02 0.  0.
          1    1    3    3  502    0 -0.14215192206E+03 -0.97279575890E+02  0.61420101052E+03  0.63789761416E+03  0.00000000000E+00 0. -1.
         -1    1    3    3    0  502 -0.13635885628E+03 -0.11271262424E+02  0.59917630823E+03  0.61459989211E+03  0.00000000000E+00 0.  1.
         11    1    5    5    0    0 -0.11846038265E+03  0.86942628987E+02 -0.75423404938E+01  0.14713520956E+03  0.00000000000E+00 0.  1.
        -11    1    5    5    0    0 -0.96741036630E+02  0.20578838600E+03 -0.71289822062E+02  0.23830637153E+03  0.00000000000E+00 0. -1.
          4    1    6    6  503    0  0.32810531559E+02 -0.40701253288E+02  0.20900797901E+02  0.56302454238E+02  0.00000000000E+00 0. -1.
         -4    1    6    6    0  503  0.46090166607E+03 -0.14347892338E+03  0.16254256095E+03  0.50934922338E+03  0.00000000000E+00 0.  1.
<mgrwt>
<rscale>  0 0.17659894E+04</rscale>
<asrwt>0</asrwt>
<pdfrwt beam="1">  1        1 0.27089071E+00 0.17659894E+04</pdfrwt>
<pdfrwt beam="2">  1       -1 0.68123251E-01 0.17659894E+04</pdfrwt>
<totfact> 0.89430439E+00</totfact>
</mgrwt>
</event>
<event>
12    2  0.3555611E-008  0.1029964E+04  0.7818608E-02  0.9276278E-01
          1   -1    0    0  501    0  0.00000000000E+00  0.00000000000E+00  0.35947983617E+03  0.35947983617E+03  0.00000000000E+00 0. -1.
         -1   -1    0    0    0  501 -0.00000000000E+00 -0.00000000000E+00 -0.73775047310E+03  0.73775047310E+03  0.00000000000E+00 0.  1.
         23    2    1    2    0    0  0.86372980152E+02 -0.98871120984E+01  0.16665170477E+02  0.12792692000E+03  0.92355412772E+02 0.  0.
        254    2    1    2    0    0 -0.86372980152E+02  0.98871120984E+01 -0.39493580741E+03  0.96930338927E+03  0.88091811299E+03 0.  0.
         23    2    4    4    0    0 -0.47517365913E+02  0.43428277909E+03 -0.20676273440E+03  0.49285565051E+03  0.96418004719E+02 0.  0.
         23    2    4    4    0    0 -0.38855614239E+02 -0.42439566699E+03 -0.18817307301E+03  0.47644773876E+03  0.99859408388E+02 0.  0.
          4    1    3    3  502    0  0.79136879293E+02 -0.13903452641E+02  0.49294064953E+02  0.94264821111E+02  0.00000000000E+00 0. -1.
         -4    1    3    3    0  502  0.72361008589E+01  0.40163405429E+01 -0.32628894476E+02  0.33662098891E+02  0.00000000000E+00 0.  1.
         11    1    5    5    0    0 -0.56405764070E+02  0.16204609896E+03 -0.50621636196E+02  0.17889409845E+03  0.00000000000E+00 0.  1.
        -11    1    5    5    0    0  0.88883981578E+01  0.27223668013E+03 -0.15614109820E+03  0.31396155207E+03  0.00000000000E+00 0. -1.
          2    1    6    6  503    0  0.51164066399E+01 -0.12851625992E+03 -0.11715798740E+02  0.12915055796E+03  0.00000000000E+00 0. -1.
         -2    1    6    6    0  503 -0.43972020879E+02 -0.29587940707E+03 -0.17645727427E+03  0.34729718080E+03  0.00000000000E+00 0.  1.
<mgrwt>
<rscale>  0 0.10299639E+04</rscale>
<asrwt>0</asrwt>
<pdfrwt beam="1">  1        1 0.55304590E-01 0.10299639E+04</pdfrwt>
<pdfrwt beam="2">  1       -1 0.11350007E+00 0.10299639E+04</pdfrwt>
<totfact> 0.49037796E+01</totfact>
</mgrwt>
</event>
<event>
12    2  0.3555611E-008  0.2078147E+04  0.7818608E-02  0.8570932E-01
         -1   -1    0    0    0  501 -0.00000000000E+00  0.00000000000E+00  0.12693063770E+04  0.12693063770E+04  0.00000000000E+00 0.  1.
          1   -1    0    0  501    0  0.00000000000E+00 -0.00000000000E+00 -0.85060098742E+03  0.85060098742E+03  0.00000000000E+00 0. -1.
         23    2    1    2    0    0  0.23270025687E+03  0.73266987568E+03 -0.17821536623E+03  0.79432719931E+03  0.90776795079E+02 0.  0.
        254    2    1    2    0    0 -0.23270025687E+03 -0.73266987568E+03  0.59692075579E+03  0.13255801651E+04  0.89994101424E+03 0.  0.
         23    2    4    4    0    0 -0.34172790387E+03  0.72528555156E+02  0.12852422791E+03  0.38334837884E+03  0.91646881006E+02 0.  0.
         23    2    4    4    0    0  0.10902764701E+03 -0.80519843083E+03  0.46839652788E+03  0.94223178625E+03  0.90409572819E+02 0.  0.
          2    1    3    3  502    0  0.16104879533E+03  0.59084905792E+03 -0.16837504224E+03  0.63512949748E+03  0.00000000000E+00 0. -1.
         -2    1    3    3    0  502  0.71651461537E+02  0.14182081776E+03 -0.98403239915E+01  0.15919770182E+03  0.00000000000E+00 0.  1.
         11    1    5    5    0    0 -0.18273428694E+03  0.46874816548E+01  0.99327072238E+02  0.20803763935E+03  0.00000000000E+00 0. -1.
        -11    1    5    5    0    0 -0.15899361694E+03  0.67841073501E+02  0.29197155672E+02  0.17531073949E+03  0.00000000000E+00 0.  1.
          1    1    6    6  503    0  0.48972657192E+02 -0.17588920592E+03  0.73240473375E+02  0.19672188706E+03  0.00000000000E+00 0. -1.
         -1    1    6    6    0  503  0.60054989816E+02 -0.62930922492E+03  0.39515605450E+03  0.74550989918E+03  0.00000000000E+00 0.  1.
<mgrwt>
<rscale>  0 0.20781465E+04</rscale>
<asrwt>0</asrwt>
<pdfrwt beam="1">  1        1 0.13086169E+00 0.20781465E+04</pdfrwt>
<pdfrwt beam="2">  1       -1 0.19527790E+00 0.20781465E+04</pdfrwt>
<totfact> 0.29912195E+00</totfact>
</mgrwt>
</event>
<event>
12    2  0.3555611E-008  0.1483252E+04  0.7818608E-02  0.8895667E-01
          1   -1    0    0  501    0  0.00000000000E+00  0.00000000000E+00  0.54832395720E+03  0.54832395720E+03  0.00000000000E+00 0. -1.
         -1   -1    0    0    0  501 -0.00000000000E+00 -0.00000000000E+00 -0.10030729946E+04  0.10030729946E+04  0.00000000000E+00 0.  1.
         23    2    1    2    0    0  0.83680403372E+02 -0.27302151606E+03 -0.53297808933E+03  0.61162520814E+03  0.92068416872E+02 0.  0.
        254    2    1    2    0    0 -0.83680403372E+02  0.27302151606E+03  0.78229051909E+02  0.93977174369E+03  0.89191254478E+03 0.  0.
         23    2    4    4    0    0 -0.30402148394E+03 -0.13244885160E+03 -0.19455820851E+03  0.39506282996E+03  0.90829412242E+02 0.  0.
         23    2    4    4    0    0  0.22034108057E+03  0.40547036765E+03  0.27278726042E+03  0.54470891372E+03  0.96635916763E+02 0.  0.
          2    1    3    3  502    0  0.21787534788E+02 -0.19349059100E+03 -0.29830949218E+03  0.35623287131E+03  0.00000000000E+00 0.  1.
         -2    1    3    3    0  502  0.61892868583E+02 -0.79530925060E+02 -0.23466859715E+03  0.25539233683E+03  0.00000000000E+00 0. -1.
         11    1    5    5    0    0 -0.25750182480E+03 -0.10008743265E+03 -0.19540129882E+03  0.33838787143E+03  0.00000000000E+00 0. -1.
        -11    1    5    5    0    0 -0.46519659144E+02 -0.32361418952E+02  0.84309030753E+00  0.56674958533E+02  0.00000000000E+00 0.  1.
          1    1    6    6  503    0  0.20980414760E+03  0.40908503667E+03  0.27021134094E+03  0.53327527258E+03  0.00000000000E+00 0. -1.
         -1    1    6    6    0  503  0.10536932976E+02 -0.36146690148E+01  0.25759194889E+01  0.11433641145E+02  0.00000000000E+00 0.  1.
<mgrwt>
<rscale>  0 0.14832518E+04</rscale>
<asrwt>0</asrwt>
<pdfrwt beam="1">  1        1 0.84357532E-01 0.14832518E+04</pdfrwt>
<pdfrwt beam="2">  1       -1 0.15431892E+00 0.14832518E+04</pdfrwt>
<totfact> 0.12189552E+01</totfact>
</mgrwt>
</event>
<event>
12    2  0.3555611E-008  0.1640047E+04  0.7818608E-02  0.8796317E-01
          2   -1    0    0  501    0  0.00000000000E+00  0.00000000000E+00  0.11707742212E+04  0.11707742212E+04  0.00000000000E+00 0.  1.
         -2   -1    0    0    0  501 -0.00000000000E+00 -0.00000000000E+00 -0.57435354254E+03  0.57435354254E+03  0.00000000000E+00 0. -1.
         23    2    1    2    0    0  0.84877057929E+02  0.12359312530E+01 -0.38912158587E+03  0.40642437427E+03  0.80990869364E+02 0.  0.
        254    2    1    2    0    0 -0.84877057929E+02 -0.12359312530E+01  0.98554226451E+03  0.13387033895E+04  0.90201306384E+03 0.  0.
         23    2    4    4    0    0 -0.36197620772E+03  0.22781756653E+03  0.22911452950E+03  0.49521320492E+03  0.99070843984E+02 0.  0.
         23    2    4    4    0    0  0.27709914979E+03 -0.22905349778E+03  0.75642773501E+03  0.84349018454E+03  0.10021641313E+03 0.  0.
          2    1    3    3  502    0  0.32678442872E+02  0.34906102182E+02 -0.24281009569E+03  0.24747335042E+03  0.00000000000E+00 0. -1.
         -2    1    3    3    0  502  0.52198615057E+02 -0.33670170929E+02 -0.14631149018E+03  0.15895102385E+03  0.00000000000E+00 0.  1.
         11    1    5    5    0    0 -0.15189079764E+03  0.15187687739E+03  0.12761662687E+03  0.24984676053E+03  0.00000000000E+00 0. -1.
        -11    1    5    5    0    0 -0.21008541008E+03  0.75940689135E+02  0.10149790263E+03  0.24536644439E+03  0.00000000000E+00 0.  1.
          2    1    6    6  503    0  0.14650232289E+03 -0.66485811033E+02  0.27081590590E+03  0.31499928344E+03  0.00000000000E+00 0.  1.
         -2    1    6    6    0  503  0.13059682690E+03 -0.16256768675E+03  0.48561182911E+03  0.52849090110E+03  0.00000000000E+00 0. -1.
<mgrwt>
<rscale>  0 0.16400467E+04</rscale>
<asrwt>0</asrwt>
<pdfrwt beam="1">  1        2 0.18011911E+00 0.16400467E+04</pdfrwt>
<pdfrwt beam="2">  1       -2 0.88362084E-01 0.16400467E+04</pdfrwt>
<totfact> 0.20790880E+01</totfact>
</mgrwt>
</event>
<event>
12    2  0.3555611E-008  0.2388028E+04  0.7818608E-02  0.8443999E-01
         -1   -1    0    0    0  501 -0.00000000000E+00  0.00000000000E+00  0.75744534303E+03  0.75744534303E+03  0.00000000000E+00 0.  1.
          1   -1    0    0  501    0  0.00000000000E+00 -0.00000000000E+00 -0.18822072625E+04  0.18822072625E+04  0.00000000000E+00 0. -1.
         23    2    1    2    0    0  0.33520587918E+03  0.27171047429E+03 -0.15045750802E+04  0.15678414026E+04  0.90503748495E+02 0.  0.
        254    2    1    2    0    0 -0.33520587918E+03 -0.27171047429E+03  0.37981316074E+03  0.10718112029E+04  0.90461685499E+03 0.  0.
         23    2    4    4    0    0 -0.48806066199E+03 -0.50422172032E+03  0.23638646345E+03  0.74583851757E+03  0.89183973711E+02 0.  0.
         23    2    4    4    0    0  0.15285478281E+03  0.23251124603E+03  0.14342669729E+03  0.32597268534E+03  0.90889547981E+02 0.  0.
          4    1    3    3  502    0  0.28022409159E+03  0.26434034376E+03 -0.12997065813E+04  0.13555952774E+04  0.00000000000E+00 0. -1.
         -4    1    3    3    0  502  0.54981787587E+02  0.73701305365E+01 -0.20486849897E+03  0.21224612520E+03  0.00000000000E+00 0.  1.
         11    1    5    5    0    0 -0.33602658035E+03 -0.39290567247E+03  0.14838536377E+03  0.53787261163E+03  0.00000000000E+00 0. -1.
        -11    1    5    5    0    0 -0.15203408164E+03 -0.11131604785E+03  0.88001099677E+02  0.20796590594E+03  0.00000000000E+00 0.  1.
          3    1    6    6  503    0  0.89966598035E+02  0.16988709392E+03  0.13878416460E+03  0.23710052253E+03  0.00000000000E+00 0. -1.
         -3    1    6    6    0  503  0.62888184777E+02  0.62624152104E+02  0.46425326957E+01  0.88872162802E+02  0.00000000000E+00 0.  1.
<mgrwt>
<rscale>  0 0.23880277E+04</rscale>
<asrwt>0</asrwt>
<pdfrwt beam="1">  1        1 0.28957034E+00 0.23880277E+04</pdfrwt>
<pdfrwt beam="2">  1       -1 0.11653005E+00 0.23880277E+04</pdfrwt>
<totfact> 0.21363976E+00</totfact>
</mgrwt>
</event>
<event>
12    2  0.3555611E-008  0.1284101E+04  0.7818608E-02  0.9042269E-01
         -2   -1    0    0    0  501 -0.00000000000E+00  0.00000000000E+00  0.15829347150E+03  0.15829347150E+03  0.00000000000E+00 0.  1.
          2   -1    0    0  501    0  0.00000000000E+00 -0.00000000000E+00 -0.26042071774E+04  0.26042071774E+04  0.00000000000E+00 0. -1.
         23    2    1    2    0    0  0.13031519457E+03 -0.13600163837E+03 -0.82176284679E+02  0.22436160536E+03  0.90037173551E+02 0.  0.
        254    2    1    2    0    0 -0.13031519457E+03  0.13600163837E+03 -0.23637374212E+04  0.25381390435E+04  0.90521638972E+03 0.  0.
         23    2    4    4    0    0  0.30537286366E+03  0.19735569713E+03 -0.52853456965E+03  0.64871277511E+03  0.96320383196E+02 0.  0.
         23    2    4    4    0    0 -0.43568805824E+03 -0.61354058763E+02 -0.18352028516E+04  0.18894262684E+04  0.91507992894E+02 0.  0.
          1    1    3    3  502    0  0.58614932399E+02 -0.63212716915E+02 -0.86467851718E+02  0.12209933358E+03  0.00000000000E+00 0. -1.
         -1    1    3    3    0  502  0.71700262173E+02 -0.72788921457E+02  0.42915670391E+01  0.10226227178E+03  0.00000000000E+00 0.  1.
         11    1    5    5    0    0  0.23591992792E+03  0.19399783264E+03 -0.44935593208E+03  0.54333610698E+03  0.00000000000E+00 0. -1.
        -11    1    5    5    0    0  0.69452935742E+02  0.33578644979E+01 -0.79178637571E+02  0.10537666812E+03  0.00000000000E+00 0.  1.
          1    1    6    6  503    0 -0.23681535998E+03 -0.71100734383E+02 -0.90632429727E+03  0.93944694420E+03  0.00000000000E+00 0. -1.
         -1    1    6    6    0  503 -0.19887269826E+03  0.97466756195E+01 -0.92887855429E+03  0.94997932420E+03  0.00000000000E+00 0.  1.
<mgrwt>
<rscale>  0 0.12841012E+04</rscale>
<asrwt>0</asrwt>
<pdfrwt beam="1">  1        2 0.40064723E+00 0.12841012E+04</pdfrwt>
<pdfrwt beam="2">  1       -2 0.24352843E-01 0.12841012E+04</pdfrwt>
<totfact> 0.44947027E+01</totfact>
</mgrwt>
</event>
<event>
12    2  0.3555611E-008  0.1901251E+04  0.7818608E-02  0.8654234E-01
         -2   -1    0    0    0  501 -0.00000000000E+00  0.00000000000E+00  0.32281779352E+03  0.32281779352E+03  0.00000000000E+00 0.  1.
          2   -1    0    0  501    0  0.00000000000E+00 -0.00000000000E+00 -0.27993768147E+04  0.27993768147E+04  0.00000000000E+00 0. -1.
         23    2    1    2    0    0 -0.18578335072E+03  0.66172810578E+03 -0.59432560038E+03  0.91167431647E+03  0.74347835713E+02 0.  0.
        254    2    1    2    0    0  0.18578335072E+03 -0.66172810578E+03 -0.18822334208E+04  0.22105202917E+04  0.93337975683E+03 0.  0.
         23    2    4    4    0    0 -0.19862794182E+03  0.77111964559E+02 -0.12570197912E+03  0.26439198238E+03  0.93288897743E+02 0.  0.
         23    2    4    4    0    0  0.38441129254E+03 -0.73884007034E+03 -0.17565314416E+04  0.19461283093E+04  0.91411156587E+02 0.  0.
          3    1    3    3  502    0 -0.71971998822E+00  0.50487949674E+02 -0.26103788482E+02  0.56841523838E+02  0.00000000000E+00 0. -1.
         -3    1    3    3    0  502 -0.18506363074E+03  0.61124015610E+03 -0.56822181189E+03  0.85483279264E+03  0.00000000000E+00 0.  1.
         11    1    5    5    0    0 -0.96421072458E+02  0.66547336628E+01 -0.14504749211E+02  0.97732780804E+02  0.00000000000E+00 0.  1.
        -11    1    5    5    0    0 -0.10220686936E+03  0.70457230896E+02 -0.11119722991E+03  0.16665920157E+03  0.00000000000E+00 0. -1.
          2    1    6    6  503    0  0.11486795418E+03 -0.27436030861E+03 -0.54420761888E+03  0.62018558374E+03  0.00000000000E+00 0. -1.
         -2    1    6    6    0  503  0.26954333836E+03 -0.46447976173E+03 -0.12123238228E+04  0.13259427256E+04  0.00000000000E+00 0.  1.
<mgrwt>
<rscale>  0 0.19012508E+04</rscale>
<asrwt>0</asrwt>
<pdfrwt beam="1">  1        2 0.43067335E+00 0.19012508E+04</pdfrwt>
<pdfrwt beam="2">  1       -2 0.49664277E-01 0.19012508E+04</pdfrwt>
<totfact> 0.83321205E+00</totfact>
</mgrwt>
</event>
<event>
12    2  0.3555611E-008  0.1163086E+04  0.7818608E-02  0.9145796E-01
         -2   -1    0    0    0  501 -0.00000000000E+00  0.00000000000E+00  0.15128854482E+03  0.15128854482E+03  0.00000000000E+00 0.  1.
          2   -1    0    0  501    0  0.00000000000E+00 -0.00000000000E+00 -0.22354106986E+04  0.22354106986E+04  0.00000000000E+00 0. -1.
         23    2    1    2    0    0 -0.14917271342E+02 -0.60542209873E+02 -0.83486940343E+03  0.84243294635E+03  0.93800128786E+02 0.  0.
        254    2    1    2    0    0  0.14917271342E+02  0.60542209873E+02 -0.12492527504E+04  0.15442662971E+04  0.90566996079E+03 0.  0.
         23    2    4    4    0    0 -0.20338329407E+02  0.13493917172E+03 -0.13650658168E+04  0.13747506712E+04  0.88952212732E+02 0.  0.
         23    2    4    4    0    0  0.35255600750E+02 -0.74396961850E+02  0.11581306640E+03  0.16951562589E+03  0.92439254396E+02 0.  0.
          1    1    3    3  502    0 -0.34618614796E+02  0.74342257756E+01 -0.42728044796E+03  0.42874502611E+03  0.00000000000E+00 0. -1.
         -1    1    3    3    0  502  0.19701343453E+02 -0.67976435649E+02 -0.40758895547E+03  0.41368792025E+03  0.00000000000E+00 0.  1.
         11    1    5    5    0    0 -0.13362647006E+02  0.14103561547E+03 -0.13471770240E+04  0.13546053075E+04  0.00000000000E+00 0.  1.
        -11    1    5    5    0    0 -0.69756824017E+01 -0.60964437442E+01 -0.17888792797E+02  0.20145363711E+02  0.00000000000E+00 0. -1.
          2    1    6    6  503    0 -0.30655082657E+02 -0.22833179448E+02  0.50640593948E+02  0.63447284669E+02  0.00000000000E+00 0.  1.
         -2    1    6    6    0  503  0.65910683407E+02 -0.51563782403E+02  0.65172472456E+02  0.10606834122E+03  0.00000000000E+00 0. -1.
<mgrwt>
<rscale>  0 0.11630856E+04</rscale>
<asrwt>0</asrwt>
<pdfrwt beam="1">  1        2 0.34390930E+00 0.11630856E+04</pdfrwt>
<pdfrwt beam="2">  1       -2 0.23275163E-01 0.11630856E+04</pdfrwt>
<totfact> 0.79929299E+01</totfact>
</mgrwt>
</event>
<event>
12    2  0.3555611E-008  0.2379997E+04  0.7818608E-02  0.8447030E-01
          1   -1    0    0  501    0  0.00000000000E+00  0.00000000000E+00  0.18418403674E+04  0.18418403674E+04  0.00000000000E+00 0. -1.
         -1   -1    0    0    0  501 -0.00000000000E+00 -0.00000000000E+00 -0.76884878645E+03  0.76884878645E+03  0.00000000000E+00 0.  1.
         23    2    1    2    0    0 -0.72501826965E+03  0.30561701050E+03 -0.24711321546E+03  0.82926088407E+03  0.86921942952E+02 0.  0.
        254    2    1    2    0    0  0.72501826965E+03 -0.30561701050E+03  0.13201047964E+04  0.17814282697E+04  0.90097544826E+03 0.  0.
         23    2    4    4    0    0  0.81897170718E+03 -0.45106308712E+03  0.82889084544E+03  0.12527741144E+04  0.90611160221E+02 0.  0.
         23    2    4    4    0    0 -0.93953437531E+02  0.14544607662E+03  0.49121395095E+03  0.52865415534E+03  0.90566333273E+02 0.  0.
          3    1    3    3  502    0 -0.57573513845E+03  0.23336391962E+03 -0.23036152399E+03  0.66256780813E+03  0.00000000000E+00 0.  1.
         -3    1    3    3    0  502 -0.14928313119E+03  0.72253090882E+02 -0.16751691469E+02  0.16669307595E+03  0.00000000000E+00 0. -1.
         11    1    5    5    0    0  0.27542311507E+03 -0.18272679091E+03  0.24821427177E+03  0.41334888066E+03  0.00000000000E+00 0. -1.
        -11    1    5    5    0    0  0.54354859211E+03 -0.26833629621E+03  0.58067657367E+03  0.83942523375E+03  0.00000000000E+00 0.  1.
          2    1    6    6  503    0 -0.29439649635E+02  0.91831365215E+02  0.36180247450E+03  0.37443387022E+03  0.00000000000E+00 0. -1.
         -2    1    6    6    0  503 -0.64513787896E+02  0.53614711403E+02  0.12941147644E+03  0.15422028512E+03  0.00000000000E+00 0.  1.
<mgrwt>
<rscale>  0 0.23799973E+04</rscale>
<asrwt>0</asrwt>
<pdfrwt beam="1">  1        1 0.28336006E+00 0.23799973E+04</pdfrwt>
<pdfrwt beam="2">  1       -1 0.11828443E+00 0.23799973E+04</pdfrwt>
<totfact> 0.21963447E+00</totfact>
</mgrwt>
</event>
<event>
12    2  0.3555611E-008  0.1824324E+04  0.7818608E-02  0.8693470E-01
         -2   -1    0    0    0  501 -0.00000000000E+00  0.00000000000E+00  0.54081434862E+03  0.54081434862E+03  0.00000000000E+00 0.  1.
          2   -1    0    0  501    0  0.00000000000E+00 -0.00000000000E+00 -0.15384931167E+04  0.15384931167E+04  0.00000000000E+00 0. -1.
         23    2    1    2    0    0 -0.70719786224E+01  0.10510655269E+03 -0.11643438946E+04  0.11727648931E+04  0.92646583815E+02 0.  0.
        254    2    1    2    0    0  0.70719786224E+01 -0.10510655269E+03  0.16666512646E+03  0.90654257219E+03  0.88484166409E+03 0.  0.
         23    2    4    4    0    0 -0.33725184887E+02 -0.38868035996E+03 -0.18744849286E+03  0.44227776258E+03  0.90900338231E+02 0.  0.
         23    2    4    4    0    0  0.40797163510E+02  0.28357380727E+03  0.35411361932E+03  0.46426480961E+03  0.89815618550E+02 0.  0.
          4    1    3    3  502    0  0.35005304605E+02  0.14772686483E+02 -0.22940614820E+03  0.23253125478E+03  0.00000000000E+00 0.  1.
         -4    1    3    3    0  502 -0.42077283228E+02  0.90333866208E+02 -0.93493774636E+03  0.94023363837E+03  0.00000000000E+00 0. -1.
         11    1    5    5    0    0  0.31353377454E+02 -0.14555437847E+03 -0.71344568726E+02  0.16510347924E+03  0.00000000000E+00 0. -1.
        -11    1    5    5    0    0 -0.65078562341E+02 -0.24312598149E+03 -0.11610392413E+03  0.27717428335E+03  0.00000000000E+00 0.  1.
          4    1    6    6  503    0  0.26965262893E+02  0.22262954694E+03  0.32612701257E+03  0.39579018293E+03  0.00000000000E+00 0. -1.
         -4    1    6    6    0  503  0.13831900617E+02  0.60944260330E+02  0.27986606745E+02  0.68474626680E+02  0.00000000000E+00 0.  1.
<mgrwt>
<rscale>  0 0.18243236E+04</rscale>
<asrwt>0</asrwt>
<pdfrwt beam="1">  1        2 0.23669125E+00 0.18243236E+04</pdfrwt>
<pdfrwt beam="2">  1       -2 0.83202208E-01 0.18243236E+04</pdfrwt>
<totfact> 0.14391418E+01</totfact>
</mgrwt>
</event>
<event>
12    2  0.3555611E-008  0.1169437E+04  0.7818608E-02  0.9140037E-01
         -2   -1    0    0    0  501 -0.00000000000E+00  0.00000000000E+00  0.21286060671E+03  0.21286060671E+03  0.00000000000E+00 0.  1.
          2   -1    0    0  501    0  0.00000000000E+00 -0.00000000000E+00 -0.16061964069E+04  0.16061964069E+04  0.00000000000E+00 0. -1.
         23    2    1    2    0    0  0.20913857615E+03 -0.46716415300E+02 -0.38527697941E+03  0.44886023338E+03  0.84355146576E+02 0.  0.
        254    2    1    2    0    0 -0.20913857615E+03  0.46716415300E+02 -0.10080588208E+04  0.13701967803E+04  0.90295917013E+03 0.  0.
         23    2    4    4    0    0 -0.26696866061E+03 -0.43540538561E+02  0.60625258670E+02  0.29185468957E+03  0.91300019652E+02 0.  0.
         23    2    4    4    0    0  0.57830084461E+02  0.90256953862E+02 -0.10686840795E+04  0.10783420907E+04  0.96152828466E+02 0.  0.
          1    1    3    3  502    0  0.14248378990E+03 -0.10140641985E+02 -0.31255783122E+03  0.34365223826E+03  0.00000000000E+00 0. -1.
         -1    1    3    3    0  502  0.66654786247E+02 -0.36575773315E+02 -0.72719148185E+02  0.10520799511E+03  0.00000000000E+00 0.  1.
         11    1    5    5    0    0 -0.25221265943E+03 -0.63152514725E+02  0.61943841551E+02  0.26727608422E+03  0.00000000000E+00 0. -1.
        -11    1    5    5    0    0 -0.14756001183E+02  0.19611976164E+02 -0.13185828813E+01  0.24578605347E+02  0.00000000000E+00 0.  1.
          1    1    6    6  503    0  0.80084323143E+02  0.75152255680E+02 -0.96488283909E+03  0.97111289432E+03  0.00000000000E+00 0. -1.
         -1    1    6    6    0  503 -0.22254238683E+02  0.15104698182E+02 -0.10380124039E+03  0.10722919637E+03  0.00000000000E+00 0.  1.
<mgrwt>
<rscale>  0 0.11694374E+04</rscale>
<asrwt>0</asrwt>
<pdfrwt beam="1">  1        2 0.24710714E+00 0.11694374E+04</pdfrwt>
<pdfrwt beam="2">  1       -2 0.32747785E-01 0.11694374E+04</pdfrwt>
<totfact> 0.95072155E+01</totfact>
</mgrwt>
</event>
<event>
12    2  0.3555611E-008  0.1207822E+04  0.7818608E-02  0.9106037E-01
         -3   -1    0    0    0  501 -0.00000000000E+00  0.00000000000E+00  0.73602426148E+03  0.73602426148E+03  0.00000000000E+00 0.  1.
          3   -1    0    0  501    0  0.00000000000E+00 -0.00000000000E+00 -0.49551184307E+03  0.49551184307E+03  0.00000000000E+00 0. -1.
         23    2    1    2    0    0  0.15788538929E+03 -0.16657906197E+03 -0.58036945179E+02  0.26084571504E+03  0.10952543089E+03 0.  0.
        254    2    1    2    0    0 -0.15788538929E+03  0.16657906197E+03  0.29854936359E+03  0.97069038951E+03  0.89466850272E+03 0.  0.
         23    2    4    4    0    0  0.59169572597E+02 -0.10310187425E+03  0.52596104654E+03  0.54651503816E+03  0.88952963235E+02 0.  0.
         23    2    4    4    0    0 -0.21705496189E+03  0.26968093622E+03 -0.22741168295E+03  0.42417535135E+03  0.91476725509E+02 0.  0.
          4    1    3    3  502    0  0.12842022980E+03 -0.92837374637E+02 -0.81294810105E+02  0.17809935345E+03  0.00000000000E+00 0. -1.
         -4    1    3    3    0  502  0.29465159494E+02 -0.73741687337E+02  0.23257864926E+02  0.82746361589E+02  0.00000000000E+00 0.  1.
         11    1    5    5    0    0  0.26495603586E+02 -0.57620973817E+02  0.43570888622E+03  0.44030038288E+03  0.00000000000E+00 0.  1.
        -11    1    5    5    0    0  0.32673969011E+02 -0.45480900428E+02  0.90252160315E+02  0.10621465528E+03  0.00000000000E+00 0. -1.
          4    1    6    6  503    0 -0.13596681541E+03  0.10440388212E+03 -0.84517616444E+02  0.19112920495E+03  0.00000000000E+00 0. -1.
         -4    1    6    6    0  503 -0.81088146481E+02  0.16527705410E+03 -0.14289406651E+03  0.23304614640E+03  0.00000000000E+00 0.  1.
<mgrwt>
<rscale>  0 0.12078224E+04</rscale>
<asrwt>0</asrwt>
<pdfrwt beam="1">  1        3 0.76232591E-01 0.12078224E+04</pdfrwt>
<pdfrwt beam="2">  1       -3 0.11323450E+00 0.12078224E+04</pdfrwt>
<totfact> 0.27232439E+00</totfact>
</mgrwt>
</event>
<event>
12    2  0.3555611E-008  0.1483330E+04  0.7818608E-02  0.8895615E-01
          2   -1    0    0  501    0  0.00000000000E+00  0.00000000000E+00  0.12257255153E+04  0.12257255153E+04  0.00000000000E+00 0. -1.
         -2   -1    0    0    0  501 -0.00000000000E+00 -0.00000000000E+00 -0.44876843505E+03  0.44876843505E+03  0.00000000000E+00 0.  1.
         23    2    1    2    0    0 -0.10064683886E+03  0.15836836308E+03  0.70616264403E+03  0.73640305450E+03  0.91724883510E+02 0.  0.
        254    2    1    2    0    0  0.10064683886E+03 -0.15836836308E+03  0.70794436225E+02  0.93809089585E+03  0.91640185076E+03 0.  0.
         23    2    4    4    0    0 -0.83957876878E+02  0.16270324414E+03 -0.32817586218E+03  0.38646606467E+03  0.90196185522E+02 0.  0.
         23    2    4    4    0    0  0.18460471574E+03 -0.32107160722E+03  0.39897029840E+03  0.55162483118E+03  0.89144698814E+02 0.  0.
          1    1    3    3  502    0 -0.10631781088E+03  0.14102207791E+03  0.68926603722E+03  0.71153241207E+03  0.00000000000E+00 0. -1.
         -1    1    3    3    0  502  0.56709720196E+01  0.17346285172E+02  0.16896606809E+02  0.24870642424E+02  0.00000000000E+00 0.  1.
         11    1    5    5    0    0 -0.36771525056E+01  0.98499012646E+02 -0.19225526218E+03  0.21605013951E+03  0.00000000000E+00 0.  1.
        -11    1    5    5    0    0 -0.80280724372E+02  0.64204231493E+02 -0.13592059999E+03  0.17041592517E+03  0.00000000000E+00 0. -1.
          3    1    6    6  503    0  0.34254017683E+02 -0.15358770114E+02  0.61765447095E+02  0.72278627558E+02  0.00000000000E+00 0. -1.
         -3    1    6    6    0  503  0.15035069806E+03 -0.30571283711E+03  0.33720485131E+03  0.47934620362E+03  0.00000000000E+00 0.  1.
<mgrwt>
<rscale>  0 0.14833299E+04</rscale>
<asrwt>0</asrwt>
<pdfrwt beam="1">  1        2 0.18857316E+00 0.14833299E+04</pdfrwt>
<pdfrwt beam="2">  1       -2 0.69041298E-01 0.14833299E+04</pdfrwt>
<totfact> 0.33886201E+01</totfact>
</mgrwt>
</event>
<event>
12    2  0.3555611E-008  0.1225781E+04  0.7818608E-02  0.9090585E-01
         -3   -1    0    0    0  501 -0.00000000000E+00  0.00000000000E+00  0.39527371592E+03  0.39527371592E+03  0.00000000000E+00 0.  1.
          3   -1    0    0  501    0  0.00000000000E+00 -0.00000000000E+00 -0.95031565985E+03  0.95031565985E+03  0.00000000000E+00 0. -1.
         23    2    1    2    0    0  0.89843335874E+02  0.22915671501E+02 -0.41840119941E+03  0.43799856148E+03  0.90477749673E+02 0.  0.
        254    2    1    2    0    0 -0.89843335874E+02 -0.22915671501E+02 -0.13664074452E+03  0.90759081429E+03  0.89244240157E+03 0.  0.
         23    2    4    4    0    0 -0.44677715272E+03  0.14278870793E+03  0.11091575059E+02  0.47745204834E+03  0.88538105491E+02 0.  0.
         23    2    4    4    0    0  0.35693381685E+03 -0.16570437943E+03 -0.14773231957E+03  0.43013876594E+03  0.91295283261E+02 0.  0.
          1    1    3    3  502    0  0.99486868429E+02  0.31390884268E+02 -0.40897669614E+03  0.42207222437E+03  0.00000000000E+00 0. -1.
         -1    1    3    3    0  502 -0.96435325550E+01 -0.84752127669E+01 -0.94245032768E+01  0.15926337106E+02  0.00000000000E+00 0.  1.
         11    1    5    5    0    0 -0.34307590883E+02 -0.19083039072E+01  0.20919644983E+02  0.40227900296E+02  0.00000000000E+00 0. -1.
        -11    1    5    5    0    0 -0.41246956184E+03  0.14469701184E+03 -0.98280699237E+01  0.43722414805E+03  0.00000000000E+00 0.  1.
          3    1    6    6  503    0  0.76373641387E+02 -0.48922710404E+02 -0.74925305954E+02  0.11764423558E+03  0.00000000000E+00 0. -1.
         -3    1    6    6    0  503  0.28056017546E+03 -0.11678166903E+03 -0.72807013621E+02  0.31249453037E+03  0.00000000000E+00 0.  1.
<mgrwt>
<rscale>  0 0.12257811E+04</rscale>
<asrwt>0</asrwt>
<pdfrwt beam="1">  1        3 0.14620241E+00 0.12257811E+04</pdfrwt>
<pdfrwt beam="2">  1       -3 0.60811342E-01 0.12257811E+04</pdfrwt>
<totfact> 0.23558228E+00</totfact>
</mgrwt>
</event>
<event>
12    2  0.3555611E-008  0.1486891E+04  0.7818608E-02  0.8893218E-01
         -2   -1    0    0    0  501 -0.00000000000E+00  0.00000000000E+00  0.39107896285E+03  0.39107896285E+03  0.00000000000E+00 0.  1.
          2   -1    0    0  501    0  0.00000000000E+00 -0.00000000000E+00 -0.14132975199E+04  0.14132975199E+04  0.00000000000E+00 0. -1.
         23    2    1    2    0    0 -0.31313065337E+03 -0.21467167628E+03 -0.68441226723E+03  0.78758190459E+03  0.87922523995E+02 0.  0.
        254    2    1    2    0    0  0.31313065337E+03  0.21467167628E+03 -0.33780628978E+03  0.10167945781E+04  0.88069483366E+03 0.  0.
         23    2    4    4    0    0  0.37294385753E+03  0.39232504246E+03 -0.50789591644E+03  0.74765800761E+03  0.89600081466E+02 0.  0.
         23    2    4    4    0    0 -0.59813204163E+02 -0.17765336618E+03  0.17008962665E+03  0.26913657053E+03  0.91464061750E+02 0.  0.
          1    1    3    3  502    0 -0.14173359490E+03 -0.46403408718E+02 -0.24559045199E+03  0.28732622291E+03  0.00000000000E+00 0. -1.
         -1    1    3    3    0  502 -0.17139705846E+03 -0.16826826756E+03 -0.43882181524E+03  0.50025568168E+03  0.00000000000E+00 0.  1.
         11    1    5    5    0    0  0.33446885727E+03  0.31085793427E+03 -0.39955716033E+03  0.60675200548E+03  0.00000000000E+00 0. -1.
        -11    1    5    5    0    0  0.38475000264E+02  0.81467108193E+02 -0.10833875610E+03  0.14090600213E+03  0.00000000000E+00 0.  1.
          4    1    6    6  503    0 -0.56136807879E+02 -0.51878234377E+02  0.33600428243E+02  0.83496593817E+02  0.00000000000E+00 0. -1.
         -4    1    6    6    0  503 -0.36763962843E+01 -0.12577513181E+03  0.13648919841E+03  0.18563997671E+03  0.00000000000E+00 0.  1.
<mgrwt>
<rscale>  0 0.14868906E+04</rscale>
<asrwt>0</asrwt>
<pdfrwt beam="1">  1        2 0.21743039E+00 0.14868906E+04</pdfrwt>
<pdfrwt beam="2">  1       -2 0.60165994E-01 0.14868906E+04</pdfrwt>
<totfact> 0.35405063E+01</totfact>
</mgrwt>
</event>
<event>
12    2  0.3555611E-008  0.1379329E+04  0.7818608E-02  0.8968919E-01
          1   -1    0    0  501    0  0.00000000000E+00  0.00000000000E+00  0.14757551073E+04  0.14757551073E+04  0.00000000000E+00 0. -1.
         -1   -1    0    0    0  501 -0.00000000000E+00 -0.00000000000E+00 -0.32230089550E+03  0.32230089550E+03  0.00000000000E+00 0.  1.
         23    2    1    2    0    0  0.14915317893E+03 -0.24157904767E+03  0.68889485629E+03  0.75046548747E+03  0.89527748813E+02 0.  0.
        254    2    1    2    0    0 -0.14915317893E+03  0.24157904767E+03  0.46455935555E+03  0.10475905154E+04  0.89499909832E+03 0.  0.
         23    2    4    4    0    0 -0.17655316593E+03  0.37526011393E+02 -0.23695038920E+03  0.31108166275E+03  0.89705585280E+02 0.  0.
         23    2    4    4    0    0  0.27399986998E+02  0.20405303628E+03  0.70150974475E+03  0.73650885261E+03  0.89112104066E+02 0.  0.
          3    1    3    3  502    0  0.11609110524E+03 -0.10290867792E+03  0.36008329861E+03  0.39208076036E+03  0.00000000000E+00 0. -1.
         -3    1    3    3    0  502  0.33062073686E+02 -0.13867036975E+03  0.32881155768E+03  0.35838472711E+03  0.00000000000E+00 0.  1.
         11    1    5    5    0    0 -0.31348508968E+02 -0.21985882538E+02 -0.19638781718E+02  0.43032427225E+02  0.00000000000E+00 0.  1.
        -11    1    5    5    0    0 -0.14520465696E+03  0.59511893931E+02 -0.21731160748E+03  0.26804923553E+03  0.00000000000E+00 0. -1.
          2    1    6    6  503    0  0.66974149462E+01  0.16206438345E+03  0.40412037204E+03  0.43545722505E+03  0.00000000000E+00 0. -1.
         -2    1    6    6    0  503  0.20702572051E+02  0.41988652828E+02  0.29738937271E+03  0.30105162756E+03  0.00000000000E+00 0.  1.
<mgrwt>
<rscale>  0 0.13793291E+04</rscale>
<asrwt>0</asrwt>
<pdfrwt beam="1">  1        1 0.22703924E+00 0.13793291E+04</pdfrwt>
<pdfrwt beam="2">  1       -1 0.49584754E-01 0.13793291E+04</pdfrwt>
<totfact> 0.27082341E+01</totfact>
</mgrwt>
</event>
<event>
12    2  0.3555611E-008  0.3202763E+04  0.7818608E-02  0.8188088E-01
         -2   -1    0    0    0  501 -0.00000000000E+00  0.00000000000E+00  0.10981960653E+04  0.10981960653E+04  0.00000000000E+00 0.  1.
          2   -1    0    0  501    0  0.00000000000E+00 -0.00000000000E+00 -0.23351226092E+04  0.23351226092E+04  0.00000000000E+00 0. -1.
         23    2    1    2    0    0 -0.99995468080E+03  0.23063154786E+03  0.56341907347E+03  0.11742998175E+04  0.91862584932E+02 0.  0.
        254    2    1    2    0    0  0.99995468080E+03 -0.23063154786E+03 -0.18003456174E+04  0.22590188570E+04  0.89934508377E+03 0.  0.
         23    2    4    4    0    0  0.69035421596E+03 -0.38848876654E+03 -0.17130080358E+04  0.18895155293E+04  0.91432705271E+02 0.  0.
         23    2    4    4    0    0  0.30960046484E+03  0.15785721867E+03 -0.87337581655E+02  0.36950332774E+03  0.90185956365E+02 0.  0.
          3    1    3    3  502    0 -0.20025338508E+03  0.83652000461E+02  0.12797922906E+03  0.25194792813E+03  0.00000000000E+00 0. -1.
         -3    1    3    3    0  502 -0.79970129572E+03  0.14697954740E+03  0.43543984441E+03  0.92235188938E+03  0.00000000000E+00 0.  1.
         11    1    5    5    0    0  0.50273666853E+03 -0.23475087153E+03 -0.11873239672E+04  0.13105687058E+04  0.00000000000E+00 0. -1.
        -11    1    5    5    0    0  0.18761754743E+03 -0.15373789501E+03 -0.52568406858E+03  0.57894682349E+03  0.00000000000E+00 0.  1.
          2    1    6    6  503    0  0.26241256978E+03  0.10056481981E+03 -0.46677642615E+02  0.28487267697E+03  0.00000000000E+00 0. -1.
         -2    1    6    6    0  503  0.47187895058E+02  0.57292398861E+02 -0.40659939040E+02  0.84630650772E+02  0.00000000000E+00 0.  1.
<mgrwt>
<rscale>  0 0.32027628E+04</rscale>
<asrwt>0</asrwt>
<pdfrwt beam="1">  1        2 0.35924963E+00 0.32027628E+04</pdfrwt>
<pdfrwt beam="2">  1       -2 0.16895324E+00 0.32027628E+04</pdfrwt>
<totfact> 0.79031870E-01</totfact>
</mgrwt>
</event>
<event>
12    2  0.3555611E-008  0.1446510E+04  0.7818608E-02  0.8920823E-01
          4   -1    0    0  501    0  0.00000000000E+00  0.00000000000E+00  0.42128532506E+03  0.42128532506E+03  0.00000000000E+00 0. -1.
         -4   -1    0    0    0  501 -0.00000000000E+00 -0.00000000000E+00 -0.12416719031E+04  0.12416719031E+04  0.00000000000E+00 0.  1.
         23    2    1    2    0    0 -0.18723692749E+03 -0.34408430160E+03 -0.49385579144E+03  0.63664880327E+03  0.89311154648E+02 0.  0.
        254    2    1    2    0    0  0.18723692749E+03  0.34408430160E+03 -0.32653078657E+03  0.10263084249E+04  0.89063738679E+03 0.  0.
         23    2    4    4    0    0  0.27450557864E+03  0.44378563611E+03  0.12727840157E+03  0.54482651737E+03  0.91307935056E+02 0.  0.
         23    2    4    4    0    0 -0.87268651147E+02 -0.99701334510E+02 -0.45380918814E+03  0.48148190749E+03  0.91246229629E+02 0.  0.
          3    1    3    3  502    0 -0.18025522197E+03 -0.33465188911E+03 -0.43963956109E+03  0.58117706046E+03  0.00000000000E+00 0. -1.
         -3    1    3    3    0  502 -0.69817055231E+01 -0.94324124947E+01 -0.54216230342E+02  0.55471742807E+02  0.00000000000E+00 0.  1.
         11    1    5    5    0    0  0.12547744495E+03  0.21914559844E+03  0.10771411390E+03  0.27453909164E+03  0.00000000000E+00 0. -1.
        -11    1    5    5    0    0  0.14902813369E+03  0.22464003767E+03  0.19564287671E+02  0.27028742573E+03  0.00000000000E+00 0.  1.
          4    1    6    6  503    0 -0.19324293798E+02  0.13798769941E+02 -0.12174714987E+03  0.12404113384E+03  0.00000000000E+00 0. -1.
         -4    1    6    6    0  503 -0.67944357349E+02 -0.11350010445E+03 -0.33206203827E+03  0.35744077365E+03  0.00000000000E+00 0.  1.
<mgrwt>
<rscale>  0 0.14465105E+04</rscale>
<asrwt>0</asrwt>
<pdfrwt beam="1">  1        4 0.64813127E-01 0.14465105E+04</pdfrwt>
<pdfrwt beam="2">  1       -4 0.19102645E+00 0.14465105E+04</pdfrwt>
<totfact> 0.64984289E-01</totfact>
</mgrwt>
</event>
<event>
12    2  0.3555611E-008  0.2096432E+04  0.7818608E-02  0.8562817E-01
         -1   -1    0    0    0  501 -0.00000000000E+00  0.00000000000E+00  0.58265073758E+03  0.58265073758E+03  0.00000000000E+00 0.  1.
          1   -1    0    0  501    0  0.00000000000E+00 -0.00000000000E+00 -0.18857893513E+04  0.18857893513E+04  0.00000000000E+00 0. -1.
         23    2    1    2    0    0  0.61766554694E+03 -0.51870331546E+03 -0.88066582945E+03  0.11975210679E+04  0.88997458031E+02 0.  0.
        254    2    1    2    0    0 -0.61766554694E+03  0.51870331546E+03 -0.42247278426E+03  0.12709190210E+04  0.88667245762E+03 0.  0.
         23    2    4    4    0    0  0.70545607698E+02  0.38474585250E+03 -0.39399188669E+03  0.56253104601E+03  0.90584309739E+02 0.  0.
         23    2    4    4    0    0 -0.68821115464E+03  0.13395746296E+03 -0.28480897576E+02  0.70838797497E+03  0.97072994682E+02 0.  0.
          1    1    3    3  502    0  0.61553355786E+03 -0.50723451888E+03 -0.85467718682E+03  0.11690344356E+04  0.00000000000E+00 0. -1.
         -1    1    3    3    0  502  0.21319890818E+01 -0.11468796580E+02 -0.25988642630E+02  0.28486632272E+02  0.00000000000E+00 0.  1.
         11    1    5    5    0    0  0.83503787606E+01  0.27451410948E+03 -0.25943284172E+03  0.37780037651E+03  0.00000000000E+00 0.  1.
        -11    1    5    5    0    0  0.62195228937E+02  0.11023174302E+03 -0.13455904497E+03  0.18473066950E+03  0.00000000000E+00 0. -1.
          2    1    6    6  503    0 -0.73140526198E+02 -0.12931358800E+02 -0.15568779704E+02  0.75889021040E+02  0.00000000000E+00 0. -1.
         -2    1    6    6    0  503 -0.61507062844E+03  0.14688882176E+03 -0.12912117872E+02  0.63249895393E+03  0.00000000000E+00 0.  1.
<mgrwt>
<rscale>  0 0.20964318E+04</rscale>
<asrwt>0</asrwt>
<pdfrwt beam="1">  1        1 0.29012144E+00 0.20964318E+04</pdfrwt>
<pdfrwt beam="2">  1       -1 0.89638575E-01 0.20964318E+04</pdfrwt>
<totfact> 0.39935276E+00</totfact>
</mgrwt>
</event>
<event>
12    2  0.3555611E-008  0.1893537E+04  0.7818608E-02  0.8658080E-01
         -1   -1    0    0    0  501 -0.00000000000E+00  0.00000000000E+00  0.36478119542E+03  0.36478119542E+03  0.00000000000E+00 0.  1.
          1   -1    0    0  501    0  0.00000000000E+00 -0.00000000000E+00 -0.24572818069E+04  0.24572818069E+04  0.00000000000E+00 0. -1.
         23    2    1    2    0    0 -0.38482955225E+03 -0.59928157323E+03 -0.56920519954E+03  0.91635470365E+03  0.92082546814E+02 0.  0.
        254    2    1    2    0    0  0.38482955225E+03  0.59928157323E+03 -0.15232954119E+04  0.19057082987E+04  0.89669561129E+03 0.  0.
         23    2    4    4    0    0 -0.61454227894E+02 -0.39982248906E+02  0.64552185532E+02  0.13437234370E+03  0.92269928695E+02 0.  0.
         23    2    4    4    0    0  0.44628378014E+03  0.63926382213E+03 -0.15878475974E+04  0.17713359550E+04  0.92431736319E+02 0.  0.
          4    1    3    3  502    0 -0.14953824494E+03 -0.30672644249E+03 -0.30024155162E+03  0.45451929171E+03  0.00000000000E+00 0. -1.
         -4    1    3    3    0  502 -0.23529130731E+03 -0.29255513074E+03 -0.26896364793E+03  0.46183541194E+03  0.00000000000E+00 0.  1.
         11    1    5    5    0    0 -0.39807860421E+02  0.18226581859E+02  0.56906769632E+02  0.71800100749E+02  0.00000000000E+00 0. -1.
        -11    1    5    5    0    0 -0.21646367472E+02 -0.58208830766E+02  0.76454158997E+01  0.62572242953E+02  0.00000000000E+00 0.  1.
          2    1    6    6  503    0  0.25478273426E+03  0.38962282500E+03 -0.10428030477E+04  0.11419975410E+04  0.00000000000E+00 0. -1.
         -2    1    6    6    0  503  0.19150104588E+03  0.24964099714E+03 -0.54504454978E+03  0.62933841395E+03  0.00000000000E+00 0.  1.
<mgrwt>
<rscale>  0 0.18935366E+04</rscale>
<asrwt>0</asrwt>
<pdfrwt beam="1">  1        1 0.37804337E+00 0.18935366E+04</pdfrwt>
<pdfrwt beam="2">  1       -1 0.56120182E-01 0.18935366E+04</pdfrwt>
<totfact> 0.43644778E+00</totfact>
</mgrwt>
</event>
<event>
12    2  0.3555611E-008  0.1423533E+04  0.7818608E-02  0.8936958E-01
          2   -1    0    0  501    0  0.00000000000E+00  0.00000000000E+00  0.15379051359E+04  0.15379051359E+04  0.00000000000E+00 0. -1.
         -2   -1    0    0    0  501 -0.00000000000E+00 -0.00000000000E+00 -0.32941653876E+03  0.32941653876E+03  0.00000000000E+00 0.  1.
         23    2    1    2    0    0  0.33231431780E+03 -0.30234870547E+03  0.22681794971E+03  0.51172728747E+03  0.92579095452E+02 0.  0.
        254    2    1    2    0    0 -0.33231431780E+03  0.30234870547E+03  0.98167064739E+03  0.13555943872E+04  0.81982396710E+03 0.  0.
         23    2    4    4    0    0 -0.35127899965E+03 -0.18341661584E+03  0.26625286452E+03  0.48582281783E+03  0.89970172290E+02 0.  0.
         23    2    4    4    0    0  0.18964681844E+02  0.48576532130E+03  0.71541778288E+03  0.86977156933E+03  0.91391313703E+02 0.  0.
          4    1    3    3  502    0  0.34803013625E+02 -0.73359157462E+02  0.59692544805E+02  0.10077705913E+03  0.00000000000E+00 0. -1.
         -4    1    3    3    0  502  0.29751130418E+03 -0.22898954800E+03  0.16712540490E+03  0.41095022834E+03  0.00000000000E+00 0.  1.
         11    1    5    5    0    0 -0.12295602433E+03 -0.30539238869E+02  0.12020658817E+03  0.17464378852E+03  0.00000000000E+00 0. -1.
        -11    1    5    5    0    0 -0.22832297532E+03 -0.15287737697E+03  0.14604627635E+03  0.31117902931E+03  0.00000000000E+00 0.  1.
          3    1    6    6  503    0 -0.10554516303E+02  0.31096956858E+03  0.51954954949E+03  0.60559491806E+03  0.00000000000E+00 0.  1.
         -3    1    6    6    0  503  0.29519198147E+02  0.17479575272E+03  0.19586823338E+03  0.26417665127E+03  0.00000000000E+00 0. -1.
<mgrwt>
<rscale>  0 0.14235328E+04</rscale>
<asrwt>0</asrwt>
<pdfrwt beam="1">  1        2 0.23660079E+00 0.14235328E+04</pdfrwt>
<pdfrwt beam="2">  1       -2 0.50679468E-01 0.14235328E+04</pdfrwt>
<totfact> 0.43213401E+01</totfact>
</mgrwt>
</event>
<event>
12    2  0.3555611E-008  0.2865166E+04  0.7818608E-02  0.8283318E-01
         -1   -1    0    0    0  501 -0.00000000000E+00  0.00000000000E+00  0.16903325188E+04  0.16903325188E+04  0.00000000000E+00 0.  1.
          1   -1    0    0  501    0  0.00000000000E+00 -0.00000000000E+00 -0.12141362013E+04  0.12141362013E+04  0.00000000000E+00 0. -1.
         23    2    1    2    0    0  0.31895866699E+03  0.57700243858E+03 -0.90879273122E+03  0.11266122901E+04  0.93191086175E+02 0.  0.
        254    2    1    2    0    0 -0.31895866699E+03 -0.57700243858E+03  0.13849890487E+04  0.17778564300E+04  0.89883946030E+03 0.  0.
         23    2    4    4    0    0 -0.55848780663E+03 -0.63509836310E+03  0.99597390765E+03  0.13096830836E+04  0.89706151925E+02 0.  0.
         23    2    4    4    0    0  0.23952913964E+03  0.58095924512E+02  0.38901514106E+03  0.46817334647E+03  0.84286162504E+02 0.  0.
          3    1    3    3  502    0  0.27255638018E+03  0.42577266916E+03 -0.72899513837E+03  0.88713204088E+03  0.00000000000E+00 0. -1.
         -3    1    3    3    0  502  0.46402286805E+02  0.15122976943E+03 -0.17979759285E+03  0.23948024924E+03  0.00000000000E+00 0.  1.
         11    1    5    5    0    0 -0.42124359299E+03 -0.41893803275E+03  0.67926568110E+03  0.90241736765E+03  0.00000000000E+00 0. -1.
        -11    1    5    5    0    0 -0.13724421364E+03 -0.21616033035E+03  0.31670822655E+03  0.40726571591E+03  0.00000000000E+00 0.  1.
          1    1    6    6  503    0  0.19831007616E+03  0.57110408096E+02  0.36795322642E+03  0.42187446219E+03  0.00000000000E+00 0. -1.
         -1    1    6    6    0  503  0.41219063481E+02  0.98551641649E+00  0.21061914639E+02  0.46298884275E+02  0.00000000000E+00 0.  1.
<mgrwt>
<rscale>  0 0.28651659E+04</rscale>
<asrwt>0</asrwt>
<pdfrwt beam="1">  1        1 0.18679018E+00 0.28651659E+04</pdfrwt>
<pdfrwt beam="2">  1       -1 0.26005116E+00 0.28651659E+04</pdfrwt>
<totfact> 0.53856669E-01</totfact>
</mgrwt>
</event>
<event>
12    2  0.3555611E-008  0.1401822E+04  0.7818608E-02  0.8952501E-01
         -2   -1    0    0    0  501 -0.00000000000E+00  0.00000000000E+00  0.28263543996E+03  0.28263543996E+03  0.00000000000E+00 0.  1.
          2   -1    0    0  501    0  0.00000000000E+00 -0.00000000000E+00 -0.17381981333E+04  0.17381981333E+04  0.00000000000E+00 0. -1.
         23    2    1    2    0    0 -0.35369369173E+03 -0.10636801998E+03 -0.64396792591E+03  0.75053683336E+03  0.11044213592E+03 0.  0.
        254    2    1    2    0    0  0.35369369173E+03  0.10636801998E+03 -0.81159476743E+03  0.12702967399E+04  0.90473993922E+03 0.  0.
         23    2    4    4    0    0  0.30747847610E+03 -0.21763112699E+03 -0.84354770057E+03  0.92815024051E+03  0.89352253096E+02 0.  0.
         23    2    4    4    0    0  0.46215215626E+02  0.32399914697E+03  0.31952933134E+02  0.34214649938E+03  0.94508961029E+02 0.  0.
          3    1    3    3  502    0 -0.14334542020E+03 -0.59737088388E+01 -0.32708160357E+03  0.35716378608E+03  0.00000000000E+00 0. -1.
         -3    1    3    3    0  502 -0.21034827152E+03 -0.10039431114E+03 -0.31688632233E+03  0.39337304728E+03  0.00000000000E+00 0.  1.
         11    1    5    5    0    0  0.24222140204E+01  0.26929508032E+01  0.83147641377E+00  0.37162424323E+01  0.00000000000E+00 0. -1.
        -11    1    5    5    0    0  0.30505626208E+03 -0.22032407779E+03 -0.84437917698E+03  0.92443399808E+03  0.00000000000E+00 0.  1.
          1    1    6    6  503    0 -0.10610829733E+02  0.14005963840E+02 -0.15505582564E+02  0.23434586008E+02  0.00000000000E+00 0. -1.
         -1    1    6    6    0  503  0.56826045359E+02  0.30999318313E+03  0.47458515698E+02  0.31871191338E+03  0.00000000000E+00 0.  1.
<mgrwt>
<rscale>  0 0.14018222E+04</rscale>
<asrwt>0</asrwt>
<pdfrwt beam="1">  1        2 0.26741510E+00 0.14018222E+04</pdfrwt>
<pdfrwt beam="2">  1       -2 0.43482375E-01 0.14018222E+04</pdfrwt>
<totfact> 0.45575517E+01</totfact>
</mgrwt>
</event>
<event>
12    2  0.3555611E-008  0.1603127E+04  0.7818608E-02  0.8818630E-01
         -1   -1    0    0    0  501 -0.00000000000E+00  0.00000000000E+00  0.16014973302E+03  0.16014973302E+03  0.00000000000E+00 0.  1.
          1   -1    0    0  501    0  0.00000000000E+00 -0.00000000000E+00 -0.40118935547E+04  0.40118935547E+04  0.00000000000E+00 0. -1.
         23    2    1    2    0    0 -0.17794312152E+03 -0.32886272612E+03 -0.34573936374E+03  0.51720027380E+03  0.90255019014E+02 0.  0.
        254    2    1    2    0    0  0.17794312152E+03  0.32886272612E+03 -0.35060044579E+04  0.36548430139E+04  0.96228672970E+03 0.  0.
         23    2    4    4    0    0  0.41988379018E+03  0.73213147681E+02 -0.29961197853E+04  0.30276803987E+04  0.91936208282E+02 0.  0.
         23    2    4    4    0    0 -0.24194066865E+03  0.25564957844E+03 -0.50988467264E+03  0.62716261525E+03  0.97255192480E+02 0.  0.
          4    1    3    3  502    0 -0.12760424667E+02 -0.40060935520E+02 -0.83805183755E+02  0.93760417110E+02  0.00000000000E+00 0. -1.
         -4    1    3    3    0  502 -0.16518269685E+03 -0.28880179060E+03 -0.26193417998E+03  0.42343985669E+03  0.00000000000E+00 0.  1.
         11    1    5    5    0    0  0.23322522518E+03  0.19131407745E+02 -0.13503048485E+04  0.13704317569E+04  0.00000000000E+00 0. -1.
        -11    1    5    5    0    0  0.18665856499E+03  0.54081739936E+02 -0.16458149368E+04  0.16572486418E+04  0.00000000000E+00 0.  1.
          2    1    6    6  503    0 -0.10237840077E+03  0.14907850580E+03 -0.19038530518E+03  0.26258770395E+03  0.00000000000E+00 0. -1.
         -2    1    6    6    0  503 -0.13956226788E+03  0.10657107264E+03 -0.31949936746E+03  0.36457491130E+03  0.00000000000E+00 0.  1.
<mgrwt>
<rscale>  0 0.16031265E+04</rscale>
<asrwt>0</asrwt>
<pdfrwt beam="1">  1        1 0.61721433E+00 0.16031265E+04</pdfrwt>
<pdfrwt beam="2">  1       -1 0.24638423E-01 0.16031265E+04</pdfrwt>
<totfact> 0.13118535E+00</totfact>
</mgrwt>
</event>
<event>
12    2  0.3555611E-008  0.1845371E+04  0.7818608E-02  0.8682537E-01
          2   -1    0    0  501    0  0.00000000000E+00  0.00000000000E+00  0.10823456835E+04  0.10823456835E+04  0.00000000000E+00 0. -1.
         -2   -1    0    0    0  501 -0.00000000000E+00 -0.00000000000E+00 -0.78657723009E+03  0.78657723009E+03  0.00000000000E+00 0.  1.
         23    2    1    2    0    0 -0.37340874401E+03  0.19598760677E+03  0.67892284304E+03  0.80428821970E+03  0.89989340671E+02 0.  0.
        254    2    1    2    0    0  0.37340874401E+03 -0.19598760677E+03 -0.38315438964E+03  0.10646346939E+04  0.89933003564E+03 0.  0.
         23    2    4    4    0    0 -0.37266014631E+02  0.31113154996E+03 -0.68319883297E+02  0.33445483129E+03  0.94872706800E+02 0.  0.
         23    2    4    4    0    0  0.41067475864E+03 -0.50711915672E+03 -0.31483450634E+03  0.73017986259E+03  0.90654668067E+02 0.  0.
          1    1    3    3  502    0 -0.37434020180E+03  0.19108948205E+03  0.64401477472E+03  0.76902588181E+03  0.00000000000E+00 0. -1.
         -1    1    3    3    0  502  0.93145779646E+00  0.48981247158E+01  0.34908068321E+02  0.35262337887E+02  0.00000000000E+00 0.  1.
         11    1    5    5    0    0 -0.25881618670E+01  0.19492283869E+03 -0.83818427998E+02  0.21219599548E+03  0.00000000000E+00 0.  1.
        -11    1    5    5    0    0 -0.34677852764E+02  0.11620871127E+03  0.15498544701E+02  0.12225883582E+03  0.00000000000E+00 0. -1.
          3    1    6    6  503    0  0.40148077989E+03 -0.47875113080E+03 -0.31632478388E+03  0.70032194794E+03  0.00000000000E+00 0. -1.
         -3    1    6    6    0  503  0.91939787452E+01 -0.28368025924E+02  0.14902775382E+01  0.29857914648E+02  0.00000000000E+00 0.  1.
<mgrwt>
<rscale>  0 0.18453709E+04</rscale>
<asrwt>0</asrwt>
<pdfrwt beam="1">  1        2 0.16651472E+00 0.18453709E+04</pdfrwt>
<pdfrwt beam="2">  1       -2 0.12101188E+00 0.18453709E+04</pdfrwt>
<totfact> 0.10929920E+01</totfact>
</mgrwt>
</event>
<event>
12    2  0.3555611E-008  0.2365576E+04  0.7818608E-02  0.8452505E-01
          2   -1    0    0  501    0  0.00000000000E+00  0.00000000000E+00  0.19281820937E+04  0.19281820937E+04  0.00000000000E+00 0. -1.
         -2   -1    0    0    0  501 -0.00000000000E+00 -0.00000000000E+00 -0.72554762491E+03  0.72554762491E+03  0.00000000000E+00 0.  1.
         23    2    1    2    0    0  0.22247467105E+03 -0.92721060825E+03  0.90549990214E+03  0.13181222862E+04  0.91114198590E+02 0.  0.
        254    2    1    2    0    0 -0.22247467105E+03  0.92721060825E+03  0.29713456670E+03  0.13356074325E+04  0.88676026732E+03 0.  0.
         23    2    4    4    0    0 -0.24870164542E+03 -0.31958014798E+01  0.30077903876E+03  0.40055759522E+03  0.90086821162E+02 0.  0.
         23    2    4    4    0    0  0.26226974377E+02  0.93040640973E+03 -0.36444720666E+01  0.93504983727E+03  0.89224293522E+02 0.  0.
          2    1    3    3  502    0  0.91931521071E+01 -0.34724393774E+01  0.89665473738E+01  0.13303039228E+02  0.00000000000E+00 0.  1.
         -2    1    3    3    0  502  0.21328151894E+03 -0.92373816887E+03  0.89653335476E+03  0.13048192469E+04  0.00000000000E+00 0. -1.
         11    1    5    5    0    0 -0.23409885251E+03 -0.27982818601E+02  0.26820539318E+03  0.35709864718E+03  0.00000000000E+00 0.  1.
        -11    1    5    5    0    0 -0.14602792910E+02  0.24787017122E+02  0.32573645583E+02  0.43458948044E+02  0.00000000000E+00 0. -1.
          2    1    6    6  503    0  0.16717961890E+02  0.37177323681E+02  0.87157658200E+01  0.41684628098E+02  0.00000000000E+00 0. -1.
         -2    1    6    6    0  503  0.95090124865E+01  0.89322908605E+03 -0.12360237887E+02  0.89336520917E+03  0.00000000000E+00 0.  1.
<mgrwt>
<rscale>  0 0.23655764E+04</rscale>
<asrwt>0</asrwt>
<pdfrwt beam="1">  1        2 0.29664340E+00 0.23655764E+04</pdfrwt>
<pdfrwt beam="2">  1       -2 0.11162271E+00 0.23655764E+04</pdfrwt>
<totfact> 0.41881701E+00</totfact>
</mgrwt>
</event>
<event>
12    2  0.3555611E-008  0.1103171E+04  0.7818608E-02  0.9202106E-01
         -2   -1    0    0    0  501 -0.00000000000E+00  0.00000000000E+00  0.18017020653E+03  0.18017020653E+03  0.00000000000E+00 0.  1.
          2   -1    0    0  501    0  0.00000000000E+00 -0.00000000000E+00 -0.16886631944E+04  0.16886631944E+04  0.00000000000E+00 0. -1.
         23    2    1    2    0    0 -0.16588353100E+03  0.14642844027E+02 -0.23721042215E+03  0.30410934664E+03  0.92097511375E+02 0.  0.
        254    2    1    2    0    0  0.16588353100E+03 -0.14642844027E+02 -0.12712825657E+04  0.15647240543E+04  0.89692265299E+03 0.  0.
         23    2    4    4    0    0 -0.22219347014E+03  0.15633562588E+03 -0.10270987540E+04  0.10670264280E+04  0.99008996694E+02 0.  0.
         23    2    4    4    0    0  0.38807700114E+03 -0.17097846991E+03 -0.24418381167E+03  0.49769762628E+03  0.90773329439E+02 0.  0.
          3    1    3    3  502    0 -0.15015885195E+02  0.23053276835E+02 -0.86198296485E+02  0.90482466246E+02  0.00000000000E+00 0. -1.
         -3    1    3    3    0  502 -0.15086764580E+03 -0.84104328081E+01 -0.15101212566E+03  0.21362688039E+03  0.00000000000E+00 0.  1.
         11    1    5    5    0    0 -0.50113050498E+02  0.74653400434E+02 -0.46256680439E+03  0.47122446514E+03  0.00000000000E+00 0.  1.
        -11    1    5    5    0    0 -0.17208041964E+03  0.81682225444E+02 -0.56453194964E+03  0.59580196286E+03  0.00000000000E+00 0. -1.
          1    1    6    6  503    0  0.20378286765E+03 -0.91330830036E+02 -0.18028903403E+03  0.28700681778E+03  0.00000000000E+00 0. -1.
         -1    1    6    6    0  503  0.18429413349E+03 -0.79647639869E+02 -0.63894777647E+02  0.21069080850E+03  0.00000000000E+00 0.  1.
<mgrwt>
<rscale>  0 0.11031714E+04</rscale>
<asrwt>0</asrwt>
<pdfrwt beam="1">  1        2 0.25979434E+00 0.11031714E+04</pdfrwt>
<pdfrwt beam="2">  1       -2 0.27718493E-01 0.11031714E+04</pdfrwt>
<totfact> 0.11730230E+02</totfact>
</mgrwt>
</event>
<event>
12    2  0.3555611E-008  0.3363092E+04  0.7818608E-02  0.8147025E-01
          1   -1    0    0  501    0  0.00000000000E+00  0.00000000000E+00  0.35406948569E+04  0.35406948569E+04  0.00000000000E+00 0. -1.
         -1   -1    0    0    0  501 -0.00000000000E+00 -0.00000000000E+00 -0.79859964303E+03  0.79859964303E+03  0.00000000000E+00 0.  1.
         23    2    1    2    0    0  0.12211626129E+04  0.96843931748E+03  0.12846839253E+04  0.20217519080E+04  0.89191651325E+02 0.  0.
        254    2    1    2    0    0 -0.12211626129E+04 -0.96843931748E+03  0.14574112885E+04  0.23175425919E+04  0.90434681547E+03 0.  0.
         23    2    4    4    0    0 -0.71732397455E+03 -0.89191678127E+03  0.13773272469E+04  0.17932643141E+04  0.93259456591E+02 0.  0.
         23    2    4    4    0    0 -0.50383863835E+03 -0.76522536206E+02  0.80084041653E+02  0.52427827777E+03  0.93515703332E+02 0.  0.
          3    1    3    3  502    0  0.47825787820E+03  0.42640370278E+03  0.55834714050E+03  0.84988366563E+03  0.00000000000E+00 0. -1.
         -3    1    3    3    0  502  0.74290473470E+03  0.54203561470E+03  0.72633678481E+03  0.11718682423E+04  0.00000000000E+00 0.  1.
         11    1    5    5    0    0 -0.70797588332E+03 -0.88819324409E+03  0.13739415598E+04  0.17826476096E+04  0.00000000000E+00 0. -1.
        -11    1    5    5    0    0 -0.93480912321E+01 -0.37235371828E+01  0.33856870667E+01  0.10616704562E+02  0.00000000000E+00 0.  1.
          4    1    6    6  503    0 -0.36802773628E+03 -0.50023988463E+02  0.15918479142E+02  0.37175289114E+03  0.00000000000E+00 0. -1.
         -4    1    6    6    0  503 -0.13581090207E+03 -0.26498547743E+02  0.64165562510E+02  0.15252538663E+03  0.00000000000E+00 0.  1.
<mgrwt>
<rscale>  0 0.33630924E+04</rscale>
<asrwt>0</asrwt>
<pdfrwt beam="1">  1        1 0.54472228E+00 0.33630924E+04</pdfrwt>
<pdfrwt beam="2">  1       -1 0.12286149E+00 0.33630924E+04</pdfrwt>
<totfact> 0.11168025E-01</totfact>
</mgrwt>
</event>
<event>
12    2  0.3555611E-008  0.1611722E+04  0.7818608E-02  0.8813379E-01
          2   -1    0    0  501    0  0.00000000000E+00  0.00000000000E+00  0.59623387021E+03  0.59623387021E+03  0.00000000000E+00 0. -1.
         -2   -1    0    0    0  501 -0.00000000000E+00 -0.00000000000E+00 -0.10891903270E+04  0.10891903270E+04  0.00000000000E+00 0.  1.
         23    2    1    2    0    0 -0.17812442669E+03 -0.17543424454E+03 -0.69496670930E+03  0.74425618710E+03  0.91831690959E+02 0.  0.
        254    2    1    2    0    0  0.17812442669E+03  0.17543424454E+03  0.20201025249E+03  0.94116801014E+03  0.88458102832E+03 0.  0.
         23    2    4    4    0    0  0.24312074386E+03 -0.29122097620E+03 -0.61476018862E+02  0.39450445943E+03  0.89090485108E+02 0.  0.
         23    2    4    4    0    0 -0.64996317170E+02  0.46665522075E+03  0.26348627135E+03  0.54666355071E+03  0.86164994023E+02 0.  0.
          4    1    3    3  502    0 -0.58672239065E+02 -0.34823584056E+02 -0.97873001629E+02  0.11930732623E+03  0.00000000000E+00 0. -1.
         -4    1    3    3    0  502 -0.11945218762E+03 -0.14061066049E+03 -0.59709370767E+03  0.62494886088E+03  0.00000000000E+00 0.  1.
         11    1    5    5    0    0  0.12669252864E+03 -0.21300357730E+03 -0.22083820120E+02  0.24881562625E+03  0.00000000000E+00 0. -1.
        -11    1    5    5    0    0  0.11642821522E+03 -0.78217398902E+02 -0.39392198741E+02  0.14568883317E+03  0.00000000000E+00 0.  1.
          4    1    6    6  503    0 -0.65876614314E+02  0.44014846208E+03  0.26835808384E+03  0.51969843000E+03  0.00000000000E+00 0. -1.
         -4    1    6    6    0  503  0.88029714365E+00  0.26506758666E+02 -0.48718124913E+01  0.26965120712E+02  0.00000000000E+00 0.  1.
<mgrwt>
<rscale>  0 0.16117223E+04</rscale>
<asrwt>0</asrwt>
<pdfrwt beam="1">  1        2 0.91728288E-01 0.16117223E+04</pdfrwt>
<pdfrwt beam="2">  1       -2 0.16756774E+00 0.16117223E+04</pdfrwt>
<totfact> 0.10612605E+01</totfact>
</mgrwt>
</event>
<event>
12    2  0.3555611E-008  0.2971890E+04  0.7818608E-02  0.8251804E-01
         -1   -1    0    0    0  501 -0.00000000000E+00  0.00000000000E+00  0.14550745426E+04  0.14550745426E+04  0.00000000000E+00 0.  1.
          1   -1    0    0  501    0  0.00000000000E+00 -0.00000000000E+00 -0.15174700330E+04  0.15174700330E+04  0.00000000000E+00 0. -1.
         23    2    1    2    0    0 -0.55123468936E+03  0.11529929536E+04 -0.45687261799E+03  0.13602454522E+04  0.91009161356E+02 0.  0.
        254    2    1    2    0    0  0.55123468936E+03 -0.11529929536E+04  0.39447712762E+03  0.16122991234E+04  0.90035760975E+03 0.  0.
         23    2    4    4    0    0 -0.19731462850E+01 -0.95779880716E+03  0.16677236532E+03  0.97652714837E+03  0.91704969065E+02 0.  0.
         23    2    4    4    0    0  0.55320783564E+03 -0.19519414640E+03  0.22770476230E+03  0.63577197505E+03  0.90647014724E+02 0.  0.
          4    1    3    3  502    0 -0.53378275733E+03  0.11329095630E+04 -0.43485452985E+03  0.13257098370E+04  0.00000000000E+00 0. -1.
         -4    1    3    3    0  502 -0.17451932030E+02  0.20083390586E+02 -0.22018088139E+02  0.34535615158E+02  0.00000000000E+00 0.  1.
         11    1    5    5    0    0 -0.39570288531E+02 -0.24683489961E+03  0.52868037172E+02  0.25551576225E+03  0.00000000000E+00 0. -1.
        -11    1    5    5    0    0  0.37597142246E+02 -0.71096390755E+03  0.11390432815E+03  0.72101138612E+03  0.00000000000E+00 0.  1.
          2    1    6    6  503    0  0.20138230158E+02  0.95556579736E+01  0.50151614369E+01  0.22847554736E+02  0.00000000000E+00 0. -1.
         -2    1    6    6    0  503  0.53306960548E+03 -0.20474980437E+03  0.22268960087E+03  0.61292442031E+03  0.00000000000E+00 0.  1.
<mgrwt>
<rscale>  0 0.29718896E+04</rscale>
<asrwt>0</asrwt>
<pdfrwt beam="1">  1        1 0.23345693E+00 0.29718896E+04</pdfrwt>
<pdfrwt beam="2">  1       -1 0.22385762E+00 0.29718896E+04</pdfrwt>
<totfact> 0.56284005E-01</totfact>
</mgrwt>
</event>
<event>
12    2  0.3555611E-008  0.1602455E+04  0.7818608E-02  0.8819041E-01
          2   -1    0    0  501    0  0.00000000000E+00  0.00000000000E+00  0.24524523341E+04  0.24524523341E+04  0.00000000000E+00 0.  1.
         -2   -1    0    0    0  501 -0.00000000000E+00 -0.00000000000E+00 -0.26176480696E+03  0.26176480696E+03  0.00000000000E+00 0. -1.
         23    2    1    2    0    0 -0.14389448303E+03 -0.22223072156E+03  0.15593998006E+04  0.15843357319E+04  0.91103552040E+02 0.  0.
        254    2    1    2    0    0  0.14389448303E+03  0.22223072156E+03  0.63128772651E+03  0.11298814092E+04  0.89889692923E+03 0.  0.
         23    2    4    4    0    0 -0.66319494156E+02 -0.66717453306E+02  0.73530076256E+03  0.74665524765E+03  0.89316031848E+02 0.  0.
         23    2    4    4    0    0  0.21021397719E+03  0.28894817486E+03 -0.10401303605E+03  0.38322616155E+03  0.91447336036E+02 0.  0.
          3    1    3    3  502    0 -0.62005118332E+01  0.89345647116E+01  0.55408592017E+02  0.56465784887E+02  0.00000000000E+00 0. -1.
         -3    1    3    3    0  502 -0.13769397120E+03 -0.23116528627E+03  0.15039912086E+04  0.15278699470E+04  0.00000000000E+00 0.  1.
         11    1    5    5    0    0 -0.65532847977E+02 -0.21872206692E+02  0.60329307033E+03  0.60723593133E+03  0.00000000000E+00 0. -1.
        -11    1    5    5    0    0 -0.78664617902E+00 -0.44845246615E+02  0.13200769223E+03  0.13941931633E+03  0.00000000000E+00 0.  1.
          3    1    6    6  503    0  0.49561401730E+02  0.57012653393E+02 -0.62503691483E+02  0.98048389264E+02  0.00000000000E+00 0. -1.
         -3    1    6    6    0  503  0.16065257546E+03  0.23193552147E+03 -0.41509344570E+02  0.28517777229E+03  0.00000000000E+00 0.  1.
<mgrwt>
<rscale>  0 0.16024553E+04</rscale>
<asrwt>0</asrwt>
<pdfrwt beam="1">  1        2 0.37730034E+00 0.16024553E+04</pdfrwt>
<pdfrwt beam="2">  1       -2 0.40271510E-01 0.16024553E+04</pdfrwt>
<totfact> 0.20791302E+01</totfact>
</mgrwt>
</event>
<event>
12    2  0.3555611E-008  0.2108015E+04  0.7818608E-02  0.8557721E-01
         -1   -1    0    0    0  501 -0.00000000000E+00  0.00000000000E+00  0.12831371962E+04  0.12831371962E+04  0.00000000000E+00 0.  1.
          1   -1    0    0  501    0  0.00000000000E+00 -0.00000000000E+00 -0.86579328064E+03  0.86579328064E+03  0.00000000000E+00 0. -1.
         23    2    1    2    0    0  0.42929404018E+03 -0.52068994160E+03  0.71195625007E+03  0.98541278235E+03  0.93516102317E+02 0.  0.
        254    2    1    2    0    0 -0.42929404018E+03  0.52068994160E+03 -0.29461233450E+03  0.11635176945E+04  0.90086936319E+03 0.  0.
         23    2    4    4    0    0 -0.51796206886E+03  0.14900700578E+03  0.15362193825E+03  0.56747827427E+03  0.89129676937E+02 0.  0.
         23    2    4    4    0    0  0.88668028679E+02  0.37168293582E+03 -0.44823427275E+03  0.59603942022E+03  0.91317047121E+02 0.  0.
          3    1    3    3  502    0  0.30417612183E+03 -0.34408771727E+03  0.42291865768E+03  0.62432336275E+03  0.00000000000E+00 0. -1.
         -3    1    3    3    0  502  0.12511791835E+03 -0.17660222433E+03  0.28903759239E+03  0.36108941960E+03  0.00000000000E+00 0.  1.
         11    1    5    5    0    0 -0.23349706592E+02  0.26025486336E+02 -0.64552296793E+00  0.34970722567E+02  0.00000000000E+00 0. -1.
        -11    1    5    5    0    0 -0.49461236226E+03  0.12298151944E+03  0.15426746122E+03  0.53250755170E+03  0.00000000000E+00 0.  1.
          1    1    6    6  503    0 -0.16838667774E+02  0.22597289878E+02 -0.33278028516E+02  0.43607401025E+02  0.00000000000E+00 0. -1.
         -1    1    6    6    0  503  0.10550669645E+03  0.34908564594E+03 -0.41495624424E+03  0.55243201919E+03  0.00000000000E+00 0.  1.
<mgrwt>
<rscale>  0 0.21080148E+04</rscale>
<asrwt>0</asrwt>
<pdfrwt beam="1">  1        1 0.13319897E+00 0.21080148E+04</pdfrwt>
<pdfrwt beam="2">  1       -1 0.19740572E+00 0.21080148E+04</pdfrwt>
<totfact> 0.27999960E+00</totfact>
</mgrwt>
</event>
<event>
12    2  0.3555611E-008  0.1185039E+04  0.7818608E-02  0.9126054E-01
         -2   -1    0    0    0  501 -0.00000000000E+00  0.00000000000E+00  0.21074444315E+03  0.21074444315E+03  0.00000000000E+00 0. -1.
          2   -1    0    0  501    0  0.00000000000E+00 -0.00000000000E+00 -0.16659007635E+04  0.16659007635E+04  0.00000000000E+00 0.  1.
         23    2    1    2    0    0  0.62399004698E+02 -0.15839428692E+03 -0.54654280485E+03  0.57999726305E+03  0.93302742180E+02 0.  0.
        254    2    1    2    0    0 -0.62399004698E+02  0.15839428692E+03 -0.90861351548E+03  0.12966479436E+04  0.90924968141E+03 0.  0.
         23    2    4    4    0    0  0.20002532604E+03 -0.26946630549E+03 -0.61552297757E+03  0.70713418862E+03  0.92455415988E+02 0.  0.
         23    2    4    4    0    0 -0.26242433074E+03  0.42786059242E+03 -0.29309053791E+03  0.58951375495E+03  0.98453989064E+02 0.  0.
          4    1    3    3  502    0  0.29141845203E+02 -0.96354303740E+01 -0.36636396972E+02  0.47794500138E+02  0.00000000000E+00 0. -1.
         -4    1    3    3    0  502  0.33257159495E+02 -0.14875885655E+03 -0.50990640788E+03  0.53220276291E+03  0.00000000000E+00 0.  1.
         11    1    5    5    0    0  0.31524329869E+01 -0.35278580224E+02 -0.11674620652E+03  0.12200079013E+03  0.00000000000E+00 0. -1.
        -11    1    5    5    0    0  0.19687289305E+03 -0.23418772527E+03 -0.49877677105E+03  0.58513339849E+03  0.00000000000E+00 0.  1.
          3    1    6    6  503    0 -0.23423310449E+01  0.60331300380E+02 -0.23907675840E+02  0.64937887896E+02  0.00000000000E+00 0. -1.
         -3    1    6    6    0  503 -0.26008199969E+03  0.36752929204E+03 -0.26918286207E+03  0.52457586706E+03  0.00000000000E+00 0.  1.
<mgrwt>
<rscale>  0 0.11850390E+04</rscale>
<asrwt>0</asrwt>
<pdfrwt beam="1">  1        2 0.25629243E+00 0.11850390E+04</pdfrwt>
<pdfrwt beam="2">  1       -2 0.32422221E-01 0.11850390E+04</pdfrwt>
<totfact> 0.89652723E+01</totfact>
</mgrwt>
</event>
<event>
12    2  0.3555611E-008  0.3326530E+04  0.7818608E-02  0.8156178E-01
          2   -1    0    0  501    0  0.00000000000E+00  0.00000000000E+00  0.29192433363E+04  0.29192433363E+04  0.00000000000E+00 0. -1.
         -2   -1    0    0    0  501 -0.00000000000E+00 -0.00000000000E+00 -0.94765991371E+03  0.94765991371E+03  0.00000000000E+00 0.  1.
         23    2    1    2    0    0 -0.12002405726E+04  0.82931074173E+02 -0.19629270684E+03  0.12224241245E+04  0.91295772230E+02 0.  0.
        254    2    1    2    0    0  0.12002405726E+04 -0.82931074173E+02  0.21678761295E+04  0.26444791256E+04  0.91985212813E+03 0.  0.
         23    2    4    4    0    0  0.68957903252E+02 -0.78455381145E+02 -0.53754868888E+02  0.14976329085E+03  0.92892508331E+02 0.  0.
         23    2    4    4    0    0  0.11312826694E+04 -0.44756930283E+01  0.22216309983E+04  0.24947158347E+04  0.90234657051E+02 0.  0.
          4    1    3    3  502    0 -0.83062148783E+02 -0.16227166982E+02 -0.62057804763E+01  0.84859608885E+02  0.00000000000E+00 0. -1.
         -4    1    3    3    0  502 -0.11171784239E+04  0.99158241156E+02 -0.19008692636E+03  0.11375645156E+04  0.00000000000E+00 0.  1.
         11    1    5    5    0    0  0.37596063184E+02  0.15455747867E+02 -0.12787320739E+02  0.42612905096E+02  0.00000000000E+00 0. -1.
        -11    1    5    5    0    0  0.31361840068E+02 -0.93911129012E+02 -0.40967548149E+02  0.10715038575E+03  0.00000000000E+00 0.  1.
          1    1    6    6  503    0  0.34483430525E+03 -0.42848742474E+02  0.68601263026E+03  0.76899937691E+03  0.00000000000E+00 0. -1.
         -1    1    6    6    0  503  0.78644836414E+03  0.38373049446E+02  0.15356183681E+04  0.17257164578E+04  0.00000000000E+00 0.  1.
<mgrwt>
<rscale>  0 0.33265297E+04</rscale>
<asrwt>0</asrwt>
<pdfrwt beam="1">  1        2 0.44911435E+00 0.33265297E+04</pdfrwt>
<pdfrwt beam="2">  1       -2 0.14579383E+00 0.33265297E+04</pdfrwt>
<totfact> 0.52591798E-01</totfact>
</mgrwt>
</event>
<event>
12    2  0.3555611E-008  0.1842568E+04  0.7818608E-02  0.8683984E-01
         -1   -1    0    0    0  501 -0.00000000000E+00  0.00000000000E+00  0.11147279828E+04  0.11147279828E+04  0.00000000000E+00 0.  1.
          1   -1    0    0  501    0  0.00000000000E+00 -0.00000000000E+00 -0.76140931077E+03  0.76140931077E+03  0.00000000000E+00 0. -1.
         23    2    1    2    0    0  0.20526605629E+03 -0.33368352543E+03 -0.45590510447E+03  0.60721221139E+03  0.85897359542E+02 0.  0.
        254    2    1    2    0    0 -0.20526605629E+03  0.33368352543E+03  0.80922377650E+03  0.12689250822E+04  0.89546015808E+03 0.  0.
         23    2    4    4    0    0 -0.12016956394E+03  0.49668648169E+03  0.90385336244E+03  0.10425650178E+04  0.94088949689E+02 0.  0.
         23    2    4    4    0    0 -0.85096492349E+02 -0.16300295626E+03 -0.94629585933E+02  0.22636006434E+03  0.92047506397E+02 0.  0.
          1    1    3    3  502    0  0.16667657427E+03 -0.27213631411E+03 -0.41607833616E+03  0.52436669964E+03  0.00000000000E+00 0. -1.
         -1    1    3    3    0  502  0.38589482027E+02 -0.61547211316E+02 -0.39826768304E+02  0.82845511752E+02  0.00000000000E+00 0.  1.
         11    1    5    5    0    0 -0.26544781779E+01  0.19449891298E+02  0.87509402830E+02  0.89684112917E+02  0.00000000000E+00 0. -1.
        -11    1    5    5    0    0 -0.11751508577E+03  0.47723659039E+03  0.81634395961E+03  0.95288090493E+03  0.00000000000E+00 0.  1.
          4    1    6    6  503    0 -0.34401209863E+01 -0.55768813893E+02  0.86697957993E+01  0.56543438122E+02  0.00000000000E+00 0. -1.
         -4    1    6    6    0  503 -0.81656371363E+02 -0.10723414236E+03 -0.10329938173E+03  0.16981662621E+03  0.00000000000E+00 0.  1.
<mgrwt>
<rscale>  0 0.18425681E+04</rscale>
<asrwt>0</asrwt>
<pdfrwt beam="1">  1        1 0.11713989E+00 0.18425681E+04</pdfrwt>
<pdfrwt beam="2">  1       -1 0.17149661E+00 0.18425681E+04</pdfrwt>
<totfact> 0.53951233E+00</totfact>
</mgrwt>
</event>
<event>
12    2  0.3555611E-008  0.3451991E+04  0.7818608E-02  0.8125263E-01
          2   -1    0    0  501    0  0.00000000000E+00  0.00000000000E+00  0.18531576205E+04  0.18531576205E+04  0.00000000000E+00 0.  1.
         -2   -1    0    0    0  501 -0.00000000000E+00 -0.00000000000E+00 -0.16075587412E+04  0.16075587412E+04  0.00000000000E+00 0. -1.
         23    2    1    2    0    0  0.12534814195E+04 -0.96602718153E+02 -0.85211059270E+03  0.15214127906E+04  0.89758914785E+02 0.  0.
        254    2    1    2    0    0 -0.12534814195E+04  0.96602718153E+02  0.10977094719E+04  0.19393035711E+04  0.98761556383E+03 0.  0.
         23    2    4    4    0    0 -0.13112740644E+04  0.51314259464E+02  0.12022387658E+04  0.17820651074E+04  0.91132714363E+02 0.  0.
         23    2    4    4    0    0  0.57792644895E+02  0.45288458689E+02 -0.10452929388E+03  0.15723846375E+03  0.91687114199E+02 0.  0.
          2    1    3    3  502    0  0.31990075003E+03 -0.23769149413E+01 -0.25620701071E+03  0.40985872192E+03  0.00000000000E+00 0.  1.
         -2    1    3    3    0  502  0.93358066952E+03 -0.94225803212E+02 -0.59590358198E+03  0.11115540686E+04  0.00000000000E+00 0. -1.
         11    1    5    5    0    0 -0.50345301270E+03 -0.22396963141E+02  0.47957699211E+03  0.69567280478E+03  0.00000000000E+00 0. -1.
        -11    1    5    5    0    0 -0.80782105174E+03  0.73711222605E+02  0.72266177369E+03  0.10863923026E+04  0.00000000000E+00 0.  1.
          2    1    6    6  503    0  0.55773787310E+02  0.50076912655E+02 -0.11968344619E+03  0.14121805771E+03  0.00000000000E+00 0. -1.
         -2    1    6    6    0  503  0.20188575850E+01 -0.47884539660E+01  0.15154152313E+02  0.16020406040E+02  0.00000000000E+00 0.  1.
<mgrwt>
<rscale>  0 0.34519906E+04</rscale>
<asrwt>0</asrwt>
<pdfrwt beam="1">  1        2 0.28510117E+00 0.34519906E+04</pdfrwt>
<pdfrwt beam="2">  1       -2 0.24731673E+00 0.34519906E+04</pdfrwt>
<totfact> 0.44398833E-01</totfact>
</mgrwt>
</event>
<event>
12    2  0.3555611E-008  0.1231847E+04  0.7818608E-02  0.9085428E-01
          2   -1    0    0  501    0  0.00000000000E+00  0.00000000000E+00  0.80456443463E+03  0.80456443463E+03  0.00000000000E+00 0. -1.
         -2   -1    0    0    0  501 -0.00000000000E+00 -0.00000000000E+00 -0.47151224235E+03  0.47151224235E+03  0.00000000000E+00 0.  1.
         23    2    1    2    0    0 -0.16481528809E+03  0.10160754902E+03 -0.65802438897E+02  0.22438468904E+03  0.92359918294E+02 0.  0.
        254    2    1    2    0    0  0.16481528809E+03 -0.10160754902E+03  0.39885463118E+03  0.10516919879E+04  0.95366810133E+03 0.  0.
         23    2    4    4    0    0 -0.43916428002E+02  0.96666202448E+02  0.64583510955E+03  0.66065675188E+03  0.89951919023E+02 0.  0.
         23    2    4    4    0    0  0.20873171609E+03 -0.19827375147E+03 -0.24698047837E+03  0.39103523606E+03  0.95014679534E+02 0.  0.
          3    1    3    3  502    0  0.19258240717E+01  0.10725328295E+02  0.14555010055E+02  0.18182128124E+02  0.00000000000E+00 0. -1.
         -3    1    3    3    0  502 -0.16674111216E+03  0.90882220723E+02 -0.80357448952E+02  0.20620256092E+03  0.00000000000E+00 0.  1.
         11    1    5    5    0    0 -0.36868150734E+02  0.11431316389E+03  0.56304787241E+03  0.57571665479E+03  0.00000000000E+00 0.  1.
        -11    1    5    5    0    0 -0.70482772682E+01 -0.17646961445E+02  0.82787237138E+02  0.84940097089E+02  0.00000000000E+00 0. -1.
          1    1    6    6  503    0 -0.86192357308E+01 -0.10932254569E+02 -0.26767628067E+01  0.14176405527E+02  0.00000000000E+00 0. -1.
         -1    1    6    6    0  503  0.21735095182E+03 -0.18734149690E+03 -0.24430371556E+03  0.37685883054E+03  0.00000000000E+00 0.  1.
<mgrwt>
<rscale>  0 0.12318474E+04</rscale>
<asrwt>0</asrwt>
<pdfrwt beam="1">  1        2 0.12377914E+00 0.12318474E+04</pdfrwt>
<pdfrwt beam="2">  1       -2 0.72540345E-01 0.12318474E+04</pdfrwt>
<totfact> 0.57891114E+01</totfact>
</mgrwt>
</event>
<event>
12    2  0.3555611E-008  0.2971377E+04  0.7818608E-02  0.8251952E-01
          1   -1    0    0  501    0  0.00000000000E+00  0.00000000000E+00  0.34851643913E+04  0.34851643913E+04  0.00000000000E+00 0. -1.
         -1   -1    0    0    0  501 -0.00000000000E+00 -0.00000000000E+00 -0.63333334707E+03  0.63333334707E+03  0.00000000000E+00 0.  1.
         23    2    1    2    0    0  0.35401729739E+03 -0.23994598004E+03  0.30640634671E+04  0.30951726035E+04  0.93306991498E+02 0.  0.
        254    2    1    2    0    0 -0.35401729739E+03  0.23994598004E+03 -0.21223242285E+03  0.10233251349E+04  0.90512397508E+03 0.  0.
         23    2    4    4    0    0  0.27341733212E+03  0.20169806951E+03 -0.15873060048E+03  0.38604451869E+03  0.91628697122E+02 0.  0.
         23    2    4    4    0    0 -0.62743462951E+03  0.38247910529E+02 -0.53501822371E+02  0.63728061623E+03  0.90149996441E+02 0.  0.
          2    1    3    3  502    0  0.19206682046E+03 -0.17173989680E+03  0.20297622605E+04  0.20460496303E+04  0.00000000000E+00 0. -1.
         -2    1    3    3    0  502  0.16195047693E+03 -0.68206083240E+02  0.10343012066E+04  0.10491229732E+04  0.00000000000E+00 0.  1.
         11    1    5    5    0    0  0.10752011007E+03  0.10139126605E+03 -0.23423410121E+02  0.14963094280E+03  0.00000000000E+00 0.  1.
        -11    1    5    5    0    0  0.16589722205E+03  0.10030680346E+03 -0.13530719036E+03  0.23641357590E+03  0.00000000000E+00 0. -1.
          2    1    6    6  503    0 -0.84463696615E+02  0.33218427858E+02  0.64321138139E+01  0.90988747015E+02  0.00000000000E+00 0. -1.
         -2    1    6    6    0  503 -0.54297093289E+03  0.50294826710E+01 -0.59933936185E+02  0.54629186921E+03  0.00000000000E+00 0.  1.
<mgrwt>
<rscale>  0 0.29713773E+04</rscale>
<asrwt>0</asrwt>
<pdfrwt beam="1">  1        1 0.53617913E+00 0.29713773E+04</pdfrwt>
<pdfrwt beam="2">  1       -1 0.97435901E-01 0.29713773E+04</pdfrwt>
<totfact> 0.22129785E-01</totfact>
</mgrwt>
</event>
<event>
12    2  0.3555611E-008  0.1539541E+04  0.7818608E-02  0.8858576E-01
         -1   -1    0    0    0  501 -0.00000000000E+00  0.00000000000E+00  0.46928582494E+03  0.46928582494E+03  0.00000000000E+00 0.  1.
          1   -1    0    0  501    0  0.00000000000E+00 -0.00000000000E+00 -0.12626563900E+04  0.12626563900E+04  0.00000000000E+00 0. -1.
         23    2    1    2    0    0  0.18741811819E+03 -0.30858380112E+03  0.13137150537E+03  0.39506909631E+03  0.92041322800E+02 0.  0.
        254    2    1    2    0    0 -0.18741811819E+03  0.30858380112E+03 -0.92474207043E+03  0.13368731186E+04  0.89539506650E+03 0.  0.
         23    2    4    4    0    0 -0.11321831050E+03 -0.19946159168E+03 -0.74524335734E+03  0.78483597993E+03  0.89311484948E+02 0.  0.
         23    2    4    4    0    0 -0.74199807683E+02  0.50804539279E+03 -0.17949871309E+03  0.55203713869E+03  0.94390051862E+02 0.  0.
          3    1    3    3  502    0  0.44798069184E+02 -0.14513179738E+03  0.26728626989E+02  0.15422232366E+03  0.00000000000E+00 0. -1.
         -3    1    3    3    0  502  0.14262004900E+03 -0.16345200373E+03  0.10464287838E+03  0.24084677266E+03  0.00000000000E+00 0.  1.
         11    1    5    5    0    0 -0.57514957123E+01  0.77697831178E+01 -0.12473249988E+02  0.15780722350E+02  0.00000000000E+00 0. -1.
        -11    1    5    5    0    0 -0.10746681479E+03 -0.20723137479E+03 -0.73277010735E+03  0.76905525758E+03  0.00000000000E+00 0.  1.
          3    1    6    6  503    0 -0.19545449644E+00  0.31449969400E+03 -0.98604634522E+02  0.32959516028E+03  0.00000000000E+00 0. -1.
         -3    1    6    6    0  503 -0.74004353186E+02  0.19354569879E+03 -0.80894078571E+02  0.22244197841E+03  0.00000000000E+00 0.  1.
<mgrwt>
<rscale>  0 0.15395412E+04</rscale>
<asrwt>0</asrwt>
<pdfrwt beam="1">  1        1 0.19425483E+00 0.15395412E+04</pdfrwt>
<pdfrwt beam="2">  1       -1 0.72197821E-01 0.15395412E+04</pdfrwt>
<totfact> 0.17959437E+01</totfact>
</mgrwt>
</event>
<event>
12    2  0.3555611E-008  0.2048610E+04  0.7818608E-02  0.8584225E-01
         -1   -1    0    0    0  501 -0.00000000000E+00  0.00000000000E+00  0.57223655030E+03  0.57223655030E+03  0.00000000000E+00 0.  1.
          1   -1    0    0  501    0  0.00000000000E+00 -0.00000000000E+00 -0.18335089478E+04  0.18335089478E+04  0.00000000000E+00 0. -1.
         23    2    1    2    0    0 -0.12769882468E+03  0.59820261171E+03  0.13120130461E+03  0.63205276782E+03  0.90130818779E+02 0.  0.
        254    2    1    2    0    0  0.12769882468E+03 -0.59820261171E+03 -0.13924737021E+04  0.17736927303E+04  0.91260590396E+03 0.  0.
         23    2    4    4    0    0  0.45454012412E+03 -0.67629304143E+02 -0.62292218140E+03  0.77940700555E+03  0.90899884598E+02 0.  0.
         23    2    4    4    0    0 -0.32684129944E+03 -0.53057330757E+03 -0.76955152071E+03  0.99428572473E+03  0.89784685015E+02 0.  0.
          1    1    3    3  502    0 -0.37886453181E+02  0.13032106898E+03 -0.72787504811E+01  0.13591153212E+03  0.00000000000E+00 0. -1.
         -1    1    3    3    0  502 -0.89812371496E+02  0.46788154273E+03  0.13848005509E+03  0.49614123569E+03  0.00000000000E+00 0.  1.
         11    1    5    5    0    0  0.11606745009E+03  0.22313594412E+02 -0.15302643807E+03  0.19335625207E+03  0.00000000000E+00 0.  1.
        -11    1    5    5    0    0  0.33847267402E+03 -0.89942898555E+02 -0.46989574333E+03  0.58605075348E+03  0.00000000000E+00 0. -1.
          3    1    6    6  503    0  0.11415820700E+01  0.26019974808E+01 -0.88712150969E+00  0.29766734933E+01  0.00000000000E+00 0. -1.
         -3    1    6    6    0  503 -0.32798288151E+03 -0.53317530505E+03 -0.76866439920E+03  0.99130905124E+03  0.00000000000E+00 0.  1.
<mgrwt>
<rscale>  0 0.20486101E+04</rscale>
<asrwt>0</asrwt>
<pdfrwt beam="1">  1        1 0.28207830E+00 0.20486101E+04</pdfrwt>
<pdfrwt beam="2">  1       -1 0.88036392E-01 0.20486101E+04</pdfrwt>
<totfact> 0.45280114E+00</totfact>
</mgrwt>
</event>
<event>
12    2  0.3555611E-008  0.2471177E+04  0.7818608E-02  0.8413326E-01
         -1   -1    0    0    0  501 -0.00000000000E+00  0.00000000000E+00  0.16768709820E+04  0.16768709820E+04  0.00000000000E+00 0.  1.
          1   -1    0    0  501    0  0.00000000000E+00 -0.00000000000E+00 -0.91043299208E+03  0.91043299208E+03  0.00000000000E+00 0. -1.
         23    2    1    2    0    0 -0.50918547308E+03 -0.70582457397E+03 -0.31493773091E+03  0.92993170935E+03  0.90161158409E+02 0.  0.
        254    2    1    2    0    0  0.50918547308E+03  0.70582457397E+03  0.10813757209E+04  0.16573722648E+04  0.90556678335E+03 0.  0.
         23    2    4    4    0    0  0.56898942593E+03  0.53861904239E+03  0.11884194500E+04  0.14264548871E+04  0.92592203374E+02 0.  0.
         23    2    4    4    0    0 -0.59803952853E+02  0.16720553158E+03 -0.10704372913E+03  0.23091737767E+03  0.10163794958E+03 0.  0.
          2    1    3    3  502    0 -0.94741371845E+02 -0.17933519421E+03 -0.10090301115E+03  0.22653577439E+03  0.00000000000E+00 0.  1.
         -2    1    3    3    0  502 -0.41444410123E+03 -0.52648937977E+03 -0.21403471977E+03  0.70339593496E+03  0.00000000000E+00 0. -1.
         11    1    5    5    0    0  0.43137375283E+03  0.45926235052E+03  0.95083498577E+03  0.11406543698E+04  0.00000000000E+00 0. -1.
        -11    1    5    5    0    0  0.13761567310E+03  0.79356691873E+02  0.23758446422E+03  0.28580051726E+03  0.00000000000E+00 0.  1.
          1    1    6    6  503    0  0.86352231011E+01  0.25065687208E+02 -0.61102244609E+02  0.66605855970E+02  0.00000000000E+00 0. -1.
         -1    1    6    6    0  503 -0.68439175954E+02  0.14213984437E+03 -0.45941484526E+02  0.16431152170E+03  0.00000000000E+00 0.  1.
<mgrwt>
<rscale>  0 0.24711768E+04</rscale>
<asrwt>0</asrwt>
<pdfrwt beam="1">  1        1 0.14006661E+00 0.24711768E+04</pdfrwt>
<pdfrwt beam="2">  1       -1 0.25798015E+00 0.24711768E+04</pdfrwt>
<totfact> 0.98270437E-01</totfact>
</mgrwt>
</event>
<event>
12    2  0.3555611E-008  0.1236295E+04  0.7818608E-02  0.9081667E-01
         -2   -1    0    0    0  501 -0.00000000000E+00  0.00000000000E+00  0.10941975301E+03  0.10941975301E+03  0.00000000000E+00 0.  1.
          2   -1    0    0  501    0  0.00000000000E+00 -0.00000000000E+00 -0.34921163306E+04  0.34921163306E+04  0.00000000000E+00 0. -1.
         23    2    1    2    0    0  0.18479359696E+03 -0.94949026753E+02 -0.24224276485E+03  0.33205097589E+03  0.91718603959E+02 0.  0.
        254    2    1    2    0    0 -0.18479359696E+03  0.94949026753E+02 -0.31404538128E+04  0.32694851078E+04  0.88539185025E+03 0.  0.
         23    2    4    4    0    0 -0.35519443040E+03  0.20139263504E+03 -0.67206084516E+03  0.79121115417E+03  0.87334037164E+02 0.  0.
         23    2    4    4    0    0  0.17040083344E+03 -0.10644360829E+03 -0.24683929676E+04  0.24782739536E+04  0.92256493921E+02 0.  0.
          1    1    3    3  502    0  0.39726802082E+02 -0.82331353941E+01 -0.11064943506E+03  0.11785287778E+03  0.00000000000E+00 0. -1.
         -1    1    3    3    0  502  0.14506679487E+03 -0.86715891359E+02 -0.13159332979E+03  0.21419809811E+03  0.00000000000E+00 0.  1.
         11    1    5    5    0    0 -0.11602388850E+02  0.27319221812E+02 -0.28235754183E+02  0.40965999582E+02  0.00000000000E+00 0.  1.
        -11    1    5    5    0    0 -0.34359204155E+03  0.17407341323E+03 -0.64382509098E+03  0.75024515459E+03  0.00000000000E+00 0. -1.
          1    1    6    6  503    0  0.68365288830E+02 -0.85828134974E+01 -0.12108276161E+04  0.12127864583E+04  0.00000000000E+00 0. -1.
         -1    1    6    6    0  503  0.10203554461E+03 -0.97860794795E+02 -0.12575653515E+04  0.12654874953E+04  0.00000000000E+00 0.  1.
<mgrwt>
<rscale>  0 0.12362953E+04</rscale>
<asrwt>0</asrwt>
<pdfrwt beam="1">  1        2 0.53724869E+00 0.12362953E+04</pdfrwt>
<pdfrwt beam="2">  1       -2 0.16833807E-01 0.12362953E+04</pdfrwt>
<totfact> 0.23935919E+01</totfact>
</mgrwt>
</event>
<event>
12    2  0.3555611E-008  0.2764936E+04  0.7818608E-02  0.8314238E-01
          2   -1    0    0  501    0  0.00000000000E+00  0.00000000000E+00  0.33554531510E+04  0.33554531510E+04  0.00000000000E+00 0. -1.
         -2   -1    0    0    0  501 -0.00000000000E+00 -0.00000000000E+00 -0.56958575546E+03  0.56958575546E+03  0.00000000000E+00 0.  1.
         23    2    1    2    0    0 -0.92713432815E+03 -0.42905342309E+03  0.26363386950E+03  0.10590044125E+04  0.91228429044E+02 0.  0.
        254    2    1    2    0    0  0.92713432815E+03  0.42905342309E+03  0.25222335261E+04  0.28660344940E+04  0.89934801853E+03 0.  0.
         23    2    4    4    0    0  0.82491072065E+03  0.67517168841E+02  0.22340054931E+04  0.23841132757E+04  0.90439499166E+02 0.  0.
         23    2    4    4    0    0  0.10222360749E+03  0.36153625425E+03  0.28822803296E+03  0.48192121828E+03  0.89523921860E+02 0.  0.
          3    1    3    3  502    0 -0.80866607027E+02 -0.48608912406E+02 -0.27349943286E+00  0.94352049788E+02  0.00000000000E+00 0. -1.
         -3    1    3    3    0  502 -0.84626772112E+03 -0.38044451068E+03  0.26390736894E+03  0.96465236272E+03  0.00000000000E+00 0.  1.
         11    1    5    5    0    0  0.38972028934E+03  0.75467069944E+02  0.11012653674E+04  0.11706248725E+04  0.00000000000E+00 0. -1.
        -11    1    5    5    0    0  0.43519043132E+03 -0.79499011025E+01  0.11327401257E+04  0.12134884032E+04  0.00000000000E+00 0.  1.
          2    1    6    6  503    0  0.70655713460E+02  0.21208585390E+03  0.11646947179E+03  0.25206700920E+03  0.00000000000E+00 0. -1.
         -2    1    6    6    0  503  0.31567894034E+02  0.14945040034E+03  0.17175856117E+03  0.22985420908E+03  0.00000000000E+00 0.  1.
<mgrwt>
<rscale>  0 0.27649364E+04</rscale>
<asrwt>0</asrwt>
<pdfrwt beam="1">  1        2 0.51622355E+00 0.27649364E+04</pdfrwt>
<pdfrwt beam="2">  1       -2 0.87628580E-01 0.27649364E+04</pdfrwt>
<totfact> 0.10023498E+00</totfact>
</mgrwt>
</event>
<event>
12    2  0.3555611E-008  0.1289121E+04  0.7818608E-02  0.9038237E-01
         -1   -1    0    0    0  501 -0.00000000000E+00  0.00000000000E+00  0.25369371473E+03  0.25369371473E+03  0.00000000000E+00 0.  1.
          1   -1    0    0  501    0  0.00000000000E+00 -0.00000000000E+00 -0.16376372383E+04  0.16376372383E+04  0.00000000000E+00 0. -1.
         23    2    1    2    0    0 -0.35012178926E+02  0.25762517014E+03 -0.93707167596E+02  0.29161565069E+03  0.93070261111E+02 0.  0.
        254    2    1    2    0    0  0.35012178926E+02 -0.25762517014E+03 -0.12902363560E+04  0.15997153023E+04  0.90927587303E+03 0.  0.
         23    2    4    4    0    0  0.19515659483E+03  0.14489332942E+03 -0.26818142251E+02  0.26120460989E+03  0.91806655856E+02 0.  0.
         23    2    4    4    0    0 -0.16014441590E+03 -0.40251849956E+03 -0.12634182137E+04  0.13385106925E+04  0.87851662354E+02 0.  0.
          1    1    3    3  502    0 -0.32814288707E+02  0.16417155511E+03 -0.10474671885E+03  0.19748658729E+03  0.00000000000E+00 0.  1.
         -1    1    3    3    0  502 -0.21978902189E+01  0.93453615036E+02  0.11039551252E+02  0.94129063400E+02  0.00000000000E+00 0. -1.
         11    1    5    5    0    0  0.19205282526E+03  0.10803184750E+03 -0.10027584136E+02  0.22058041665E+03  0.00000000000E+00 0.  1.
        -11    1    5    5    0    0  0.31037695667E+01  0.36861481920E+02 -0.16790558115E+02  0.40624193244E+02  0.00000000000E+00 0. -1.
          4    1    6    6  503    0 -0.65241582991E+02 -0.26653845547E+03 -0.72786202048E+03  0.77787038333E+03  0.00000000000E+00 0.  1.
         -4    1    6    6    0  503 -0.94902832909E+02 -0.13598004409E+03 -0.53555619325E+03  0.56064030912E+03  0.00000000000E+00 0. -1.
<mgrwt>
<rscale>  0 0.12891211E+04</rscale>
<asrwt>0</asrwt>
<pdfrwt beam="1">  1        1 0.25194419E+00 0.12891211E+04</pdfrwt>
<pdfrwt beam="2">  1       -1 0.39029803E-01 0.12891211E+04</pdfrwt>
<totfact> 0.32939996E+01</totfact>
</mgrwt>
</event>
<event>
12    2  0.3555611E-008  0.2253064E+04  0.7818608E-02  0.8496661E-01
          3   -1    0    0  501    0  0.00000000000E+00  0.00000000000E+00  0.85146494091E+03  0.85146494091E+03  0.00000000000E+00 0. -1.
         -3   -1    0    0    0  501 -0.00000000000E+00 -0.00000000000E+00 -0.14904598266E+04  0.14904598266E+04  0.00000000000E+00 0.  1.
         23    2    1    2    0    0 -0.72939035788E+03 -0.59578816749E+03 -0.28661710481E+03  0.98856438440E+03  0.90201677603E+02 0.  0.
        254    2    1    2    0    0  0.72939035788E+03  0.59578816749E+03 -0.35237778083E+03  0.13533603831E+04  0.90578164662E+03 0.  0.
         23    2    4    4    0    0  0.60759191472E+02  0.17281526426E+03  0.27305661440E+03  0.34074197207E+03  0.89377748651E+02 0.  0.
         23    2    4    4    0    0  0.66863116641E+03  0.42297290323E+03 -0.62543439523E+03  0.10126184110E+04  0.90852352790E+02 0.  0.
          4    1    3    3  502    0 -0.57672457055E+02 -0.72441953987E+02 -0.95021859708E+01  0.93081902314E+02  0.00000000000E+00 0. -1.
         -4    1    3    3    0  502 -0.67171790082E+03 -0.52334621350E+03 -0.27711491884E+03  0.89548248208E+03  0.00000000000E+00 0.  1.
         11    1    5    5    0    0  0.40650635605E+02  0.17774673822E+03  0.25348265867E+03  0.31224963631E+03  0.00000000000E+00 0.  1.
        -11    1    5    5    0    0  0.20108555868E+02 -0.49314739659E+01  0.19573955720E+02  0.28492335761E+02  0.00000000000E+00 0. -1.
          3    1    6    6  503    0  0.39416534639E+03  0.22471831741E+03 -0.30704413446E+03  0.54785102262E+03  0.00000000000E+00 0. -1.
         -3    1    6    6    0  503  0.27446582002E+03  0.19825458582E+03 -0.31839026076E+03  0.46476738838E+03  0.00000000000E+00 0.  1.
<mgrwt>
<rscale>  0 0.22530639E+04</rscale>
<asrwt>0</asrwt>
<pdfrwt beam="1">  1        3 0.13099461E+00 0.22530639E+04</pdfrwt>
<pdfrwt beam="2">  1       -3 0.22930151E+00 0.22530639E+04</pdfrwt>
<totfact> 0.10487003E-01</totfact>
</mgrwt>
</event>
<event>
12    2  0.3555611E-008  0.1464919E+04  0.7818608E-02  0.8908122E-01
         -1   -1    0    0    0  501 -0.00000000000E+00  0.00000000000E+00  0.34245332484E+03  0.34245332484E+03  0.00000000000E+00 0.  1.
          1   -1    0    0  501    0  0.00000000000E+00 -0.00000000000E+00 -0.15666282054E+04  0.15666282054E+04  0.00000000000E+00 0. -1.
         23    2    1    2    0    0 -0.71999742633E+01 -0.41761435874E+03 -0.16636388103E+03  0.45904589388E+03  0.92696275674E+02 0.  0.
        254    2    1    2    0    0  0.71999742633E+01  0.41761435874E+03 -0.10578109995E+04  0.14500356364E+04  0.89954746607E+03 0.  0.
         23    2    4    4    0    0  0.35578816757E+03 -0.39445478019E+02 -0.22200045273E+03  0.43154928121E+03  0.93858484860E+02 0.  0.
         23    2    4    4    0    0 -0.34858819331E+03  0.45705983676E+03 -0.83581054680E+03  0.10184863551E+04  0.91201768513E+02 0.  0.
          3    1    3    3  502    0  0.88240172193E+01 -0.13082678020E+03 -0.98239357900E+02  0.16384285501E+03  0.00000000000E+00 0. -1.
         -3    1    3    3    0  502 -0.16023991483E+02 -0.28678757854E+03 -0.68124523133E+02  0.29520303887E+03  0.00000000000E+00 0.  1.
         11    1    5    5    0    0  0.14009935298E+03 -0.90065337085E+01 -0.35541898762E+02  0.14481772310E+03  0.00000000000E+00 0.  1.
        -11    1    5    5    0    0  0.21568881459E+03 -0.30438944310E+02 -0.18645855397E+03  0.28673155812E+03  0.00000000000E+00 0. -1.
          3    1    6    6  503    0 -0.38998311271E+02  0.71582784108E+02 -0.72767259032E+02  0.10927047748E+03  0.00000000000E+00 0. -1.
         -3    1    6    6    0  503 -0.30958988204E+03  0.38547705265E+03 -0.76304328777E+03  0.90921587766E+03  0.00000000000E+00 0.  1.
<mgrwt>
<rscale>  0 0.14649192E+04</rscale>
<asrwt>0</asrwt>
<pdfrwt beam="1">  1        1 0.24101973E+00 0.14649192E+04</pdfrwt>
<pdfrwt beam="2">  1       -1 0.52685126E-01 0.14649192E+04</pdfrwt>
<totfact> 0.20721833E+01</totfact>
</mgrwt>
</event>
<event>
12    2  0.3555611E-008  0.1553310E+04  0.7818608E-02  0.8849756E-01
          1   -1    0    0  501    0  0.00000000000E+00  0.00000000000E+00  0.11925696194E+04  0.11925696194E+04  0.00000000000E+00 0. -1.
         -1   -1    0    0    0  501 -0.00000000000E+00 -0.00000000000E+00 -0.50579259486E+03  0.50579259486E+03  0.00000000000E+00 0.  1.
         23    2    1    2    0    0 -0.46437204560E+02  0.14685206848E+03  0.76902700286E+03  0.79002104654E+03  0.94914587247E+02 0.  0.
        254    2    1    2    0    0  0.46437204560E+02 -0.14685206848E+03 -0.82249978305E+02  0.90834116772E+03  0.89140152236E+03 0.  0.
         23    2    4    4    0    0 -0.11599021464E+03 -0.46639300482E+03 -0.18680185742E+03  0.52358431517E+03  0.90936441076E+02 0.  0.
         23    2    4    4    0    0  0.16242741920E+03  0.31954093634E+03  0.10455187912E+03  0.38475685256E+03  0.92831372176E+02 0.  0.
          1    1    3    3  502    0 -0.17236357332E+02 -0.68193566459E+00  0.21750137742E+02  0.27760143050E+02  0.00000000000E+00 0.  1.
         -1    1    3    3    0  502 -0.29200847228E+02  0.14753400415E+03  0.74727686512E+03  0.76226090350E+03  0.00000000000E+00 0. -1.
         11    1    5    5    0    0 -0.18597649529E+02 -0.25213428474E+03 -0.11305171918E+03  0.27694450946E+03  0.00000000000E+00 0. -1.
        -11    1    5    5    0    0 -0.97392565114E+02 -0.21425872007E+03 -0.73750138241E+02  0.24663980570E+03  0.00000000000E+00 0.  1.
          3    1    6    6  503    0  0.67499640922E+02  0.18473044676E+03  0.98019234049E+02  0.21974828720E+03  0.00000000000E+00 0. -1.
         -3    1    6    6    0  503  0.94927778281E+02  0.13481048958E+03  0.65326450658E+01  0.16500856536E+03  0.00000000000E+00 0.  1.
<mgrwt>
<rscale>  0 0.15533099E+04</rscale>
<asrwt>0</asrwt>
<pdfrwt beam="1">  1        1 0.18347225E+00 0.15533099E+04</pdfrwt>
<pdfrwt beam="2">  1       -1 0.77814246E-01 0.15533099E+04</pdfrwt>
<totfact> 0.17244726E+01</totfact>
</mgrwt>
</event>
<event>
12    2  0.3555611E-008  0.2139852E+04  0.7818608E-02  0.8543889E-01
         -1   -1    0    0    0  501 -0.00000000000E+00  0.00000000000E+00  0.60181779060E+03  0.60181779060E+03  0.00000000000E+00 0.  1.
          1   -1    0    0  501    0  0.00000000000E+00 -0.00000000000E+00 -0.19021403350E+04  0.19021403350E+04  0.00000000000E+00 0. -1.
         23    2    1    2    0    0 -0.16744468819E+03  0.75381647631E+03 -0.52359764667E+02  0.77930094573E+03  0.91057210053E+02 0.  0.
        254    2    1    2    0    0  0.16744468819E+03 -0.75381647631E+03 -0.12479627797E+04  0.17246571799E+04  0.90595490227E+03 0.  0.
         23    2    4    4    0    0 -0.25523446274E+03 -0.15358945432E+03 -0.46809376945E+02  0.31398572311E+03  0.87530366721E+02 0.  0.
         23    2    4    4    0    0  0.42267915093E+03 -0.60022702198E+03 -0.12011534028E+04  0.14106714568E+04  0.91073153844E+02 0.  0.
          1    1    3    3  502    0 -0.20347837472E+02  0.57384482502E+02 -0.28187550763E+02  0.67093601333E+02  0.00000000000E+00 0. -1.
         -1    1    3    3    0  502 -0.14709685072E+03  0.69643199380E+03 -0.24172213904E+02  0.71220734439E+03  0.00000000000E+00 0.  1.
         11    1    5    5    0    0 -0.24507528672E+03 -0.14352490550E+03 -0.64496540219E+02  0.29124061935E+03  0.00000000000E+00 0. -1.
        -11    1    5    5    0    0 -0.10159176022E+02 -0.10064548816E+02  0.17687163274E+02  0.22745103759E+02  0.00000000000E+00 0.  1.
          1    1    6    6  503    0  0.32878053488E+03 -0.48155381781E+03 -0.10172146731E+04  0.11724830109E+04  0.00000000000E+00 0. -1.
         -1    1    6    6    0  503  0.93898616048E+02 -0.11867320418E+03 -0.18393872963E+03  0.23818844586E+03  0.00000000000E+00 0.  1.
<mgrwt>
<rscale>  0 0.21398522E+04</rscale>
<asrwt>0</asrwt>
<pdfrwt beam="1">  1        1 0.29263698E+00 0.21398522E+04</pdfrwt>
<pdfrwt beam="2">  1       -1 0.92587351E-01 0.21398522E+04</pdfrwt>
<totfact> 0.36093163E+00</totfact>
</mgrwt>
</event>
<event>
12    2  0.3555611E-008  0.3141110E+04  0.7818608E-02  0.8204545E-01
         -2   -1    0    0    0  501 -0.00000000000E+00  0.00000000000E+00  0.15098187332E+04  0.15098187332E+04  0.00000000000E+00 0.  1.
          2   -1    0    0  501    0  0.00000000000E+00 -0.00000000000E+00 -0.16337347412E+04  0.16337347412E+04  0.00000000000E+00 0. -1.
         23    2    1    2    0    0  0.54398059389E+03 -0.33239169238E+02 -0.13931003179E+04  0.14986925491E+04  0.91275036283E+02 0.  0.
        254    2    1    2    0    0 -0.54398059389E+03  0.33239169238E+02  0.12691843099E+04  0.16448609253E+04  0.89315111942E+03 0.  0.
         23    2    4    4    0    0  0.16949025399E+03  0.27264158005E+02  0.64338132424E+01  0.19164689036E+03  0.84952081325E+02 0.  0.
         23    2    4    4    0    0 -0.71347084787E+03  0.59750112328E+01  0.12627504967E+04  0.14532140350E+04  0.90641397605E+02 0.  0.
          3    1    3    3  502    0  0.50964466056E+03 -0.38618494074E+02 -0.12306230571E+04  0.13325397468E+04  0.00000000000E+00 0. -1.
         -3    1    3    3    0  502  0.34335933327E+02  0.53793248362E+01 -0.16247726082E+03  0.16615280237E+03  0.00000000000E+00 0.  1.
         11    1    5    5    0    0  0.16563300845E+03  0.41670824100E+02  0.19389283255E+02  0.17189152211E+03  0.00000000000E+00 0.  1.
        -11    1    5    5    0    0  0.38572455373E+01 -0.14406666095E+02 -0.12955470012E+02  0.19755368241E+02  0.00000000000E+00 0. -1.
          1    1    6    6  503    0 -0.11779238356E+03 -0.13952506747E+02  0.27636119429E+03  0.30074113084E+03  0.00000000000E+00 0. -1.
         -1    1    6    6    0  503 -0.59567846431E+03  0.19927517979E+02  0.98638930240E+03  0.11524729041E+04  0.00000000000E+00 0.  1.
<mgrwt>
<rscale>  0 0.31411102E+04</rscale>
<asrwt>0</asrwt>
<pdfrwt beam="1">  1        2 0.25134381E+00 0.31411102E+04</pdfrwt>
<pdfrwt beam="2">  1       -2 0.23227981E+00 0.31411102E+04</pdfrwt>
<totfact> 0.74758063E-01</totfact>
</mgrwt>
</event>
<event>
12    2  0.3555611E-008  0.5373991E+04  0.7818608E-02  0.7773270E-01
          1   -1    0    0  501    0  0.00000000000E+00  0.00000000000E+00  0.32804078165E+04  0.32804078165E+04  0.00000000000E+00 0. -1.
         -1   -1    0    0    0  501 -0.00000000000E+00 -0.00000000000E+00 -0.22009290303E+04  0.22009290303E+04  0.00000000000E+00 0.  1.
         23    2    1    2    0    0  0.51969033549E+03  0.14218426564E+03 -0.20800193123E+04  0.21505370689E+04  0.89637799449E+02 0.  0.
        254    2    1    2    0    0 -0.51969033549E+03 -0.14218426564E+03  0.31594980985E+04  0.33307997778E+04  0.90636886277E+03 0.  0.
         23    2    4    4    0    0  0.83520969204E+02  0.10800646254E+03  0.19186665446E+04  0.19256802274E+04  0.91224340011E+02 0.  0.
         23    2    4    4    0    0 -0.60321130469E+03 -0.25019072818E+03  0.12408315539E+04  0.14051195505E+04  0.90767436545E+02 0.  0.
          1    1    3    3  502    0  0.17444389408E+02  0.86948933679E+01 -0.16887100687E+03  0.16999213174E+03  0.00000000000E+00 0. -1.
         -1    1    3    3    0  502  0.50224594608E+03  0.13348937227E+03 -0.19111483054E+04  0.19805449372E+04  0.00000000000E+00 0.  1.
         11    1    5    5    0    0  0.32775429529E+02  0.10082443220E+03  0.15267955602E+04  0.15304719787E+04  0.00000000000E+00 0.  1.
        -11    1    5    5    0    0  0.50745539675E+02  0.71820303367E+01  0.39187098441E+03  0.39520824862E+03  0.00000000000E+00 0. -1.
          4    1    6    6  503    0 -0.49961404244E+03 -0.18245505011E+03  0.10603248865E+04  0.11862516182E+04  0.00000000000E+00 0. -1.
         -4    1    6    6    0  503 -0.10359726226E+03 -0.67735678071E+02  0.18050666736E+03  0.21886793230E+03  0.00000000000E+00 0.  1.
<mgrwt>
<rscale>  0 0.53739910E+04</rscale>
<asrwt>0</asrwt>
<pdfrwt beam="1">  1        1 0.50467813E+00 0.53739910E+04</pdfrwt>
<pdfrwt beam="2">  1       -1 0.33860446E+00 0.53739910E+04</pdfrwt>
<totfact> 0.47863741E-03</totfact>
</mgrwt>
</event>
<event>
12    2  0.3555611E-008  0.3280407E+04  0.7818608E-02  0.8167899E-01
         -2   -1    0    0    0  501 -0.00000000000E+00  0.00000000000E+00  0.11353928976E+04  0.11353928976E+04  0.00000000000E+00 0.  1.
          2   -1    0    0  501    0  0.00000000000E+00 -0.00000000000E+00 -0.23694595466E+04  0.23694595466E+04  0.00000000000E+00 0. -1.
         23    2    1    2    0    0 -0.33707093853E+03 -0.10838159679E+04 -0.16426583371E+04  0.19989666501E+04  0.96267263382E+02 0.  0.
        254    2    1    2    0    0  0.33707093853E+03  0.10838159679E+04  0.40859168813E+03  0.15058857942E+04  0.90137172556E+03 0.  0.
         23    2    4    4    0    0  0.18626464026E+03  0.82600363065E+03  0.68164724131E+03  0.10908679898E+04  0.91506806177E+02 0.  0.
         23    2    4    4    0    0  0.15080629827E+03  0.25781233721E+03 -0.27305555318E+03  0.41501780433E+03  0.92036416584E+02 0.  0.
          3    1    3    3  502    0 -0.23134745504E+03 -0.87268202214E+03 -0.13149266817E+04  0.15950322050E+04  0.00000000000E+00 0. -1.
         -3    1    3    3    0  502 -0.10572348349E+03 -0.21113394572E+03 -0.32773165541E+03  0.40393444512E+03  0.00000000000E+00 0.  1.
         11    1    5    5    0    0  0.39387702441E+01  0.70399002297E+01  0.22494491906E+02  0.23897202187E+02  0.00000000000E+00 0. -1.
        -11    1    5    5    0    0  0.18232587001E+03  0.81896373042E+03  0.65915274940E+03  0.10669707876E+04  0.00000000000E+00 0.  1.
          1    1    6    6  503    0  0.23526510258E+02  0.22659402996E+02  0.25114077314E+00  0.32665093001E+02  0.00000000000E+00 0. -1.
         -1    1    6    6    0  503  0.12727978801E+03  0.23515293421E+03 -0.27330669395E+03  0.38235271133E+03  0.00000000000E+00 0.  1.
<mgrwt>
<rscale>  0 0.32804070E+04</rscale>
<asrwt>0</asrwt>
<pdfrwt beam="1">  1        2 0.36453223E+00 0.32804070E+04</pdfrwt>
<pdfrwt beam="2">  1       -2 0.17467583E+00 0.32804070E+04</pdfrwt>
<totfact> 0.68379221E-01</totfact>
</mgrwt>
</event>
<event>
12    2  0.3555611E-008  0.1544968E+04  0.7818608E-02  0.8855088E-01
          1   -1    0    0  501    0  0.00000000000E+00  0.00000000000E+00  0.24193658626E+04  0.24193658626E+04  0.00000000000E+00 0. -1.
         -1   -1    0    0    0  501 -0.00000000000E+00 -0.00000000000E+00 -0.24664802286E+03  0.24664802286E+03  0.00000000000E+00 0.  1.
         23    2    1    2    0    0  0.40007421129E+03  0.68738600766E+02  0.15844862541E+03  0.44449674380E+03  0.87675644193E+02 0.  0.
        254    2    1    2    0    0 -0.40007421129E+03 -0.68738600766E+02  0.20142692143E+04  0.22215171416E+04  0.84443683784E+03 0.  0.
         23    2    4    4    0    0  0.17315650444E+03 -0.20856923100E+03  0.10430208925E+04  0.10812811175E+04  0.88272156983E+02 0.  0.
         23    2    4    4    0    0 -0.57323071573E+03  0.13983063023E+03  0.97124832176E+03  0.11402360241E+04  0.93106549334E+02 0.  0.
          4    1    3    3  502    0  0.33273204535E+03  0.52423899509E+02  0.93612704264E+02  0.34960294284E+03  0.00000000000E+00 0.  1.
         -4    1    3    3    0  502  0.67342165936E+02  0.16314701257E+02  0.64835921148E+02  0.94893800963E+02  0.00000000000E+00 0. -1.
         11    1    5    5    0    0  0.30458927506E+02 -0.18096908616E+02  0.58414435968E+02  0.68319036115E+02  0.00000000000E+00 0. -1.
        -11    1    5    5    0    0  0.14269757693E+03 -0.19047232238E+03  0.98460645657E+03  0.10129620814E+04  0.00000000000E+00 0.  1.
          2    1    6    6  503    0 -0.14965863811E+03 -0.39881167454E+01  0.25961491364E+03  0.29968903286E+03  0.00000000000E+00 0. -1.
         -2    1    6    6    0  503 -0.42357207762E+03  0.14381874697E+03  0.71163340812E+03  0.84054699124E+03  0.00000000000E+00 0.  1.
<mgrwt>
<rscale>  0 0.15449684E+04</rscale>
<asrwt>0</asrwt>
<pdfrwt beam="1">  1        1 0.37221012E+00 0.15449684E+04</pdfrwt>
<pdfrwt beam="2">  1       -1 0.37945851E-01 0.15449684E+04</pdfrwt>
<totfact> 0.99769186E+00</totfact>
</mgrwt>
</event>
<event>
12    2  0.3555611E-008  0.1643462E+04  0.7818608E-02  0.8794283E-01
         -1   -1    0    0    0  501 -0.00000000000E+00  0.00000000000E+00  0.72099882878E+03  0.72099882878E+03  0.00000000000E+00 0.  1.
          1   -1    0    0  501    0  0.00000000000E+00 -0.00000000000E+00 -0.93653711910E+03  0.93653711910E+03  0.00000000000E+00 0. -1.
         23    2    1    2    0    0 -0.51881983794E+03 -0.21289617373E+03  0.33520066832E+02  0.56888226654E+03  0.89468616133E+02 0.  0.
        254    2    1    2    0    0  0.51881983794E+03  0.21289617373E+03 -0.24905835716E+03  0.10886536813E+04  0.89924299698E+03 0.  0.
         23    2    4    4    0    0  0.38118262915E+03  0.10000049030E+03  0.30027066241E+03  0.50370969536E+03  0.90888347287E+02 0.  0.
         23    2    4    4    0    0  0.13763720879E+03  0.11289568343E+03 -0.54932901957E+03  0.58494398599E+03  0.93314834951E+02 0.  0.
          3    1    3    3  502    0 -0.29284510952E+03 -0.14035980089E+03 -0.20813548995E+02  0.32541102578E+03  0.00000000000E+00 0. -1.
         -3    1    3    3    0  502 -0.22597472842E+03 -0.72536372841E+02  0.54333615826E+02  0.24347124076E+03  0.00000000000E+00 0.  1.
         11    1    5    5    0    0  0.31219920891E+03  0.10517428921E+03  0.21280349146E+03  0.39219294120E+03  0.00000000000E+00 0.  1.
        -11    1    5    5    0    0  0.68983420242E+02 -0.51737989127E+01  0.87467170956E+02  0.11151675416E+03  0.00000000000E+00 0. -1.
          1    1    6    6  503    0 -0.43879768759E+01  0.18662632835E+02 -0.14350868685E+03  0.14478360199E+03  0.00000000000E+00 0. -1.
         -1    1    6    6    0  503  0.14202518567E+03  0.94233050594E+02 -0.40582033272E+03  0.44016038399E+03  0.00000000000E+00 0.  1.
<mgrwt>
<rscale>  0 0.16434624E+04</rscale>
<asrwt>0</asrwt>
<pdfrwt beam="1">  1        1 0.14408263E+00 0.16434624E+04</pdfrwt>
<pdfrwt beam="2">  1       -1 0.11092290E+00 0.16434624E+04</pdfrwt>
<totfact> 0.12158978E+01</totfact>
</mgrwt>
</event>
<event>
12    2  0.3555611E-008  0.1649748E+04  0.7818608E-02  0.8790555E-01
         -2   -1    0    0    0  501 -0.00000000000E+00  0.00000000000E+00  0.10362713685E+04  0.10362713685E+04  0.00000000000E+00 0. -1.
          2   -1    0    0  501    0  0.00000000000E+00 -0.00000000000E+00 -0.65660146035E+03  0.65660146035E+03  0.00000000000E+00 0.  1.
         23    2    1    2    0    0 -0.21778984594E+03  0.52338669931E+03  0.23309563321E+03  0.61969412143E+03  0.91220479590E+02 0.  0.
        254    2    1    2    0    0  0.21778984594E+03 -0.52338669931E+03  0.14657427491E+03  0.10731787074E+04  0.89936781459E+03 0.  0.
         23    2    4    4    0    0 -0.29898795139E+03 -0.69582348325E+01 -0.32692638581E+02  0.31424078295E+03  0.90753781993E+02 0.  0.
         23    2    4    4    0    0  0.51677779732E+03 -0.51642846448E+03  0.17926691349E+03  0.75893792444E+03  0.10046141624E+03 0.  0.
          4    1    3    3  502    0 -0.19579524307E+03  0.45885595543E+03  0.17070961240E+03  0.52728202777E+03  0.00000000000E+00 0. -1.
         -4    1    3    3    0  502 -0.21994602863E+02  0.64530743880E+02  0.62386020808E+02  0.92412093652E+02  0.00000000000E+00 0.  1.
         11    1    5    5    0    0 -0.67592982626E+02 -0.22813721253E+02 -0.40761137055E+02  0.82162932468E+02  0.00000000000E+00 0.  1.
        -11    1    5    5    0    0 -0.23139496876E+03  0.15855486421E+02  0.80684984744E+01  0.23207785048E+03  0.00000000000E+00 0. -1.
          1    1    6    6  503    0  0.47914100809E+03 -0.50894586152E+03  0.17252181568E+03  0.71997623049E+03  0.00000000000E+00 0. -1.
         -1    1    6    6    0  503  0.37636789234E+02 -0.74826029628E+01  0.67450978107E+01  0.38961693950E+02  0.00000000000E+00 0.  1.
<mgrwt>
<rscale>  0 0.16497482E+04</rscale>
<asrwt>0</asrwt>
<pdfrwt beam="1">  1        2 0.10101561E+00 0.16497482E+04</pdfrwt>
<pdfrwt beam="2">  1       -2 0.15942636E+00 0.16497482E+04</pdfrwt>
<totfact> 0.10781518E+01</totfact>
</mgrwt>
</event>
<event>
12    2  0.3555611E-008  0.1296393E+04  0.7818608E-02  0.9032430E-01
         -2   -1    0    0    0  501 -0.00000000000E+00  0.00000000000E+00  0.36824765958E+03  0.36824765958E+03  0.00000000000E+00 0.  1.
          2   -1    0    0  501    0  0.00000000000E+00 -0.00000000000E+00 -0.11409676550E+04  0.11409676550E+04  0.00000000000E+00 0. -1.
         23    2    1    2    0    0  0.98815171146E+02 -0.31456168864E+03 -0.17453260369E+03  0.38395809739E+03  0.90822336393E+02 0.  0.
        254    2    1    2    0    0 -0.98815171146E+02  0.31456168864E+03 -0.59818739175E+03  0.11252572172E+04  0.89423831010E+03 0.  0.
         23    2    4    4    0    0  0.15455073910E+03  0.31071492797E+03 -0.73933611384E+03  0.82179156489E+03  0.91070244736E+02 0.  0.
         23    2    4    4    0    0 -0.25336591024E+03  0.38467606667E+01  0.14114872208E+03  0.30346565234E+03  0.89215236154E+02 0.  0.
          2    1    3    3  502    0  0.10638829226E+03 -0.31558376095E+03 -0.16478436889E+03  0.37157161778E+03  0.00000000000E+00 0. -1.
         -2    1    3    3    0  502 -0.75731211161E+01  0.10220723138E+01 -0.97482348077E+01  0.12386479610E+02  0.00000000000E+00 0.  1.
         11    1    5    5    0    0 -0.10420773117E+02  0.53785306292E+01 -0.23940754762E+02  0.26658597913E+02  0.00000000000E+00 0. -1.
        -11    1    5    5    0    0  0.16497151221E+03  0.30533639734E+03 -0.71539535907E+03  0.79513296697E+03  0.00000000000E+00 0.  1.
          1    1    6    6  503    0 -0.97355774577E+01 -0.14025887649E+02 -0.62203436471E+01  0.18171396971E+02  0.00000000000E+00 0. -1.
         -1    1    6    6    0  503 -0.24363033279E+03  0.17872648316E+02  0.14736906573E+03  0.28529425537E+03  0.00000000000E+00 0.  1.
<mgrwt>
<rscale>  0 0.12963929E+04</rscale>
<asrwt>0</asrwt>
<pdfrwt beam="1">  1        2 0.17553348E+00 0.12963929E+04</pdfrwt>
<pdfrwt beam="2">  1       -2 0.56653488E-01 0.12963929E+04</pdfrwt>
<totfact> 0.58910657E+01</totfact>
</mgrwt>
</event>
<event>
12    2  0.3555611E-008  0.1496894E+04  0.7818608E-02  0.8886521E-01
         -2   -1    0    0    0  501 -0.00000000000E+00  0.00000000000E+00  0.20803348212E+03  0.20803348212E+03  0.00000000000E+00 0.  1.
          2   -1    0    0  501    0  0.00000000000E+00 -0.00000000000E+00 -0.26927037652E+04  0.26927037652E+04  0.00000000000E+00 0. -1.
         23    2    1    2    0    0 -0.12456919690E+03 -0.31924714809E+03 -0.24451003423E+03  0.43053720974E+03  0.90226967989E+02 0.  0.
        254    2    1    2    0    0  0.12456919690E+03  0.31924714809E+03 -0.22401602489E+04  0.24702000376E+04  0.98292118643E+03 0.  0.
         23    2    4    4    0    0  0.27197293927E+03  0.58358147394E+02 -0.10427894031E+03  0.31138426941E+03  0.93333342279E+02 0.  0.
         23    2    4    4    0    0 -0.14740374237E+03  0.26088900070E+03 -0.21358813086E+04  0.21588157682E+04  0.93303926646E+02 0.  0.
          1    1    3    3  502    0 -0.46160270488E+02 -0.31233058864E+02 -0.34154985983E+02  0.65366945814E+02  0.00000000000E+00 0. -1.
         -1    1    3    3    0  502 -0.78408926412E+02 -0.28801408923E+03 -0.21035504824E+03  0.36517026392E+03  0.00000000000E+00 0.  1.
         11    1    5    5    0    0  0.23039529680E+03  0.81007970455E+02 -0.99799384171E+02  0.26382608125E+03  0.00000000000E+00 0. -1.
        -11    1    5    5    0    0  0.41577642474E+02 -0.22649823061E+02 -0.44795561352E+01  0.47558188165E+02  0.00000000000E+00 0.  1.
          1    1    6    6  503    0 -0.71068398451E+01  0.24635647797E+02 -0.44646480207E+03  0.44720044924E+03  0.00000000000E+00 0. -1.
         -1    1    6    6    0  503 -0.14029690253E+03  0.23625335290E+03 -0.16894165065E+04  0.17116153190E+04  0.00000000000E+00 0.  1.
<mgrwt>
<rscale>  0 0.14968935E+04</rscale>
<asrwt>0</asrwt>
<pdfrwt beam="1">  1        2 0.41426213E+00 0.14968935E+04</pdfrwt>
<pdfrwt beam="2">  1       -2 0.32005150E-01 0.14968935E+04</pdfrwt>
<totfact> 0.23642099E+01</totfact>
</mgrwt>
</event>
<event>
12    2  0.3555611E-008  0.1076022E+04  0.7818608E-02  0.9228883E-01
          2   -1    0    0  501    0  0.00000000000E+00  0.00000000000E+00  0.16816770629E+04  0.16816770629E+04  0.00000000000E+00 0. -1.
         -2   -1    0    0    0  501 -0.00000000000E+00 -0.00000000000E+00 -0.17212337266E+03  0.17212337266E+03  0.00000000000E+00 0.  1.
         23    2    1    2    0    0  0.59039494266E+02  0.97247701412E+02  0.10329144956E+03  0.17748498711E+03  0.88820154150E+02 0.  0.
        254    2    1    2    0    0 -0.59039494266E+02 -0.97247701412E+02  0.14062622407E+04  0.16763154484E+04  0.90527190160E+03 0.  0.
         23    2    4    4    0    0 -0.12095823616E+02 -0.48188267075E+03  0.96016898841E+03  0.10787481775E+04  0.97035698425E+02 0.  0.
         23    2    4    4    0    0 -0.46943670650E+02  0.38463496934E+03  0.44609325225E+03  0.59756727096E+03  0.89104914383E+02 0.  0.
          3    1    3    3  502    0  0.49043678000E+01 -0.23184949593E+00  0.56252292232E+02  0.56466157644E+02  0.00000000000E+00 0. -1.
         -3    1    3    3    0  502  0.54135126466E+02  0.97479550908E+02  0.47039157330E+02  0.12101882946E+03  0.00000000000E+00 0.  1.
         11    1    5    5    0    0 -0.51728441605E+02 -0.25342379051E+03  0.54351889779E+03  0.60192378382E+03  0.00000000000E+00 0. -1.
        -11    1    5    5    0    0  0.39632617989E+02 -0.22845888024E+03  0.41665009062E+03  0.47682439366E+03  0.00000000000E+00 0.  1.
          2    1    6    6  503    0  0.19983157711E+01  0.16299014873E+03  0.13040152837E+03  0.20874467765E+03  0.00000000000E+00 0. -1.
         -2    1    6    6    0  503 -0.48941986421E+02  0.22164482062E+03  0.31569172388E+03  0.38882259330E+03  0.00000000000E+00 0.  1.
<mgrwt>
<rscale>  0 0.10760222E+04</rscale>
<asrwt>0</asrwt>
<pdfrwt beam="1">  1        2 0.25871954E+00 0.10760222E+04</pdfrwt>
<pdfrwt beam="2">  1       -2 0.26480520E-01 0.10760222E+04</pdfrwt>
<totfact> 0.12893522E+02</totfact>
</mgrwt>
</event>
<event>
12    2  0.3555611E-008  0.2321524E+04  0.7818608E-02  0.8469483E-01
         -2   -1    0    0    0  501 -0.00000000000E+00  0.00000000000E+00  0.97680250525E+03  0.97680250525E+03  0.00000000000E+00 0. -1.
          2   -1    0    0  501    0  0.00000000000E+00 -0.00000000000E+00 -0.13793661538E+04  0.13793661538E+04  0.00000000000E+00 0.  1.
         23    2    1    2    0    0 -0.78747035697E+03  0.67334747448E+01  0.42389468591E+03  0.89891185227E+03  0.90558879298E+02 0.  0.
        254    2    1    2    0    0  0.78747035697E+03 -0.67334747448E+01 -0.82645833443E+03  0.14572568068E+04  0.90576438410E+03 0.  0.
         23    2    4    4    0    0  0.36576603675E+03  0.93178734865E+02 -0.92434263633E+03  0.10037087634E+04  0.10273705300E+03 0.  0.
         23    2    4    4    0    0  0.42170432022E+03 -0.99912209610E+02  0.97884301900E+02  0.45354804339E+03  0.91145530763E+02 0.  0.
          1    1    3    3  502    0 -0.63326902847E+03  0.32373753327E+02  0.31217883647E+03  0.70677673155E+03  0.00000000000E+00 0.  1.
         -1    1    3    3    0  502 -0.15420132850E+03 -0.25640278582E+02  0.11171584944E+03  0.19213512072E+03  0.00000000000E+00 0. -1.
         11    1    5    5    0    0  0.11064101565E+03 -0.18852040289E+02 -0.28367374199E+03  0.30506987013E+03  0.00000000000E+00 0. -1.
        -11    1    5    5    0    0  0.25512502110E+03  0.11203077515E+03 -0.64066889434E+03  0.69863889324E+03  0.00000000000E+00 0.  1.
          1    1    6    6  503    0  0.40261159741E+02  0.17082512193E+02  0.62642636810E+01  0.44181604837E+02  0.00000000000E+00 0. -1.
         -1    1    6    6    0  503  0.38144316048E+03 -0.11699472180E+03  0.91620038219E+02  0.40936643855E+03  0.00000000000E+00 0.  1.
<mgrwt>
<rscale>  0 0.23215239E+04</rscale>
<asrwt>0</asrwt>
<pdfrwt beam="1">  1        2 0.21221018E+00 0.23215239E+04</pdfrwt>
<pdfrwt beam="2">  1       -2 0.15027731E+00 0.23215239E+04</pdfrwt>
<totfact> 0.40132582E+00</totfact>
</mgrwt>
</event>
<event>
12    2  0.3555611E-008  0.2920755E+04  0.7818608E-02  0.8266729E-01
         -2   -1    0    0    0  501 -0.00000000000E+00  0.00000000000E+00  0.91527977600E+03  0.91527977600E+03  0.00000000000E+00 0. -1.
          2   -1    0    0  501    0  0.00000000000E+00 -0.00000000000E+00 -0.23301100497E+04  0.23301100497E+04  0.00000000000E+00 0.  1.
         23    2    1    2    0    0 -0.80553325516E+03  0.81873578213E+03  0.79380940460E+02  0.11548261412E+04  0.90055408427E+02 0.  0.
        254    2    1    2    0    0  0.80553325516E+03 -0.81873578213E+03 -0.14942112141E+04  0.20905636845E+04  0.90475259617E+03 0.  0.
         23    2    4    4    0    0  0.89495659524E+03 -0.87378195346E+03 -0.14936294145E+04  0.19502802937E+04  0.90676272406E+02 0.  0.
         23    2    4    4    0    0 -0.89423340078E+02  0.55046171332E+02 -0.58179960105E+00  0.14028339080E+03  0.93018689058E+02 0.  0.
          1    1    3    3  502    0 -0.76535020429E+03  0.77392241115E+03  0.95168030859E+02  0.10925995551E+04  0.00000000000E+00 0. -1.
         -1    1    3    3    0  502 -0.40183050868E+02  0.44813370974E+02 -0.15787090399E+02  0.62226586106E+02  0.00000000000E+00 0.  1.
         11    1    5    5    0    0  0.58110358022E+03 -0.51024464649E+03 -0.94696194938E+03  0.12226070112E+04  0.00000000000E+00 0. -1.
        -11    1    5    5    0    0  0.31385301502E+03 -0.36353730697E+03 -0.54666746514E+03  0.72767328248E+03  0.00000000000E+00 0.  1.
          3    1    6    6  503    0 -0.55539854996E+02 -0.19089844543E+02  0.14287351524E+01  0.58746395139E+02  0.00000000000E+00 0. -1.
         -3    1    6    6    0  503 -0.33883485082E+02  0.74136015875E+02 -0.20105347534E+01  0.81536995659E+02  0.00000000000E+00 0.  1.
<mgrwt>
<rscale>  0 0.29207551E+04</rscale>
<asrwt>0</asrwt>
<pdfrwt beam="1">  1        2 0.35847847E+00 0.29207551E+04</pdfrwt>
<pdfrwt beam="2">  1       -2 0.14081227E+00 0.29207551E+04</pdfrwt>
<totfact> 0.13284027E+00</totfact>
</mgrwt>
</event>
<event>
12    2  0.3555611E-008  0.1249212E+04  0.7818608E-02  0.9070840E-01
         -1   -1    0    0    0  501 -0.00000000000E+00  0.00000000000E+00  0.72422558594E+03  0.72422558594E+03  0.00000000000E+00 0.  1.
          1   -1    0    0  501    0  0.00000000000E+00 -0.00000000000E+00 -0.53868906435E+03  0.53868906435E+03  0.00000000000E+00 0. -1.
         23    2    1    2    0    0  0.20339163705E+03 -0.39600076657E+02  0.27989559675E+03  0.36037568108E+03  0.92697153900E+02 0.  0.
        254    2    1    2    0    0 -0.20339163705E+03  0.39600076657E+02 -0.94359075171E+02  0.90253896921E+03  0.87334794428E+03 0.  0.
         23    2    4    4    0    0 -0.19975224414E+03 -0.33733778397E+03  0.16527247534E+03  0.43565267696E+03  0.93704451873E+02 0.  0.
         23    2    4    4    0    0 -0.36393929016E+01  0.37693786063E+03 -0.25963155051E+03  0.46688629225E+03  0.92080790168E+02 0.  0.
          1    1    3    3  502    0  0.51814675242E+02 -0.39799642428E+02  0.40007444007E+02  0.76611798594E+02  0.00000000000E+00 0. -1.
         -1    1    3    3    0  502  0.15157696180E+03  0.19956577079E+00  0.23988815275E+03  0.28376388249E+03  0.00000000000E+00 0.  1.
         11    1    5    5    0    0 -0.33966683100E+02 -0.13987218880E+03  0.42490896941E+02  0.15007811661E+03  0.00000000000E+00 0.  1.
        -11    1    5    5    0    0 -0.16578556104E+03 -0.19746559517E+03  0.12278157840E+03  0.28557456035E+03  0.00000000000E+00 0. -1.
          2    1    6    6  503    0 -0.36744652499E+02  0.31653671904E+03 -0.22232111767E+03  0.38855159677E+03  0.00000000000E+00 0.  1.
         -2    1    6    6    0  503  0.33105259597E+02  0.60401141588E+02 -0.37310432835E+02  0.78334695484E+02  0.00000000000E+00 0. -1.
<mgrwt>
<rscale>  0 0.12492116E+04</rscale>
<asrwt>0</asrwt>
<pdfrwt beam="1">  1        1 0.82875240E-01 0.12492116E+04</pdfrwt>
<pdfrwt beam="2">  1       -1 0.11141932E+00 0.12492116E+04</pdfrwt>
<totfact> 0.29178525E+01</totfact>
</mgrwt>
</event>
<event>
12    2  0.3555611E-008  0.1525468E+04  0.7818608E-02  0.8867692E-01
          2   -1    0    0  501    0  0.00000000000E+00  0.00000000000E+00  0.78051140010E+03  0.78051140010E+03  0.00000000000E+00 0. -1.
         -2   -1    0    0    0  501 -0.00000000000E+00 -0.00000000000E+00 -0.74536140168E+03  0.74536140168E+03  0.00000000000E+00 0.  1.
         23    2    1    2    0    0  0.41468848190E+02 -0.93996016038E+02 -0.47139701598E+03  0.49164889527E+03  0.94596898168E+02 0.  0.
        254    2    1    2    0    0 -0.41468848190E+02  0.93996016038E+02  0.50654701440E+03  0.10342239065E+04  0.89580929588E+03 0.  0.
         23    2    4    4    0    0  0.39030251102E+03 -0.10967941429E+03  0.22862879348E+03  0.47435623531E+03  0.91526437387E+02 0.  0.
         23    2    4    4    0    0 -0.43177135921E+03  0.20367543032E+03  0.27791822092E+03  0.55986767119E+03  0.91121260823E+02 0.  0.
          1    1    3    3  502    0 -0.26067345771E+02 -0.87592290120E+01 -0.58029436979E+02  0.64215622433E+02  0.00000000000E+00 0. -1.
         -1    1    3    3    0  502  0.67536193962E+02 -0.85236787026E+02 -0.41336757900E+03  0.42743327284E+03  0.00000000000E+00 0.  1.
         11    1    5    5    0    0 -0.12844178591E+00 -0.11456911320E+02  0.14102993527E+02  0.18170628517E+02  0.00000000000E+00 0.  1.
        -11    1    5    5    0    0  0.39043095281E+03 -0.98222502966E+02  0.21452579995E+03  0.45618560680E+03  0.00000000000E+00 0. -1.
          3    1    6    6  503    0 -0.41463926329E+03  0.17111644726E+03  0.26431047840E+03  0.52064055372E+03  0.00000000000E+00 0. -1.
         -3    1    6    6    0  503 -0.17132095923E+02  0.32558983064E+02  0.13607742521E+02  0.39227117475E+02  0.00000000000E+00 0.  1.
<mgrwt>
<rscale>  0 0.15254679E+04</rscale>
<asrwt>0</asrwt>
<pdfrwt beam="1">  1        2 0.12007868E+00 0.15254679E+04</pdfrwt>
<pdfrwt beam="2">  1       -2 0.11467099E+00 0.15254679E+04</pdfrwt>
<totfact> 0.20380904E+01</totfact>
</mgrwt>
</event>
<event>
12    2  0.3555611E-008  0.1105819E+04  0.7818608E-02  0.9199539E-01
         -1   -1    0    0    0  501 -0.00000000000E+00  0.00000000000E+00  0.12614499299E+04  0.12614499299E+04  0.00000000000E+00 0.  1.
          1   -1    0    0  501    0  0.00000000000E+00 -0.00000000000E+00 -0.24234716215E+03  0.24234716215E+03  0.00000000000E+00 0. -1.
         23    2    1    2    0    0 -0.98262993832E+02  0.72004421515E+02  0.14600011829E+02  0.15198826871E+03  0.89705188294E+02 0.  0.
        254    2    1    2    0    0  0.98262993832E+02 -0.72004421515E+02  0.10045027559E+04  0.13518088233E+04  0.89639335981E+03 0.  0.
         23    2    4    4    0    0 -0.64668278820E+02 -0.16537401431E+03  0.11031132110E+04  0.11210137113E+04  0.91007877577E+02 0.  0.
         23    2    4    4    0    0  0.16293127265E+03  0.93369592797E+02 -0.98610455080E+02  0.23079511202E+03  0.90982863290E+02 0.  0.
          2    1    3    3  502    0 -0.12952721587E+02 -0.21137279349E+02  0.52238281639E+01  0.25334678910E+02  0.00000000000E+00 0.  1.
         -2    1    3    3    0  502 -0.85310272245E+02  0.93141700864E+02  0.93761836647E+01  0.12665358980E+03  0.00000000000E+00 0. -1.
         11    1    5    5    0    0 -0.60706398554E+02 -0.37154385363E+02  0.40870286239E+03  0.41485388380E+03  0.00000000000E+00 0. -1.
        -11    1    5    5    0    0 -0.39618802666E+01 -0.12821962895E+03  0.69441034860E+03  0.70615982751E+03  0.00000000000E+00 0.  1.
          3    1    6    6  503    0  0.16674231778E+03  0.67684450016E+02 -0.72620591318E+02  0.19405652681E+03  0.00000000000E+00 0. -1.
         -3    1    6    6    0  503 -0.38110451312E+01  0.25685142781E+02 -0.25989863763E+02  0.36738585208E+02  0.00000000000E+00 0.  1.
<mgrwt>
<rscale>  0 0.11058188E+04</rscale>
<asrwt>0</asrwt>
<pdfrwt beam="1">  1        1 0.37284180E-01 0.11058188E+04</pdfrwt>
<pdfrwt beam="2">  1       -1 0.19406922E+00 0.11058188E+04</pdfrwt>
<totfact> 0.19100377E+01</totfact>
</mgrwt>
</event>
<event>
12    2  0.3555611E-008  0.1515242E+04  0.7818608E-02  0.8874380E-01
          2   -1    0    0  501    0  0.00000000000E+00  0.00000000000E+00  0.16828178186E+04  0.16828178186E+04  0.00000000000E+00 0. -1.
         -2   -1    0    0    0  501 -0.00000000000E+00 -0.00000000000E+00 -0.34108842420E+03  0.34108842420E+03  0.00000000000E+00 0.  1.
         23    2    1    2    0    0 -0.17034869859E+03  0.62699399347E+02 -0.11753466425E+03  0.23507746520E+03  0.92179843552E+02 0.  0.
        254    2    1    2    0    0  0.17034869859E+03 -0.62699399347E+02  0.14592640586E+04  0.17888287776E+04  0.10185808308E+04 0.  0.
         23    2    4    4    0    0  0.58241464343E+03 -0.48418438448E+02  0.67308554019E+03  0.89630306308E+03  0.93615567127E+02 0.  0.
         23    2    4    4    0    0 -0.41206594484E+03 -0.14280960899E+02  0.78617851842E+03  0.89252571448E+03  0.92321175502E+02 0.  0.
          4    1    3    3  502    0 -0.66408519889E+02  0.44000342240E+01  0.15926511135E+01  0.66573180430E+02  0.00000000000E+00 0. -1.
         -4    1    3    3    0  502 -0.10394017870E+03  0.58299365123E+02 -0.11912731536E+03  0.16850428477E+03  0.00000000000E+00 0.  1.
         11    1    5    5    0    0  0.75143882276E+02  0.52986478421E+01  0.13673898612E+03  0.15611607552E+03  0.00000000000E+00 0.  1.
        -11    1    5    5    0    0  0.50727076115E+03 -0.53717086290E+02  0.53634655408E+03  0.74018698756E+03  0.00000000000E+00 0. -1.
          2    1    6    6  503    0 -0.22268492879E+03  0.87409256122E+01  0.33150308225E+03  0.39944871364E+03  0.00000000000E+00 0. -1.
         -2    1    6    6    0  503 -0.18938101605E+03 -0.23021886511E+02  0.45467543617E+03  0.49307700084E+03  0.00000000000E+00 0.  1.
<mgrwt>
<rscale>  0 0.15152421E+04</rscale>
<asrwt>0</asrwt>
<pdfrwt beam="1">  1        2 0.25889504E+00 0.15152421E+04</pdfrwt>
<pdfrwt beam="2">  1       -2 0.52475143E-01 0.15152421E+04</pdfrwt>
<totfact> 0.33152414E+01</totfact>
</mgrwt>
</event>
<event>
12    2  0.3555611E-008  0.1747361E+04  0.7818608E-02  0.8734804E-01
         -1   -1    0    0    0  501 -0.00000000000E+00  0.00000000000E+00  0.54958752333E+03  0.54958752333E+03  0.00000000000E+00 0.  1.
          1   -1    0    0  501    0  0.00000000000E+00 -0.00000000000E+00 -0.13888921868E+04  0.13888921868E+04  0.00000000000E+00 0. -1.
         23    2    1    2    0    0 -0.92678541569E+02 -0.28255348684E+03 -0.93760006676E+03  0.98723118845E+03  0.84295606454E+02 0.  0.
        254    2    1    2    0    0  0.92678541569E+02  0.28255348684E+03  0.98295403291E+02  0.95124852168E+03  0.89821265783E+03 0.  0.
         23    2    4    4    0    0  0.29025544319E+03  0.44482025862E+03 -0.17416926923E+03  0.56640900575E+03  0.91492855826E+02 0.  0.
         23    2    4    4    0    0 -0.19757690162E+03 -0.16226677178E+03  0.27246467252E+03  0.38483951593E+03  0.92180898091E+02 0.  0.
          2    1    3    3  502    0 -0.73233030455E+02 -0.24518397122E+03 -0.87596860052E+03  0.91257835038E+03  0.00000000000E+00 0. -1.
         -2    1    3    3    0  502 -0.19445511114E+02 -0.37369515626E+02 -0.61631466237E+02  0.74652838064E+02  0.00000000000E+00 0.  1.
         11    1    5    5    0    0  0.11450118720E+03  0.25064847246E+03 -0.68169295652E+02  0.28387009615E+03  0.00000000000E+00 0.  1.
        -11    1    5    5    0    0  0.17575425599E+03  0.19417178616E+03 -0.10599997358E+03  0.28253890960E+03  0.00000000000E+00 0. -1.
          4    1    6    6  503    0 -0.29672217895E+02 -0.15005795423E+02  0.93642209469E+00  0.33263963946E+02  0.00000000000E+00 0.  1.
         -4    1    6    6    0  503 -0.16790468373E+03 -0.14726097636E+03  0.27152825042E+03  0.35157555198E+03  0.00000000000E+00 0. -1.
<mgrwt>
<rscale>  0 0.17473612E+04</rscale>
<asrwt>0</asrwt>
<pdfrwt beam="1">  1        1 0.21367572E+00 0.17473612E+04</pdfrwt>
<pdfrwt beam="2">  1       -1 0.84551928E-01 0.17473612E+04</pdfrwt>
<totfact> 0.10267987E+01</totfact>
</mgrwt>
</event>
<event>
12    2  0.3555611E-008  0.1889003E+04  0.7818608E-02  0.8660350E-01
          2   -1    0    0  501    0  0.00000000000E+00  0.00000000000E+00  0.15022467830E+04  0.15022467830E+04  0.00000000000E+00 0. -1.
         -2   -1    0    0    0  501 -0.00000000000E+00 -0.00000000000E+00 -0.59383275126E+03  0.59383275126E+03  0.00000000000E+00 0.  1.
         23    2    1    2    0    0  0.53472203556E+03 -0.23044376733E+03 -0.13350247658E+03  0.60385215736E+03  0.88218657203E+02 0.  0.
        254    2    1    2    0    0 -0.53472203556E+03  0.23044376733E+03  0.10419165083E+04  0.14922273769E+04  0.89561182932E+03 0.  0.
         23    2    4    4    0    0 -0.18360529567E+03  0.36088033375E+03  0.10247497888E+04  0.11059214861E+04  0.94893013841E+02 0.  0.
         23    2    4    4    0    0 -0.35111673989E+03 -0.13043656642E+03  0.17166719517E+02  0.38630589071E+03  0.92956344875E+02 0.  0.
          3    1    3    3  502    0  0.59024185163E+02  0.18315185577E+01 -0.61516733082E+01  0.59372148175E+02  0.00000000000E+00 0. -1.
         -3    1    3    3    0  502  0.47569785039E+03 -0.23227528589E+03 -0.12735080328E+03  0.54448000918E+03  0.00000000000E+00 0.  1.
         11    1    5    5    0    0 -0.18307779205E+03  0.30787105678E+03  0.94027705830E+03  0.10061923335E+04  0.00000000000E+00 0. -1.
        -11    1    5    5    0    0 -0.52750361700E+00  0.53009276970E+02  0.84472730464E+02  0.99729152693E+02  0.00000000000E+00 0.  1.
          4    1    6    6  503    0 -0.42253021087E+01  0.10482355843E+02 -0.15963662165E+01  0.11414085466E+02  0.00000000000E+00 0.  1.
         -4    1    6    6    0  503 -0.34689143778E+03 -0.14091892226E+03  0.18763085734E+02  0.37489180525E+03  0.00000000000E+00 0. -1.
<mgrwt>
<rscale>  0 0.18890033E+04</rscale>
<asrwt>0</asrwt>
<pdfrwt beam="1">  1        2 0.23111489E+00 0.18890033E+04</pdfrwt>
<pdfrwt beam="2">  1       -2 0.91358885E-01 0.18890033E+04</pdfrwt>
<totfact> 0.12111730E+01</totfact>
</mgrwt>
</event>
<event>
12    2  0.3555611E-008  0.1591988E+04  0.7818608E-02  0.8825485E-01
          2   -1    0    0  501    0  0.00000000000E+00  0.00000000000E+00  0.16778371983E+04  0.16778371983E+04  0.00000000000E+00 0.  1.
         -2   -1    0    0    0  501 -0.00000000000E+00 -0.00000000000E+00 -0.37763266446E+03  0.37763266446E+03  0.00000000000E+00 0. -1.
         23    2    1    2    0    0 -0.16350899649E+02 -0.43955176639E+03  0.31202254899E+03  0.54695807524E+03  0.91279558182E+02 0.  0.
        254    2    1    2    0    0  0.16350899649E+02  0.43955176639E+03  0.98818198481E+03  0.15085117875E+04  0.10514899289E+04 0.  0.
         23    2    4    4    0    0  0.29073738779E+03  0.39422938505E+03  0.10871724258E+04  0.11958776859E+04  0.90744254056E+02 0.  0.
         23    2    4    4    0    0 -0.27438648814E+03  0.45322381334E+02 -0.98990440954E+02  0.31263410155E+03  0.10295101229E+03 0.  0.
          1    1    3    3  502    0  0.18099231114E+02 -0.18475581550E+03  0.17721439413E+03  0.25664612799E+03  0.00000000000E+00 0. -1.
         -1    1    3    3    0  502 -0.34450130762E+02 -0.25479595089E+03  0.13480815486E+03  0.29031194725E+03  0.00000000000E+00 0.  1.
         11    1    5    5    0    0  0.26418020126E+03  0.39026913623E+03  0.10322736306E+04  0.11347643041E+04  0.00000000000E+00 0. -1.
        -11    1    5    5    0    0  0.26557186528E+02  0.39602488271E+01  0.54898795176E+02  0.61113381831E+02  0.00000000000E+00 0.  1.
          4    1    6    6  503    0 -0.18233982757E+03  0.41160616556E+02 -0.11448393774E+03  0.21919986559E+03  0.00000000000E+00 0. -1.
         -4    1    6    6    0  503 -0.92046660564E+02  0.41617647782E+01  0.15493496785E+02  0.93434235962E+02  0.00000000000E+00 0.  1.
<mgrwt>
<rscale>  0 0.15919876E+04</rscale>
<asrwt>0</asrwt>
<pdfrwt beam="1">  1        2 0.25812880E+00 0.15919876E+04</pdfrwt>
<pdfrwt beam="2">  1       -2 0.58097334E-01 0.15919876E+04</pdfrwt>
<totfact> 0.26834852E+01</totfact>
</mgrwt>
</event>
<event>
12    2  0.3555611E-008  0.2329018E+04  0.7818608E-02  0.8466567E-01
          1   -1    0    0  501    0  0.00000000000E+00  0.00000000000E+00  0.29503927406E+04  0.29503927406E+04  0.00000000000E+00 0. -1.
         -1   -1    0    0    0  501 -0.00000000000E+00 -0.00000000000E+00 -0.45962724557E+03  0.45962724557E+03  0.00000000000E+00 0.  1.
         23    2    1    2    0    0  0.64780791079E+03  0.70102346038E+03  0.12919655387E+04  0.16087216032E+04  0.87870713314E+02 0.  0.
        254    2    1    2    0    0 -0.64780791079E+03 -0.70102346038E+03  0.11987999563E+04  0.18012983829E+04  0.94681864564E+03 0.  0.
         23    2    4    4    0    0 -0.17712983345E+03 -0.64848903049E+03  0.22469132854E+03  0.71422002614E+03  0.87812596231E+02 0.  0.
         23    2    4    4    0    0 -0.47067807734E+03 -0.52534429890E+02  0.97410862774E+03  0.10870783567E+04  0.92487924855E+02 0.  0.
          1    1    3    3  502    0  0.43557348591E+02  0.45581792496E+02  0.52985802607E+02  0.82355556590E+02  0.00000000000E+00 0. -1.
         -1    1    3    3    0  502  0.60425056220E+03  0.65544166789E+03  0.12389797361E+04  0.15263660466E+04  0.00000000000E+00 0.  1.
         11    1    5    5    0    0 -0.11092110956E+03 -0.38405660509E+03  0.88223055064E+02  0.40937302782E+03  0.00000000000E+00 0.  1.
        -11    1    5    5    0    0 -0.66208723886E+02 -0.26443242541E+03  0.13646827348E+03  0.30484699833E+03  0.00000000000E+00 0. -1.
          2    1    6    6  503    0 -0.44905243982E+03 -0.39536050942E+02  0.86877748277E+03  0.97876734089E+03  0.00000000000E+00 0. -1.
         -2    1    6    6    0  503 -0.21625637527E+02 -0.12998378948E+02  0.10533114497E+03  0.10831101585E+03  0.00000000000E+00 0.  1.
<mgrwt>
<rscale>  0 0.23290177E+04</rscale>
<asrwt>0</asrwt>
<pdfrwt beam="1">  1        1 0.45390656E+00 0.23290177E+04</pdfrwt>
<pdfrwt beam="2">  1       -1 0.70711886E-01 0.23290177E+04</pdfrwt>
<totfact> 0.11839087E+00</totfact>
</mgrwt>
</event>
<event>
12    2  0.3555611E-008  0.1822688E+04  0.7818608E-02  0.8694327E-01
          2   -1    0    0  501    0  0.00000000000E+00  0.00000000000E+00  0.25783287908E+04  0.25783287908E+04  0.00000000000E+00 0. -1.
         -2   -1    0    0    0  501 -0.00000000000E+00 -0.00000000000E+00 -0.32212638656E+03  0.32212638656E+03  0.00000000000E+00 0.  1.
         23    2    1    2    0    0  0.33266667202E+03 -0.37813157665E+03  0.15505863896E+04  0.16326213642E+04  0.86508746327E+02 0.  0.
        254    2    1    2    0    0 -0.33266667202E+03  0.37813157665E+03  0.70561601464E+03  0.12678338132E+04  0.92512594484E+03 0.  0.
         23    2    4    4    0    0 -0.15690365994E+03 -0.27467301233E+03  0.40626909215E+03  0.52283191473E+03  0.90744771852E+02 0.  0.
         23    2    4    4    0    0 -0.17576301208E+03  0.65280458899E+03  0.29934692249E+03  0.74500189846E+03  0.91502900970E+02 0.  0.
          2    1    3    3  502    0  0.20322555601E+03 -0.23744006069E+03  0.10903304135E+04  0.11342393132E+04  0.00000000000E+00 0. -1.
         -2    1    3    3    0  502  0.12944111601E+03 -0.14069151597E+03  0.46025597612E+03  0.49838205097E+03  0.00000000000E+00 0.  1.
         11    1    5    5    0    0 -0.79958817012E+02 -0.58110491200E+02  0.13446149447E+03  0.16688359746E+03  0.00000000000E+00 0.  1.
        -11    1    5    5    0    0 -0.76944842926E+02 -0.21656252113E+03  0.27180759768E+03  0.35594831727E+03  0.00000000000E+00 0. -1.
          2    1    6    6  503    0 -0.30039413497E+02  0.69499145947E+02  0.64737933134E+02  0.99616753797E+02  0.00000000000E+00 0. -1.
         -2    1    6    6    0  503 -0.14572359859E+03  0.58330544304E+03  0.23460898935E+03  0.64538514466E+03  0.00000000000E+00 0.  1.
<mgrwt>
<rscale>  0 0.18226878E+04</rscale>
<asrwt>0</asrwt>
<pdfrwt beam="1">  1        2 0.39666595E+00 0.18226878E+04</pdfrwt>
<pdfrwt beam="2">  1       -2 0.49557907E-01 0.18226878E+04</pdfrwt>
<totfact> 0.11395326E+01</totfact>
</mgrwt>
</event>
<event>
12    2  0.3555611E-008  0.1217822E+04  0.7818608E-02  0.9097398E-01
         -2   -1    0    0    0  501 -0.00000000000E+00  0.00000000000E+00  0.10811291047E+04  0.10811291047E+04  0.00000000000E+00 0.  1.
          2   -1    0    0  501    0  0.00000000000E+00 -0.00000000000E+00 -0.34294953597E+03  0.34294953597E+03  0.00000000000E+00 0. -1.
         23    2    1    2    0    0  0.23799200030E+02  0.37165866246E+01  0.48879197624E+03  0.49796519171E+03  0.92040866916E+02 0.  0.
        254    2    1    2    0    0 -0.23799200030E+02 -0.37165866246E+01  0.24938759247E+03  0.92611344894E+03  0.89157822657E+03 0.  0.
         23    2    4    4    0    0  0.14416294063E+03 -0.18170185791E+02  0.54601738580E+03  0.57271214155E+03  0.93547326981E+02 0.  0.
         23    2    4    4    0    0 -0.16796214066E+03  0.14453599167E+02 -0.29662979333E+03  0.35340130739E+03  0.92103542562E+02 0.  0.
          3    1    3    3  502    0  0.10354017233E+02  0.25465524595E+02  0.40522356429E+02  0.48966927474E+02  0.00000000000E+00 0. -1.
         -3    1    3    3    0  502  0.13445182797E+02 -0.21748937970E+02  0.44826961981E+03  0.44899826424E+03  0.00000000000E+00 0.  1.
         11    1    5    5    0    0  0.36826836811E+02 -0.44270036825E+02  0.25534321059E+03  0.26175600712E+03  0.00000000000E+00 0. -1.
        -11    1    5    5    0    0  0.10733610382E+03  0.26099851034E+02  0.29067417520E+03  0.31095613443E+03  0.00000000000E+00 0.  1.
          3    1    6    6  503    0 -0.42684464211E+02 -0.38754330993E+01 -0.16615293806E+03  0.17159190334E+03  0.00000000000E+00 0. -1.
         -3    1    6    6    0  503 -0.12527767645E+03  0.18329032266E+02 -0.13047685527E+03  0.18180940405E+03  0.00000000000E+00 0.  1.
<mgrwt>
<rscale>  0 0.12178222E+04</rscale>
<asrwt>0</asrwt>
<pdfrwt beam="1">  1        2 0.52761468E-01 0.12178222E+04</pdfrwt>
<pdfrwt beam="2">  1       -2 0.16632755E+00 0.12178222E+04</pdfrwt>
<totfact> 0.21075450E+01</totfact>
</mgrwt>
</event>
<event>
12    2  0.3555611E-008  0.1955361E+04  0.7818608E-02  0.8627780E-01
          1   -1    0    0  501    0  0.00000000000E+00  0.00000000000E+00  0.19477176481E+04  0.19477176481E+04  0.00000000000E+00 0. -1.
         -1   -1    0    0    0  501 -0.00000000000E+00 -0.00000000000E+00 -0.49075843331E+03  0.49075843331E+03  0.00000000000E+00 0.  1.
         23    2    1    2    0    0  0.49562769610E+03  0.85283178585E+02  0.13194004137E+04  0.14150965610E+04  0.93599100184E+02 0.  0.
        254    2    1    2    0    0 -0.49562769610E+03 -0.85283178585E+02  0.13755880109E+03  0.10233795204E+04  0.88060387539E+03 0.  0.
         23    2    4    4    0    0 -0.12520508517E+03  0.21227129726E+03  0.39603988838E+03  0.47518042237E+03  0.90627940638E+02 0.  0.
         23    2    4    4    0    0 -0.37042261093E+03 -0.29755447585E+03 -0.25848108729E+03  0.54819909804E+03  0.89208754155E+02 0.  0.
          1    1    3    3  502    0  0.35614905477E+03  0.88533831332E+02  0.86139402228E+03  0.93631194060E+03  0.00000000000E+00 0. -1.
         -1    1    3    3    0  502  0.13947864133E+03 -0.32506527476E+01  0.45800639144E+03  0.47878462040E+03  0.00000000000E+00 0.  1.
         11    1    5    5    0    0 -0.11692232894E+01 -0.55649778928E+01 -0.85656050402E+00  0.57506310911E+01  0.00000000000E+00 0.  1.
        -11    1    5    5    0    0 -0.12403586188E+03  0.21783627516E+03  0.39689644888E+03  0.46942979128E+03  0.00000000000E+00 0. -1.
          2    1    6    6  503    0 -0.36235983301E+03 -0.30202563864E+03 -0.26033721865E+03  0.53879458274E+03  0.00000000000E+00 0. -1.
         -2    1    6    6    0  503 -0.80627779231E+01  0.44711627881E+01  0.18561313556E+01  0.94045153052E+01  0.00000000000E+00 0.  1.
<mgrwt>
<rscale>  0 0.19553607E+04</rscale>
<asrwt>0</asrwt>
<pdfrwt beam="1">  1        1 0.29964887E+00 0.19553607E+04</pdfrwt>
<pdfrwt beam="2">  1       -1 0.75501298E-01 0.19553607E+04</pdfrwt>
<totfact> 0.53088318E+00</totfact>
</mgrwt>
</event>
<event>
12    2  0.3555611E-008  0.1996583E+04  0.7818608E-02  0.8608220E-01
          2   -1    0    0  501    0  0.00000000000E+00  0.00000000000E+00  0.96730522920E+03  0.96730522920E+03  0.00000000000E+00 0. -1.
         -2   -1    0    0    0  501 -0.00000000000E+00 -0.00000000000E+00 -0.10302705035E+04  0.10302705035E+04  0.00000000000E+00 0.  1.
         23    2    1    2    0    0 -0.18742323421E+02 -0.33693227842E+02 -0.82213259441E+03  0.82946616317E+03  0.10308057408E+03 0.  0.
        254    2    1    2    0    0  0.18742323421E+02  0.33693227842E+02  0.75916732007E+03  0.11681095696E+04  0.88693767447E+03 0.  0.
         23    2    4    4    0    0  0.31434980658E+03 -0.11554242879E+03  0.74884667210E+03  0.82521389968E+03  0.89670441895E+02 0.  0.
         23    2    4    4    0    0 -0.29560748316E+03  0.14923565663E+03  0.10320647965E+02  0.34289566990E+03  0.88407348969E+02 0.  0.
          1    1    3    3  502    0 -0.24033322734E+02 -0.36641787155E+02 -0.82224122424E+03  0.82340807137E+03  0.00000000000E+00 0.  1.
         -1    1    3    3    0  502  0.52909993131E+01  0.29485593131E+01  0.10862982349E+00  0.60580917947E+01  0.00000000000E+00 0. -1.
         11    1    5    5    0    0  0.43773652894E+01  0.52466028075E+01  0.12598160434E+01  0.69480432036E+01  0.00000000000E+00 0. -1.
        -11    1    5    5    0    0  0.30997244129E+03 -0.12078903159E+03  0.74758685606E+03  0.81826585647E+03  0.00000000000E+00 0.  1.
          1    1    6    6  503    0 -0.14147829305E+01  0.27833798211E+01 -0.13066756944E+02  0.13434617635E+02  0.00000000000E+00 0. -1.
         -1    1    6    6    0  503 -0.29419270023E+03  0.14645227681E+03  0.23387404909E+02  0.32946105227E+03  0.00000000000E+00 0.  1.
<mgrwt>
<rscale>  0 0.19965831E+04</rscale>
<asrwt>0</asrwt>
<pdfrwt beam="1">  1        2 0.14881619E+00 0.19965831E+04</pdfrwt>
<pdfrwt beam="2">  1       -2 0.15850315E+00 0.19965831E+04</pdfrwt>
<totfact> 0.63505494E+00</totfact>
</mgrwt>
</event>
<event>
12    2  0.3555611E-008  0.1402765E+04  0.7818608E-02  0.8951819E-01
          2   -1    0    0  501    0  0.00000000000E+00  0.00000000000E+00  0.12983544091E+04  0.12983544091E+04  0.00000000000E+00 0. -1.
         -2   -1    0    0    0  501 -0.00000000000E+00 -0.00000000000E+00 -0.37889316721E+03  0.37889316721E+03  0.00000000000E+00 0.  1.
         23    2    1    2    0    0  0.39542676159E+03  0.80127022265E+02  0.19619847320E+03  0.45765710368E+03  0.90407522861E+02 0.  0.
        254    2    1    2    0    0 -0.39542676159E+03 -0.80127022265E+02  0.72326276867E+03  0.12195904726E+04  0.89527047579E+03 0.  0.
         23    2    4    4    0    0 -0.60962785522E+03 -0.94574423642E+02  0.76166864661E+03  0.98436696411E+03  0.90822625666E+02 0.  0.
         23    2    4    4    0    0  0.21420109363E+03  0.14447401377E+02 -0.38405877940E+02  0.23522350848E+03  0.88114990583E+02 0.  0.
          4    1    3    3  502    0  0.38186381346E+03  0.91049178397E+02  0.17389156275E+03  0.42935789327E+03  0.00000000000E+00 0. -1.
         -4    1    3    3    0  502  0.13562948129E+02 -0.10922156132E+02  0.22306910442E+02  0.28299210413E+02  0.00000000000E+00 0.  1.
         11    1    5    5    0    0 -0.13988232940E+03 -0.36244948120E+02  0.12534931667E+03  0.19129352715E+03  0.00000000000E+00 0. -1.
        -11    1    5    5    0    0 -0.46974552582E+03 -0.58329475522E+02  0.63631932995E+03  0.79307343696E+03  0.00000000000E+00 0.  1.
          1    1    6    6  503    0  0.13397920973E+02 -0.44724059326E+01  0.20690072861E+02  0.25051662943E+02  0.00000000000E+00 0. -1.
         -1    1    6    6    0  503  0.20080317266E+03  0.18919807310E+02 -0.59095950802E+02  0.21017184554E+03  0.00000000000E+00 0.  1.
<mgrwt>
<rscale>  0 0.14027653E+04</rscale>
<asrwt>0</asrwt>
<pdfrwt beam="1">  1        2 0.19974683E+00 0.14027653E+04</pdfrwt>
<pdfrwt beam="2">  1       -2 0.58291257E-01 0.14027653E+04</pdfrwt>
<totfact> 0.44378742E+01</totfact>
</mgrwt>
</event>
<event>
12    2  0.3555611E-008  0.1822911E+04  0.7818608E-02  0.8694210E-01
         -2   -1    0    0    0  501 -0.00000000000E+00  0.00000000000E+00  0.27204553633E+03  0.27204553633E+03  0.00000000000E+00 0.  1.
          2   -1    0    0  501    0  0.00000000000E+00 -0.00000000000E+00 -0.30537199148E+04  0.30537199148E+04  0.00000000000E+00 0. -1.
         23    2    1    2    0    0  0.34033570753E+03  0.19761511279E+03 -0.20842419054E+04  0.21230547538E+04  0.91744431848E+02 0.  0.
        254    2    1    2    0    0 -0.34033570753E+03 -0.19761511279E+03 -0.69743247305E+03  0.12027106973E+04  0.89734098332E+03 0.  0.
         23    2    4    4    0    0 -0.26946760259E+03 -0.41102315588E+03 -0.79684601215E+03  0.94082738039E+03  0.92950358212E+02 0.  0.
         23    2    4    4    0    0 -0.70868104940E+02  0.21340804309E+03  0.99413539094E+02  0.26188331693E+03  0.90191677982E+02 0.  0.
          4    1    3    3  502    0  0.28767039376E+03  0.18719622908E+03 -0.19146356601E+04  0.19451545940E+04  0.00000000000E+00 0. -1.
         -4    1    3    3    0  502  0.52665313771E+02  0.10418883707E+02 -0.16960624536E+03  0.17790015985E+03  0.00000000000E+00 0.  1.
         11    1    5    5    0    0 -0.25085414626E+03 -0.34100320519E+03 -0.63104288705E+03  0.75988559266E+03  0.00000000000E+00 0. -1.
        -11    1    5    5    0    0 -0.18613456335E+02 -0.70019950697E+02 -0.16580312510E+03  0.18094178772E+03  0.00000000000E+00 0.  1.
          3    1    6    6  503    0 -0.35897401351E+02  0.14122625452E+03  0.10777347908E+03  0.18124183067E+03  0.00000000000E+00 0. -1.
         -3    1    6    6    0  503 -0.34970703589E+02  0.72181788570E+02 -0.83599399837E+01  0.80641486266E+02  0.00000000000E+00 0.  1.
<mgrwt>
<rscale>  0 0.18229107E+04</rscale>
<asrwt>0</asrwt>
<pdfrwt beam="1">  1        2 0.46980306E+00 0.18229107E+04</pdfrwt>
<pdfrwt beam="2">  1       -2 0.41853160E-01 0.18229107E+04</pdfrwt>
<totfact> 0.82433246E+00</totfact>
</mgrwt>
</event>
<event>
12    2  0.3555611E-008  0.1420807E+04  0.7818608E-02  0.8938894E-01
         -2   -1    0    0    0  501 -0.00000000000E+00  0.00000000000E+00  0.52610847114E+03  0.52610847114E+03  0.00000000000E+00 0.  1.
          2   -1    0    0  501    0  0.00000000000E+00 -0.00000000000E+00 -0.95925641750E+03  0.95925641750E+03  0.00000000000E+00 0. -1.
         23    2    1    2    0    0 -0.61958936438E+02  0.19435724899E+03  0.24836182610E+03  0.33538849359E+03  0.95855072518E+02 0.  0.
        254    2    1    2    0    0  0.61958936438E+02 -0.19435724899E+03 -0.68150977246E+03  0.11499763950E+04  0.90353554948E+03 0.  0.
         23    2    4    4    0    0  0.31549049912E+03 -0.24417274163E+03 -0.76075378424E+03  0.86484345523E+03  0.10026614097E+03 0.  0.
         23    2    4    4    0    0 -0.25353156268E+03  0.49815492636E+02  0.79244011779E+02  0.28513293982E+03  0.90891932467E+02 0.  0.
          4    1    3    3  502    0  0.11742878330E+02  0.11916423469E+03  0.14160324588E+03  0.18544403270E+03  0.00000000000E+00 0.  1.
         -4    1    3    3    0  502 -0.73701814769E+02  0.75193014300E+02  0.10675858022E+03  0.14994446089E+03  0.00000000000E+00 0. -1.
         11    1    5    5    0    0  0.14178872396E+03 -0.82538349345E+02 -0.22100832317E+03  0.27524770710E+03  0.00000000000E+00 0.  1.
        -11    1    5    5    0    0  0.17370177516E+03 -0.16163439228E+03 -0.53974546106E+03  0.58959574812E+03  0.00000000000E+00 0. -1.
          4    1    6    6  503    0 -0.20703650740E+03  0.56190904746E+02  0.29162858703E+02  0.21649943533E+03  0.00000000000E+00 0.  1.
         -4    1    6    6    0  503 -0.46495055287E+02 -0.63754121102E+01  0.50081153077E+02  0.68633504494E+02  0.00000000000E+00 0. -1.
<mgrwt>
<rscale>  0 0.14208067E+04</rscale>
<asrwt>0</asrwt>
<pdfrwt beam="1">  1        2 0.14757791E+00 0.14208067E+04</pdfrwt>
<pdfrwt beam="2">  1       -2 0.80939766E-01 0.14208067E+04</pdfrwt>
<totfact> 0.35040375E+01</totfact>
</mgrwt>
</event>
<event>
12    2  0.3555611E-008  0.1355702E+04  0.7818608E-02  0.8986523E-01
         -1   -1    0    0    0  501 -0.00000000000E+00  0.00000000000E+00  0.72635316972E+03  0.72635316972E+03  0.00000000000E+00 0.  1.
          1   -1    0    0  501    0  0.00000000000E+00 -0.00000000000E+00 -0.63258715757E+03  0.63258715757E+03  0.00000000000E+00 0. -1.
         23    2    1    2    0    0  0.35507255376E+03 -0.16862007395E+02  0.12546680128E+03  0.38875661117E+03  0.95020728159E+02 0.  0.
        254    2    1    2    0    0 -0.35507255376E+03  0.16862007395E+02 -0.31700789126E+02  0.97018371612E+03  0.90215888692E+03 0.  0.
         23    2    4    4    0    0 -0.64689785417E+03  0.33257742623E+02 -0.83177239719E+02  0.65970865968E+03  0.93349618519E+02 0.  0.
         23    2    4    4    0    0  0.29182530041E+03 -0.16395735229E+02  0.51476450592E+02  0.31047505643E+03  0.91181739430E+02 0.  0.
          1    1    3    3  502    0  0.11014759406E+03  0.70623992952E+00 -0.58303695359E+01  0.11030405460E+03  0.00000000000E+00 0. -1.
         -1    1    3    3    0  502  0.24492495970E+03 -0.17568247324E+02  0.13129717082E+03  0.27845255658E+03  0.00000000000E+00 0.  1.
         11    1    5    5    0    0 -0.63337101751E+03  0.17694871183E+02 -0.83430029890E+02  0.63908725865E+03  0.00000000000E+00 0. -1.
        -11    1    5    5    0    0 -0.13526836665E+02  0.15562871440E+02  0.25279017139E+00  0.20621401032E+02  0.00000000000E+00 0.  1.
          1    1    6    6  503    0  0.24734035226E+03  0.17617435147E+02  0.56271981580E+02  0.25427182264E+03  0.00000000000E+00 0. -1.
         -1    1    6    6    0  503  0.44484948151E+02 -0.34013170376E+02 -0.47955309879E+01  0.56203233790E+02  0.00000000000E+00 0.  1.
<mgrwt>
<rscale>  0 0.13557016E+04</rscale>
<asrwt>0</asrwt>
<pdfrwt beam="1">  1        1 0.97321100E-01 0.13557016E+04</pdfrwt>
<pdfrwt beam="2">  1       -1 0.11174664E+00 0.13557016E+04</pdfrwt>
<totfact> 0.22814043E+01</totfact>
</mgrwt>
</event>
<event>
12    2  0.3555611E-008  0.3594929E+04  0.7818608E-02  0.8091654E-01
         -2   -1    0    0    0  501 -0.00000000000E+00  0.00000000000E+00  0.15853596741E+04  0.15853596741E+04  0.00000000000E+00 0.  1.
          2   -1    0    0  501    0  0.00000000000E+00 -0.00000000000E+00 -0.20379469304E+04  0.20379469304E+04  0.00000000000E+00 0. -1.
         23    2    1    2    0    0  0.28295481542E+03  0.85364723089E+03 -0.16437069998E+04  0.18758795071E+04  0.91510663270E+02 0.  0.
        254    2    1    2    0    0 -0.28295481542E+03 -0.85364723089E+03  0.11911197435E+04  0.17474270974E+04  0.90882242212E+03 0.  0.
         23    2    4    4    0    0 -0.48715246769E+03 -0.70684543850E+03  0.48062522891E+03  0.98786728462E+03  0.89068292033E+02 0.  0.
         23    2    4    4    0    0  0.20419765227E+03 -0.14680179240E+03  0.71049451460E+03  0.75955981278E+03  0.94240153193E+02 0.  0.
          1    1    3    3  502    0  0.28347957533E+03  0.82998096953E+03 -0.15687980767E+04  0.17973192496E+04  0.00000000000E+00 0. -1.
         -1    1    3    3    0  502 -0.52475991060E+00  0.23666261363E+02 -0.74908923072E+02  0.78560257482E+02  0.00000000000E+00 0.  1.
         11    1    5    5    0    0 -0.32726539523E+01 -0.58560287709E+00  0.10805404091E+02  0.11305306374E+02  0.00000000000E+00 0. -1.
        -11    1    5    5    0    0 -0.48387981374E+03 -0.70625983562E+03  0.46981982482E+03  0.97656197824E+03  0.00000000000E+00 0.  1.
          3    1    6    6  503    0  0.10382525279E+03 -0.85004599113E+02  0.50637079816E+03  0.52384811751E+03  0.00000000000E+00 0. -1.
         -3    1    6    6    0  503  0.10037239949E+03 -0.61797193285E+02  0.20412371644E+03  0.23571169527E+03  0.00000000000E+00 0.  1.
<mgrwt>
<rscale>  0 0.35949291E+04</rscale>
<asrwt>0</asrwt>
<pdfrwt beam="1">  1        2 0.31353030E+00 0.35949291E+04</pdfrwt>
<pdfrwt beam="2">  1       -2 0.24390149E+00 0.35949291E+04</pdfrwt>
<totfact> 0.36361900E-01</totfact>
</mgrwt>
</event>
<event>
12    2  0.3555611E-008  0.1682045E+04  0.7818608E-02  0.8771671E-01
          1   -1    0    0  501    0  0.00000000000E+00  0.00000000000E+00  0.14361407594E+04  0.14361407594E+04  0.00000000000E+00 0. -1.
         -1   -1    0    0    0  501 -0.00000000000E+00 -0.00000000000E+00 -0.49251376309E+03  0.49251376309E+03  0.00000000000E+00 0.  1.
         23    2    1    2    0    0  0.85276689870E+02  0.30734219907E+03 -0.24119076269E+03  0.41041579274E+03  0.92394792943E+02 0.  0.
        254    2    1    2    0    0 -0.85276689870E+02 -0.30734219907E+03  0.11848177590E+04  0.15182387297E+04  0.89416127027E+03 0.  0.
         23    2    4    4    0    0  0.20851054421E+02 -0.50062573241E+03  0.27609999228E+03  0.57896723231E+03  0.88943577206E+02 0.  0.
         23    2    4    4    0    0 -0.10612774429E+03  0.19328353334E+03  0.90871776669E+03  0.93927149741E+03  0.88551363442E+02 0.  0.
          1    1    3    3  502    0  0.11735468296E+02  0.34344119943E+01 -0.31882791526E+02  0.34147163826E+02  0.00000000000E+00 0. -1.
         -1    1    3    3    0  502  0.73541221574E+02  0.30390778707E+03 -0.20930797117E+03  0.37626862892E+03  0.00000000000E+00 0.  1.
         11    1    5    5    0    0 -0.27109285735E+02 -0.64968064377E+02  0.43980205694E+02  0.83006151910E+02  0.00000000000E+00 0. -1.
        -11    1    5    5    0    0  0.47960340157E+02 -0.43565766803E+03  0.23211978659E+03  0.49596108040E+03  0.00000000000E+00 0.  1.
          3    1    6    6  503    0 -0.94901878383E+01 -0.54074030039E+01  0.11052597579E+03  0.11106437321E+03  0.00000000000E+00 0. -1.
         -3    1    6    6    0  503 -0.96637556453E+02  0.19869093635E+03  0.79819179091E+03  0.82820712420E+03  0.00000000000E+00 0.  1.
<mgrwt>
<rscale>  0 0.16820453E+04</rscale>
<asrwt>0</asrwt>
<pdfrwt beam="1">  1        1 0.22094473E+00 0.16820453E+04</pdfrwt>
<pdfrwt beam="2">  1       -1 0.75771349E-01 0.16820453E+04</pdfrwt>
<totfact> 0.12086451E+01</totfact>
</mgrwt>
</event>
<event>
12    2  0.3555611E-008  0.2788716E+04  0.7818608E-02  0.8306780E-01
         -1   -1    0    0    0  501 -0.00000000000E+00  0.00000000000E+00  0.14934076832E+04  0.14934076832E+04  0.00000000000E+00 0.  1.
          1   -1    0    0  501    0  0.00000000000E+00 -0.00000000000E+00 -0.13018774109E+04  0.13018774109E+04  0.00000000000E+00 0. -1.
         23    2    1    2    0    0  0.54290625801E+03 -0.10459954579E+03  0.12080012955E+04  0.13315874708E+04  0.90386904417E+02 0.  0.
        254    2    1    2    0    0 -0.54290625801E+03  0.10459954579E+03 -0.10164710232E+04  0.14636976233E+04  0.89638670300E+03 0.  0.
         23    2    4    4    0    0  0.55936354404E+02 -0.27667812751E+03 -0.13073638013E+03  0.32491554431E+03  0.93800041891E+02 0.  0.
         23    2    4    4    0    0 -0.59884261242E+03  0.38127767331E+03 -0.88573464310E+03  0.11387820789E+04  0.91179091593E+02 0.  0.
          4    1    3    3  502    0  0.15551367138E+03 -0.24826453883E+02  0.25418160957E+03  0.29901362083E+03  0.00000000000E+00 0.  1.
         -4    1    3    3    0  502  0.38739258663E+03 -0.79773091910E+02  0.95381968597E+03  0.10325738500E+04  0.00000000000E+00 0. -1.
         11    1    5    5    0    0  0.64017571088E+02 -0.28097698737E+03 -0.12505168241E+03  0.31414047831E+03  0.00000000000E+00 0.  1.
        -11    1    5    5    0    0 -0.80812166833E+01  0.42988598583E+01 -0.56846977238E+01  0.10775066003E+02  0.00000000000E+00 0. -1.
          1    1    6    6  503    0 -0.20453235335E+03  0.81266994979E+02 -0.26015831702E+03  0.34076407961E+03  0.00000000000E+00 0. -1.
         -1    1    6    6    0  503 -0.39431025907E+03  0.30001067833E+03 -0.62557632607E+03  0.79801799933E+03  0.00000000000E+00 0.  1.
<mgrwt>
<rscale>  0 0.27887156E+04</rscale>
<asrwt>0</asrwt>
<pdfrwt beam="1">  1        1 0.20028883E+00 0.27887156E+04</pdfrwt>
<pdfrwt beam="2">  1       -1 0.22975503E+00 0.27887156E+04</pdfrwt>
<totfact> 0.74038635E-01</totfact>
</mgrwt>
</event>
<event>
12    2  0.3555611E-008  0.2119612E+04  0.7818608E-02  0.8552653E-01
          2   -1    0    0  501    0  0.00000000000E+00  0.00000000000E+00  0.83054208200E+03  0.83054208200E+03  0.00000000000E+00 0. -1.
         -2   -1    0    0    0  501 -0.00000000000E+00 -0.00000000000E+00 -0.13523562865E+04  0.13523562865E+04  0.00000000000E+00 0.  1.
         23    2    1    2    0    0  0.27240094946E+03 -0.57914040989E+00 -0.10598109342E+04  0.10980850538E+04  0.91591246612E+02 0.  0.
        254    2    1    2    0    0 -0.27240094946E+03  0.57914040989E+00  0.53799672970E+03  0.10848133147E+04  0.90176318063E+03 0.  0.
         23    2    4    4    0    0 -0.16718450726E+03 -0.43450820691E+03  0.19534436364E+03  0.51298434235E+03  0.90804591000E+02 0.  0.
         23    2    4    4    0    0 -0.10521644220E+03  0.43508734732E+03  0.34265236605E+03  0.57182897236E+03  0.95949101898E+02 0.  0.
          1    1    3    3  502    0  0.22458908856E+03  0.35191324225E+02 -0.86048316135E+03  0.89000559491E+03  0.00000000000E+00 0. -1.
         -1    1    3    3    0  502  0.47811860900E+02 -0.35770464634E+02 -0.19932777286E+03  0.20807945890E+03  0.00000000000E+00 0.  1.
         11    1    5    5    0    0 -0.88998397275E+02 -0.24918905840E+03  0.15866595988E+03  0.30853004451E+03  0.00000000000E+00 0. -1.
        -11    1    5    5    0    0 -0.78186109990E+02 -0.18531914852E+03  0.36678403762E+02  0.20445429784E+03  0.00000000000E+00 0.  1.
          2    1    6    6  503    0 -0.75804855511E+02  0.35064522783E+03  0.22281884789E+03  0.42231113044E+03  0.00000000000E+00 0. -1.
         -2    1    6    6    0  503 -0.29411586687E+02  0.84442119495E+02  0.11983351816E+03  0.14951784192E+03  0.00000000000E+00 0.  1.
<mgrwt>
<rscale>  0 0.21196120E+04</rscale>
<asrwt>0</asrwt>
<pdfrwt beam="1">  1        2 0.12777571E+00 0.21196120E+04</pdfrwt>
<pdfrwt beam="2">  1       -2 0.20805481E+00 0.21196120E+04</pdfrwt>
<totfact> 0.35505456E+00</totfact>
</mgrwt>
</event>
<event>
12    2  0.3555611E-008  0.1457011E+04  0.7818608E-02  0.8913555E-01
          2   -1    0    0  501    0  0.00000000000E+00  0.00000000000E+00  0.20735438703E+04  0.20735438703E+04  0.00000000000E+00 0. -1.
         -2   -1    0    0    0  501 -0.00000000000E+00 -0.00000000000E+00 -0.25594831307E+03  0.25594831307E+03  0.00000000000E+00 0.  1.
         23    2    1    2    0    0 -0.40018336428E+03  0.29322922133E+02  0.28945994560E+03  0.50122671333E+03  0.80215953787E+02 0.  0.
        254    2    1    2    0    0  0.40018336428E+03 -0.29322922133E+02  0.15281356116E+04  0.18282654700E+04  0.91997262057E+03 0.  0.
         23    2    4    4    0    0  0.59854551652E+03  0.42299485975E+02  0.53778811618E+03  0.81143285827E+03  0.95714386178E+02 0.  0.
         23    2    4    4    0    0 -0.19836215224E+03 -0.71622408108E+02  0.99034749544E+03  0.10168326118E+04  0.93183076987E+02 0.  0.
          2    1    3    3  502    0 -0.46778114324E+02 -0.20688623056E+02  0.49190554752E+02  0.70964228880E+02  0.00000000000E+00 0. -1.
         -2    1    3    3    0  502 -0.35340524995E+03  0.50011545189E+02  0.24026939085E+03  0.43026248445E+03  0.00000000000E+00 0.  1.
         11    1    5    5    0    0  0.58315461945E+03  0.57418090778E+02  0.51626179524E+03  0.78095607338E+03  0.00000000000E+00 0. -1.
        -11    1    5    5    0    0  0.15390897067E+02 -0.15118604803E+02  0.21526320941E+02  0.30476784886E+02  0.00000000000E+00 0.  1.
          4    1    6    6  503    0 -0.16434685071E+03 -0.60259621963E+02  0.60484203040E+03  0.62966260101E+03  0.00000000000E+00 0. -1.
         -4    1    6    6    0  503 -0.34015301524E+02 -0.11362786145E+02  0.38550546504E+03  0.38717001075E+03  0.00000000000E+00 0.  1.
<mgrwt>
<rscale>  0 0.14570107E+04</rscale>
<asrwt>0</asrwt>
<pdfrwt beam="1">  1        2 0.31900674E+00 0.14570107E+04</pdfrwt>
<pdfrwt beam="2">  1       -2 0.39376665E-01 0.14570107E+04</pdfrwt>
<totfact> 0.35964648E+01</totfact>
</mgrwt>
</event>
<event>
12    2  0.3555611E-008  0.1753638E+04  0.7818608E-02  0.8731350E-01
          2   -1    0    0  501    0  0.00000000000E+00  0.00000000000E+00  0.18162855372E+04  0.18162855372E+04  0.00000000000E+00 0. -1.
         -2   -1    0    0    0  501 -0.00000000000E+00 -0.00000000000E+00 -0.42328798289E+03  0.42328798289E+03  0.00000000000E+00 0.  1.
         23    2    1    2    0    0 -0.36779559375E+03 -0.27813917979E+03 -0.51396107105E+02  0.47318213239E+03  0.92869631609E+02 0.  0.
        254    2    1    2    0    0  0.36779559375E+03  0.27813917979E+03  0.14443936614E+04  0.17663913877E+04  0.90621767984E+03 0.  0.
         23    2    4    4    0    0 -0.50290940033E+02  0.28651746638E+03  0.12671677407E+04  0.13033137400E+04  0.91055941758E+02 0.  0.
         23    2    4    4    0    0  0.41808653378E+03 -0.83782865876E+01  0.17722592069E+03  0.46307764770E+03  0.90362245541E+02 0.  0.
          1    1    3    3  502    0 -0.34203048577E+03 -0.25396289049E+03 -0.20916618206E+02  0.42652023148E+03  0.00000000000E+00 0. -1.
         -1    1    3    3    0  502 -0.25765107975E+02 -0.24176289303E+02 -0.30479488899E+02  0.46661900915E+02  0.00000000000E+00 0.  1.
         11    1    5    5    0    0 -0.34952728780E+02  0.28309697716E+03  0.11384987473E+04  0.11736886253E+04  0.00000000000E+00 0. -1.
        -11    1    5    5    0    0 -0.15338211253E+02  0.34204892183E+01  0.12866899344E+03  0.12962511464E+03  0.00000000000E+00 0.  1.
          1    1    6    6  503    0  0.27097068804E+03  0.18555051106E+02  0.74504992817E+02  0.28163877157E+03  0.00000000000E+00 0. -1.
         -1    1    6    6    0  503  0.14711584574E+03 -0.26933337694E+02  0.10272092787E+03  0.18143887613E+03  0.00000000000E+00 0.  1.
<mgrwt>
<rscale>  0 0.17536383E+04</rscale>
<asrwt>0</asrwt>
<pdfrwt beam="1">  1        2 0.27942854E+00 0.17536383E+04</pdfrwt>
<pdfrwt beam="2">  1       -2 0.65121229E-01 0.17536383E+04</pdfrwt>
<totfact> 0.17410460E+01</totfact>
</mgrwt>
</event>
<event>
12    2  0.3555611E-008  0.2516761E+04  0.7818608E-02  0.8397038E-01
         -1   -1    0    0    0  501 -0.00000000000E+00  0.00000000000E+00  0.82245406078E+03  0.82245406078E+03  0.00000000000E+00 0.  1.
          1   -1    0    0  501    0  0.00000000000E+00 -0.00000000000E+00 -0.19253620488E+04  0.19253620488E+04  0.00000000000E+00 0. -1.
         23    2    1    2    0    0  0.46278610193E+02  0.41932617362E+03 -0.15853683106E+04  0.16430219190E+04  0.90289515361E+02 0.  0.
        254    2    1    2    0    0 -0.46278610193E+02 -0.41932617362E+03  0.48246032257E+03  0.11047941905E+04  0.89990337866E+03 0.  0.
         23    2    4    4    0    0 -0.40424426497E+03 -0.41556847911E+02  0.45644210694E+02  0.41947241559E+03  0.93452212924E+02 0.  0.
         23    2    4    4    0    0  0.35796565478E+03 -0.37776932571E+03  0.43681611188E+03  0.68532177494E+03  0.89490480820E+02 0.  0.
          2    1    3    3  502    0  0.17880085621E+02  0.31880109676E+03 -0.10467270998E+04  0.10943452190E+04  0.00000000000E+00 0. -1.
         -2    1    3    3    0  502  0.28398524573E+02  0.10052507685E+03 -0.53864121074E+03  0.54867670006E+03  0.00000000000E+00 0.  1.
         11    1    5    5    0    0 -0.42841850917E+02  0.24541050188E+02  0.11037446486E+01  0.49385277022E+02  0.00000000000E+00 0. -1.
        -11    1    5    5    0    0 -0.36140241406E+03 -0.66097898099E+02  0.44540466045E+02  0.37008713857E+03  0.00000000000E+00 0.  1.
          4    1    6    6  503    0  0.22795266664E+02  0.29395013072E-01  0.23146774028E+02  0.32486892653E+02  0.00000000000E+00 0. -1.
         -4    1    6    6    0  503  0.33517038812E+03 -0.37779872072E+03  0.41366933785E+03  0.65283488228E+03  0.00000000000E+00 0.  1.
<mgrwt>
<rscale>  0 0.25167613E+04</rscale>
<asrwt>0</asrwt>
<pdfrwt beam="1">  1        1 0.29620955E+00 0.25167613E+04</pdfrwt>
<pdfrwt beam="2">  1       -1 0.12653139E+00 0.25167613E+04</pdfrwt>
<totfact> 0.16124542E+00</totfact>
</mgrwt>
</event>
<event>
12    2  0.3555611E-008  0.2462799E+04  0.7818608E-02  0.8416360E-01
          1   -1    0    0  501    0  0.00000000000E+00  0.00000000000E+00  0.24648300369E+04  0.24648300369E+04  0.00000000000E+00 0. -1.
         -1   -1    0    0    0  501 -0.00000000000E+00 -0.00000000000E+00 -0.61519226087E+03  0.61519226087E+03  0.00000000000E+00 0.  1.
         23    2    1    2    0    0 -0.66888884924E+03 -0.79109585747E+03  0.11079732422E+04  0.15195599885E+04  0.90625078398E+02 0.  0.
        254    2    1    2    0    0  0.66888884924E+03  0.79109585747E+03  0.74166453381E+03  0.15604623093E+04  0.90096136962E+03 0.  0.
         23    2    4    4    0    0 -0.20330878131E+03  0.12660193020E+03  0.41389321985E+02  0.25626561163E+03  0.81218707462E+02 0.  0.
         23    2    4    4    0    0  0.87219763055E+03  0.66449392727E+03  0.70027521183E+03  0.13041966976E+04  0.90899767163E+02 0.  0.
          1    1    3    3  502    0 -0.49585422029E+03 -0.53272914697E+03  0.80905979330E+03  0.10882322826E+04  0.00000000000E+00 0. -1.
         -1    1    3    3    0  502 -0.17303462896E+03 -0.25836671050E+03  0.29891344887E+03  0.43132770585E+03  0.00000000000E+00 0.  1.
         11    1    5    5    0    0 -0.37257879415E+02  0.88551883115E+01 -0.20587157691E+02  0.43478672937E+02  0.00000000000E+00 0. -1.
        -11    1    5    5    0    0 -0.16605090190E+03  0.11774674189E+03  0.61976479676E+02  0.21278693870E+03  0.00000000000E+00 0.  1.
          1    1    6    6  503    0  0.29000247472E+03  0.20873314300E+03  0.27813873096E+03  0.45280471949E+03  0.00000000000E+00 0. -1.
         -1    1    6    6    0  503  0.58219515583E+03  0.45576078427E+03  0.42213648086E+03  0.85139197813E+03  0.00000000000E+00 0.  1.
<mgrwt>
<rscale>  0 0.24627987E+04</rscale>
<asrwt>0</asrwt>
<pdfrwt beam="1">  1        1 0.37920461E+00 0.24627987E+04</pdfrwt>
<pdfrwt beam="2">  1       -1 0.94644965E-01 0.24627987E+04</pdfrwt>
<totfact> 0.13787146E+00</totfact>
</mgrwt>
</event>
<event>
12    2  0.3555611E-008  0.1921686E+04  0.7818608E-02  0.8644136E-01
          1   -1    0    0  501    0  0.00000000000E+00  0.00000000000E+00  0.11092561767E+04  0.11092561767E+04  0.00000000000E+00 0. -1.
         -1   -1    0    0    0  501 -0.00000000000E+00 -0.00000000000E+00 -0.83228705045E+03  0.83228705045E+03  0.00000000000E+00 0.  1.
         23    2    1    2    0    0  0.35448215452E+03 -0.39549614463E+03 -0.42168998884E+03  0.68546570535E+03  0.99829796318E+02 0.  0.
        254    2    1    2    0    0 -0.35448215452E+03  0.39549614463E+03  0.69865911514E+03  0.12560775218E+04  0.89862749982E+03 0.  0.
         23    2    4    4    0    0 -0.16987748174E+03 -0.15802607954E+03 -0.93626603507E+02  0.26787168811E+03  0.95701096056E+02 0.  0.
         23    2    4    4    0    0 -0.18460467278E+03  0.55352222417E+03  0.79228571864E+03  0.98820583374E+03  0.91478806329E+02 0.  0.
          3    1    3    3  502    0  0.36668233851E+02 -0.34990809203E+02 -0.83958644837E+02  0.98071250351E+02  0.00000000000E+00 0. -1.
         -3    1    3    3    0  502  0.31781392067E+03 -0.36050533542E+03 -0.33773134400E+03  0.58739445500E+03  0.00000000000E+00 0.  1.
         11    1    5    5    0    0 -0.13029754138E+03 -0.16060929335E+03 -0.96260230909E+02  0.22812020177E+03  0.00000000000E+00 0. -1.
        -11    1    5    5    0    0 -0.39579940361E+02  0.25832138121E+01  0.26336274014E+01  0.39751486335E+02  0.00000000000E+00 0.  1.
          4    1    6    6  503    0 -0.86514985483E+02  0.36952432499E+03  0.55461271233E+03  0.67203298293E+03  0.00000000000E+00 0. -1.
         -4    1    6    6    0  503 -0.98089687298E+02  0.18399789917E+03  0.23767300632E+03  0.31617285081E+03  0.00000000000E+00 0.  1.
<mgrwt>
<rscale>  0 0.19216863E+04</rscale>
<asrwt>0</asrwt>
<pdfrwt beam="1">  1        1 0.17065480E+00 0.19216863E+04</pdfrwt>
<pdfrwt beam="2">  1       -1 0.12804416E+00 0.19216863E+04</pdfrwt>
<totfact> 0.61403172E+00</totfact>
</mgrwt>
</event>
<event>
12    2  0.3555611E-008  0.3229269E+04  0.7818608E-02  0.8181130E-01
          3   -1    0    0  501    0  0.00000000000E+00  0.00000000000E+00  0.18785774182E+04  0.18785774182E+04  0.00000000000E+00 0. -1.
         -3   -1    0    0    0  501 -0.00000000000E+00 -0.00000000000E+00 -0.13877760859E+04  0.13877760859E+04  0.00000000000E+00 0.  1.
         23    2    1    2    0    0 -0.59876258613E+03 -0.72893630306E+03  0.13822393758E+04  0.16758750539E+04  0.90037413479E+02 0.  0.
        254    2    1    2    0    0  0.59876258613E+03  0.72893630306E+03 -0.89143804349E+03  0.15904784503E+04  0.91929056722E+03 0.  0.
         23    2    4    4    0    0  0.50459153456E+03  0.29324781842E+03 -0.13568493782E+01  0.59082069934E+03  0.91980204255E+02 0.  0.
         23    2    4    4    0    0  0.94171051573E+02  0.43568848464E+03 -0.89008119411E+03  0.99965775094E+03  0.91533842444E+02 0.  0.
          3    1    3    3  502    0 -0.52666144777E+03 -0.67806100932E+03  0.12323846534E+04  0.15019690232E+04  0.00000000000E+00 0. -1.
         -3    1    3    3    0  502 -0.72101138364E+02 -0.50875293737E+02  0.14985472239E+03  0.17390603063E+03  0.00000000000E+00 0.  1.
         11    1    5    5    0    0  0.25346054548E+03  0.97302538844E+02 -0.15879071777E+02  0.27195988142E+03  0.00000000000E+00 0.  1.
        -11    1    5    5    0    0  0.25113098907E+03  0.19594527957E+03  0.14522222399E+02  0.31886081792E+03  0.00000000000E+00 0. -1.
          1    1    6    6  503    0  0.44777929787E+02  0.14889585074E+03 -0.40705414934E+03  0.43573858890E+03  0.00000000000E+00 0. -1.
         -1    1    6    6    0  503  0.49393121785E+02  0.28679263390E+03 -0.48302704477E+03  0.56391916204E+03  0.00000000000E+00 0.  1.
<mgrwt>
<rscale>  0 0.32292692E+04</rscale>
<asrwt>0</asrwt>
<pdfrwt beam="1">  1        3 0.28901191E+00 0.32292692E+04</pdfrwt>
<pdfrwt beam="2">  1       -3 0.21350401E+00 0.32292692E+04</pdfrwt>
<totfact> 0.11672532E-02</totfact>
</mgrwt>
</event>
<event>
12    2  0.3555611E-008  0.1168765E+04  0.7818608E-02  0.9140644E-01
         -2   -1    0    0    0  501 -0.00000000000E+00  0.00000000000E+00  0.94101002517E+02  0.94101002517E+02  0.00000000000E+00 0.  1.
          2   -1    0    0  501    0  0.00000000000E+00 -0.00000000000E+00 -0.36291119378E+04  0.36291119378E+04  0.00000000000E+00 0. -1.
         23    2    1    2    0    0  0.30704546693E+02 -0.17110015874E+03 -0.12223635955E+04  0.12380665084E+04  0.91749037980E+02 0.  0.
        254    2    1    2    0    0 -0.30704546693E+02  0.17110015874E+03 -0.23126473397E+04  0.24851464319E+04  0.89297090469E+03 0.  0.
         23    2    4    4    0    0 -0.34369576652E+03 -0.20427477319E+03 -0.99856481396E+03  0.10799200057E+04  0.96127873736E+02 0.  0.
         23    2    4    4    0    0  0.31299121983E+03  0.37537493193E+03 -0.13140825258E+04  0.14052264263E+04  0.94755375814E+02 0.  0.
          1    1    3    3  502    0 -0.37655374059E+01 -0.55782331640E+02 -0.69024996002E+03  0.69251054512E+03  0.00000000000E+00 0. -1.
         -1    1    3    3    0  502  0.34470084099E+02 -0.11531782710E+03 -0.53211363549E+03  0.54555596323E+03  0.00000000000E+00 0.  1.
         11    1    5    5    0    0 -0.77618645125E+02 -0.13594640731E+02 -0.13391164910E+03  0.15537631123E+03  0.00000000000E+00 0. -1.
        -11    1    5    5    0    0 -0.26607712140E+03 -0.19068013246E+03 -0.86465316486E+03  0.92454369445E+03  0.00000000000E+00 0.  1.
          3    1    6    6  503    0  0.68671363105E+02  0.12468875053E+03 -0.29174167182E+03  0.32461707241E+03  0.00000000000E+00 0. -1.
         -3    1    6    6    0  503  0.24431985673E+03  0.25068618140E+03 -0.10223408540E+04  0.10806093538E+04  0.00000000000E+00 0.  1.
<mgrwt>
<rscale>  0 0.11687653E+04</rscale>
<asrwt>0</asrwt>
<pdfrwt beam="1">  1        2 0.55832490E+00 0.11687653E+04</pdfrwt>
<pdfrwt beam="2">  1       -2 0.14477078E-01 0.11687653E+04</pdfrwt>
<totfact> 0.25015200E+01</totfact>
</mgrwt>
</event>
<event>
12    2  0.3555611E-008  0.2674595E+04  0.7818608E-02  0.8343295E-01
         -2   -1    0    0    0  501 -0.00000000000E+00  0.00000000000E+00  0.11650755409E+04  0.11650755409E+04  0.00000000000E+00 0.  1.
          2   -1    0    0  501    0  0.00000000000E+00 -0.00000000000E+00 -0.15349770989E+04  0.15349770989E+04  0.00000000000E+00 0. -1.
         23    2    1    2    0    0  0.10231901052E+03  0.10857650965E+04 -0.62163491627E+03  0.12586329121E+04  0.91497615545E+02 0.  0.
        254    2    1    2    0    0 -0.10231901052E+03 -0.10857650965E+04  0.25173335830E+03  0.14414197277E+04  0.90827645745E+03 0.  0.
         23    2    4    4    0    0 -0.29978992469E+03 -0.11504234401E+04  0.20593701988E+03  0.12100375184E+04  0.91829457024E+02 0.  0.
         23    2    4    4    0    0  0.19747091417E+03  0.64658343646E+02  0.45796338422E+02  0.23138220935E+03  0.90911819061E+02 0.  0.
          4    1    3    3  502    0  0.11619594571E+03  0.84879779101E+03 -0.49920074000E+03  0.99154453589E+03  0.00000000000E+00 0. -1.
         -4    1    3    3    0  502 -0.13876935186E+02  0.23696730548E+03 -0.12243417626E+03  0.26708837623E+03  0.00000000000E+00 0.  1.
         11    1    5    5    0    0 -0.53338539395E+01 -0.11981055248E+02 -0.72156714991E+01  0.14968687246E+02  0.00000000000E+00 0. -1.
        -11    1    5    5    0    0 -0.29445607075E+03 -0.11384423849E+04  0.21315269138E+03  0.11950688311E+04  0.00000000000E+00 0.  1.
          3    1    6    6  503    0  0.56359134959E+02 -0.21632282326E+02  0.25699586987E+01  0.60422780635E+02  0.00000000000E+00 0. -1.
         -3    1    6    6    0  503  0.14111177921E+03  0.86290625972E+02  0.43226379723E+02  0.17095942872E+03  0.00000000000E+00 0.  1.
<mgrwt>
<rscale>  0 0.26745948E+04</rscale>
<asrwt>0</asrwt>
<pdfrwt beam="1">  1        2 0.23615032E+00 0.26745948E+04</pdfrwt>
<pdfrwt beam="2">  1       -2 0.17924239E+00 0.26745948E+04</pdfrwt>
<totfact> 0.19574235E+00</totfact>
</mgrwt>
</event>
<event>
12    2  0.3555611E-008  0.2545779E+04  0.7818608E-02  0.8386856E-01
         -1   -1    0    0    0  501 -0.00000000000E+00  0.00000000000E+00  0.23068325555E+04  0.23068325555E+04  0.00000000000E+00 0.  1.
          1   -1    0    0  501    0  0.00000000000E+00 -0.00000000000E+00 -0.70236923279E+03  0.70236923279E+03  0.00000000000E+00 0. -1.
         23    2    1    2    0    0 -0.94490023284E+03  0.43108469747E+03  0.11665575716E+04  0.15645200017E+04  0.90530665487E+02 0.  0.
        254    2    1    2    0    0  0.94490023284E+03 -0.43108469747E+03  0.43790575110E+03  0.14446817866E+04  0.90369992324E+03 0.  0.
         23    2    4    4    0    0  0.41035622996E+03 -0.35113479824E+03 -0.21861572192E+03  0.58972559217E+03  0.91079954890E+02 0.  0.
         23    2    4    4    0    0  0.53454400288E+03 -0.79949899231E+02  0.65652147302E+03  0.85495619443E+03  0.88319717253E+02 0.  0.
          3    1    3    3  502    0 -0.62516661684E+03  0.31271613557E+03  0.83468617446E+03  0.10887266370E+04  0.00000000000E+00 0. -1.
         -3    1    3    3    0  502 -0.31973361600E+03  0.11836856189E+03  0.33187139717E+03  0.47579336471E+03  0.00000000000E+00 0.  1.
         11    1    5    5    0    0  0.88154569788E+02 -0.33729642898E+02 -0.24285720624E+02  0.97461342135E+02  0.00000000000E+00 0. -1.
        -11    1    5    5    0    0  0.32220166018E+03 -0.31740515534E+03 -0.19433000130E+03  0.49226425003E+03  0.00000000000E+00 0.  1.
          2    1    6    6  503    0  0.13837982015E+03  0.10895722373E+02  0.13364242546E+03  0.19268624568E+03  0.00000000000E+00 0. -1.
         -2    1    6    6    0  503  0.39616418273E+03 -0.90845621604E+02  0.52287904755E+03  0.66226994875E+03  0.00000000000E+00 0.  1.
<mgrwt>
<rscale>  0 0.25457794E+04</rscale>
<asrwt>0</asrwt>
<pdfrwt beam="1">  1        1 0.10805681E+00 0.25457794E+04</pdfrwt>
<pdfrwt beam="2">  1       -1 0.35489731E+00 0.25457794E+04</pdfrwt>
<totfact> 0.34583910E-01</totfact>
</mgrwt>
</event>
<event>
12    2  0.3555611E-008  0.1225481E+04  0.7818608E-02  0.9090841E-01
         -2   -1    0    0    0  501 -0.00000000000E+00  0.00000000000E+00  0.25494043362E+03  0.25494043362E+03  0.00000000000E+00 0.  1.
          2   -1    0    0  501    0  0.00000000000E+00 -0.00000000000E+00 -0.14726995534E+04  0.14726995534E+04  0.00000000000E+00 0. -1.
         23    2    1    2    0    0 -0.86112881290E+01  0.67055721933E+02 -0.68012319954E+03  0.68888892997E+03  0.86196097085E+02 0.  0.
        254    2    1    2    0    0  0.86112881290E+01 -0.67055721933E+02 -0.53763592021E+03  0.10387510570E+04  0.88621710185E+03 0.  0.
         23    2    4    4    0    0 -0.21661423952E+03  0.30029085464E+03 -0.53991794892E+02  0.38417104216E+03  0.87039930947E+02 0.  0.
         23    2    4    4    0    0  0.22522552765E+03 -0.36734657657E+03 -0.48364412532E+03  0.65458001485E+03  0.94304349144E+02 0.  0.
          1    1    3    3  502    0 -0.22617760495E+02  0.30599521646E+02 -0.58253124598E+03  0.58377268381E+03  0.00000000000E+00 0. -1.
         -1    1    3    3    0  502  0.14006472366E+02  0.36456200287E+02 -0.97591953556E+02  0.10511624616E+03  0.00000000000E+00 0.  1.
         11    1    5    5    0    0 -0.10861803065E+03  0.13521832425E+03  0.17572691582E+02  0.17432920377E+03  0.00000000000E+00 0.  1.
        -11    1    5    5    0    0 -0.10799620887E+03  0.16507253038E+03 -0.71564486474E+02  0.20984183840E+03  0.00000000000E+00 0. -1.
          3    1    6    6  503    0  0.64093213727E+02 -0.17787462290E+03 -0.16976670194E+03  0.25410244903E+03  0.00000000000E+00 0. -1.
         -3    1    6    6    0  503  0.16113231392E+03 -0.18947195367E+03 -0.31387742338E+03  0.40047756582E+03  0.00000000000E+00 0.  1.
<mgrwt>
<rscale>  0 0.12254806E+04</rscale>
<asrwt>0</asrwt>
<pdfrwt beam="1">  1        2 0.22656916E+00 0.12254806E+04</pdfrwt>
<pdfrwt beam="2">  1       -2 0.39221605E-01 0.12254806E+04</pdfrwt>
<totfact> 0.79598317E+01</totfact>
</mgrwt>
</event>
<event>
12    2  0.3555611E-008  0.1773926E+04  0.7818608E-02  0.8720289E-01
          1   -1    0    0  501    0  0.00000000000E+00  0.00000000000E+00  0.99929154337E+03  0.99929154337E+03  0.00000000000E+00 0. -1.
         -1   -1    0    0    0  501 -0.00000000000E+00 -0.00000000000E+00 -0.78726154447E+03  0.78726154447E+03  0.00000000000E+00 0.  1.
         23    2    1    2    0    0 -0.12245852525E+02 -0.32724183875E+03 -0.49018312159E+03  0.59654907686E+03  0.91400910711E+02 0.  0.
        254    2    1    2    0    0  0.12245852525E+02  0.32724183875E+03  0.70221312049E+03  0.11900040110E+04  0.90319936760E+03 0.  0.
         23    2    4    4    0    0 -0.26584358069E+03 -0.18592686861E+03  0.41126343605E+03  0.53173350411E+03  0.91440120799E+02 0.  0.
         23    2    4    4    0    0  0.27808943321E+03  0.51316870736E+03  0.29094968443E+03  0.65827050687E+03  0.89400706160E+02 0.  0.
          1    1    3    3  502    0  0.80904103886E+01 -0.63608884380E+02 -0.43542923813E+02  0.77508264891E+02  0.00000000000E+00 0. -1.
         -1    1    3    3    0  502 -0.20336262913E+02 -0.26363295437E+03 -0.44664019777E+03  0.51904081197E+03  0.00000000000E+00 0.  1.
         11    1    5    5    0    0 -0.24848279452E+03 -0.14350385891E+03  0.32139437831E+03  0.43084962934E+03  0.00000000000E+00 0. -1.
        -11    1    5    5    0    0 -0.17360786170E+02 -0.42423009696E+02  0.89869057740E+02  0.10088387476E+03  0.00000000000E+00 0.  1.
          3    1    6    6  503    0  0.98896487113E+02  0.14737568477E+03  0.13131602211E+03  0.22078044588E+03  0.00000000000E+00 0. -1.
         -3    1    6    6    0  503  0.17919294610E+03  0.36579302260E+03  0.15963366233E+03  0.43749006099E+03  0.00000000000E+00 0.  1.
<mgrwt>
<rscale>  0 0.17739265E+04</rscale>
<asrwt>0</asrwt>
<pdfrwt beam="1">  1        1 0.15373716E+00 0.17739265E+04</pdfrwt>
<pdfrwt beam="2">  1       -1 0.12111716E+00 0.17739265E+04</pdfrwt>
<totfact> 0.86717584E+00</totfact>
</mgrwt>
</event>
<event>
12    2  0.3555611E-008  0.1017117E+04  0.7818608E-02  0.9289968E-01
          2   -1    0    0  501    0  0.00000000000E+00  0.00000000000E+00  0.17034241393E+04  0.17034241393E+04  0.00000000000E+00 0. -1.
         -2   -1    0    0    0  501 -0.00000000000E+00 -0.00000000000E+00 -0.15183047031E+03  0.15183047031E+03  0.00000000000E+00 0.  1.
         23    2    1    2    0    0 -0.10151920282E+02  0.67120037599E+02  0.15321969596E+03  0.19085119079E+03  0.91322181666E+02 0.  0.
        254    2    1    2    0    0  0.10151920282E+02 -0.67120037599E+02  0.13983739731E+04  0.16644034188E+04  0.90010044506E+03 0.  0.
         23    2    4    4    0    0 -0.42118090811E+03 -0.14141281379E+03  0.76549949864E+03  0.88938663883E+03  0.87339393480E+02 0.  0.
         23    2    4    4    0    0  0.43133282840E+03  0.74292776192E+02  0.63287447443E+03  0.77501678002E+03  0.92485044649E+02 0.  0.
          3    1    3    3  502    0  0.10847411904E+02  0.76770447758E+02  0.14811899965E+03  0.16718434750E+03  0.00000000000E+00 0. -1.
         -3    1    3    3    0  502 -0.20999332186E+02 -0.96504101591E+01  0.51006963172E+01  0.23666843292E+02  0.00000000000E+00 0.  1.
         11    1    5    5    0    0 -0.10204542791E+03 -0.23607300108E+02  0.11669161338E+03  0.15680403888E+03  0.00000000000E+00 0. -1.
        -11    1    5    5    0    0 -0.31913548021E+03 -0.11780551368E+03  0.64880788526E+03  0.73258259996E+03  0.00000000000E+00 0.  1.
          1    1    6    6  503    0  0.13692948879E+02  0.21026363066E+02  0.50530635038E+02  0.56417637935E+02  0.00000000000E+00 0. -1.
         -1    1    6    6    0  503  0.41763987952E+03  0.53266413125E+02  0.58234383939E+03  0.71859914208E+03  0.00000000000E+00 0.  1.
<mgrwt>
<rscale>  0 0.10171169E+04</rscale>
<asrwt>0</asrwt>
<pdfrwt beam="1">  1        2 0.26206524E+00 0.10171169E+04</pdfrwt>
<pdfrwt beam="2">  1       -2 0.23358535E-01 0.10171169E+04</pdfrwt>
<totfact> 0.15801861E+02</totfact>
</mgrwt>
</event>
<event>
12    2  0.3555611E-008  0.1462299E+04  0.7818608E-02  0.8909918E-01
         -3   -1    0    0    0  501 -0.00000000000E+00  0.00000000000E+00  0.50742356374E+03  0.50742356374E+03  0.00000000000E+00 0.  1.
          3   -1    0    0  501    0  0.00000000000E+00 -0.00000000000E+00 -0.10535171033E+04  0.10535171033E+04  0.00000000000E+00 0. -1.
         23    2    1    2    0    0 -0.53094652315E+02 -0.18038301321E+03 -0.59922061801E+03  0.63447629066E+03  0.90209427432E+02 0.  0.
        254    2    1    2    0    0  0.53094652315E+02  0.18038301321E+03  0.53127078434E+02  0.92646437641E+03  0.90562502214E+03 0.  0.
         23    2    4    4    0    0 -0.13560443780E+03 -0.30086431106E+03  0.18002740437E+03  0.38636650724E+03  0.89226197800E+02 0.  0.
         23    2    4    4    0    0  0.18869909011E+03  0.48124732427E+03 -0.12690032594E+03  0.54009786916E+03  0.91627953267E+02 0.  0.
          2    1    3    3  502    0 -0.89508802429E+01 -0.15928946750E+03 -0.46630248858E+03  0.49283999794E+03  0.00000000000E+00 0. -1.
         -2    1    3    3    0  502 -0.44143772072E+02 -0.21093545713E+02 -0.13291812943E+03  0.14163629272E+03  0.00000000000E+00 0.  1.
         11    1    5    5    0    0 -0.99858112299E+02 -0.28590983311E+03  0.16433956612E+03  0.34456286546E+03  0.00000000000E+00 0.  1.
        -11    1    5    5    0    0 -0.35746325500E+02 -0.14954477952E+02  0.15687838257E+02  0.41803641788E+02  0.00000000000E+00 0. -1.
          2    1    6    6  503    0  0.11121131032E+03  0.38704279135E+03 -0.10501889565E+03  0.41617189516E+03  0.00000000000E+00 0.  1.
         -2    1    6    6    0  503  0.77487779790E+02  0.94204532922E+02 -0.21881430289E+02  0.12392597400E+03  0.00000000000E+00 0. -1.
<mgrwt>
<rscale>  0 0.14622987E+04</rscale>
<asrwt>0</asrwt>
<pdfrwt beam="1">  1        3 0.16207955E+00 0.14622987E+04</pdfrwt>
<pdfrwt beam="2">  1       -3 0.78065165E-01 0.14622987E+04</pdfrwt>
<totfact> 0.10289903E+00</totfact>
</mgrwt>
</event>
<event>
12    2  0.3555611E-008  0.1553293E+04  0.7818608E-02  0.8849767E-01
          1   -1    0    0  501    0  0.00000000000E+00  0.00000000000E+00  0.68084208380E+03  0.68084208380E+03  0.00000000000E+00 0. -1.
         -1   -1    0    0    0  501 -0.00000000000E+00 -0.00000000000E+00 -0.88593215930E+03  0.88593215930E+03  0.00000000000E+00 0.  1.
         23    2    1    2    0    0 -0.62297057709E+02 -0.29536054390E+03 -0.48841001271E+03  0.58130140696E+03  0.90819661507E+02 0.  0.
        254    2    1    2    0    0  0.62297057709E+02  0.29536054390E+03  0.28331993722E+03  0.98547283615E+03  0.89429734969E+03 0.  0.
         23    2    4    4    0    0 -0.38775276035E+03  0.27065277706E+03  0.13708708723E+03  0.50063357100E+03  0.90752267406E+02 0.  0.
         23    2    4    4    0    0  0.45004981806E+03  0.24707766835E+02  0.14623285000E+03  0.48483926514E+03  0.10261459024E+03 0.  0.
          2    1    3    3  502    0 -0.42931353838E+02 -0.22755066095E+03 -0.43515070394E+03  0.49292853395E+03  0.00000000000E+00 0.  1.
         -2    1    3    3    0  502 -0.19365703871E+02 -0.67809882952E+02 -0.53259308772E+02  0.88372873005E+02  0.00000000000E+00 0. -1.
         11    1    5    5    0    0 -0.24272253702E+03  0.21074297886E+03  0.65002827612E+02  0.32795152189E+03  0.00000000000E+00 0.  1.
        -11    1    5    5    0    0 -0.14503022334E+03  0.59909798210E+02  0.72084259615E+02  0.17268204911E+03  0.00000000000E+00 0. -1.
          1    1    6    6  503    0  0.12320984711E+03  0.41547053298E+01 -0.65793294986E+01  0.12345531814E+03  0.00000000000E+00 0. -1.
         -1    1    6    6    0  503  0.32683997095E+03  0.20553061505E+02  0.15281217949E+03  0.36138394700E+03  0.00000000000E+00 0.  1.
<mgrwt>
<rscale>  0 0.15532931E+04</rscale>
<asrwt>0</asrwt>
<pdfrwt beam="1">  1        1 0.10474494E+00 0.15532931E+04</pdfrwt>
<pdfrwt beam="2">  1       -1 0.13629725E+00 0.15532931E+04</pdfrwt>
<totfact> 0.12303075E+01</totfact>
</mgrwt>
</event>
<event>
12    2  0.3555611E-008  0.1623017E+04  0.7818608E-02  0.8806531E-01
         -1   -1    0    0    0  501 -0.00000000000E+00  0.00000000000E+00  0.61128679235E+03  0.61128679235E+03  0.00000000000E+00 0.  1.
          1   -1    0    0  501    0  0.00000000000E+00 -0.00000000000E+00 -0.10773111794E+04  0.10773111794E+04  0.00000000000E+00 0. -1.
         23    2    1    2    0    0 -0.31659091988E+03  0.20830208230E+03  0.26990177328E+03  0.47393836922E+03  0.90283124448E+02 0.  0.
        254    2    1    2    0    0  0.31659091988E+03 -0.20830208230E+03 -0.73592616030E+03  0.12146596025E+04  0.88892691965E+03 0.  0.
         23    2    4    4    0    0  0.17070100983E+03  0.22618725894E+03 -0.68240068964E+03  0.74432422780E+03  0.89712563276E+02 0.  0.
         23    2    4    4    0    0  0.14588991005E+03 -0.43448934123E+03 -0.53525470659E+02  0.47033537469E+03  0.91024915139E+02 0.  0.
          1    1    3    3  502    0 -0.15751965904E+03  0.13785525520E+03  0.10479340168E+03  0.23409009250E+03  0.00000000000E+00 0. -1.
         -1    1    3    3    0  502 -0.15907126084E+03  0.70446827092E+02  0.16510837160E+03  0.23984827672E+03  0.00000000000E+00 0.  1.
         11    1    5    5    0    0 -0.10498508891E+02  0.13074675872E+02 -0.52260936312E+02  0.54885073583E+02  0.00000000000E+00 0. -1.
        -11    1    5    5    0    0  0.18119951872E+03  0.21311258307E+03 -0.63013975333E+03  0.68943915422E+03  0.00000000000E+00 0.  1.
          1    1    6    6  503    0  0.11924197454E+02 -0.84595884591E+02 -0.42717509970E+02  0.95516678296E+02  0.00000000000E+00 0. -1.
         -1    1    6    6    0  503  0.13396571260E+03 -0.34989345664E+03 -0.10807960689E+02  0.37481869640E+03  0.00000000000E+00 0.  1.
<mgrwt>
<rscale>  0 0.16230171E+04</rscale>
<asrwt>0</asrwt>
<pdfrwt beam="1">  1        1 0.16574018E+00 0.16230171E+04</pdfrwt>
<pdfrwt beam="2">  1       -1 0.94044121E-01 0.16230171E+04</pdfrwt>
<totfact> 0.13839653E+01</totfact>
</mgrwt>
</event>
<event>
12    2  0.3555611E-008  0.1180315E+04  0.7818608E-02  0.9130263E-01
          2   -1    0    0  501    0  0.00000000000E+00  0.00000000000E+00  0.37451472945E+03  0.37451472945E+03  0.00000000000E+00 0. -1.
         -2   -1    0    0    0  501 -0.00000000000E+00 -0.00000000000E+00 -0.92996641945E+03  0.92996641945E+03  0.00000000000E+00 0.  1.
         23    2    1    2    0    0  0.10073857627E+03  0.23585501021E+03 -0.27316689833E+03  0.38578836187E+03  0.91851288602E+02 0.  0.
        254    2    1    2    0    0 -0.10073857627E+03 -0.23585501021E+03 -0.28228479167E+03  0.91869278703E+03  0.83578459351E+03 0.  0.
         23    2    4    4    0    0  0.13063093401E+03 -0.47547846057E+03 -0.55292265478E+02  0.50587945910E+03  0.98552448627E+02 0.  0.
         23    2    4    4    0    0 -0.23136951028E+03  0.23962345036E+03 -0.22699252619E+03  0.41281332794E+03  0.89095390038E+02 0.  0.
          1    1    3    3  502    0  0.83958448672E+01 -0.34779110490E+00 -0.41341673287E+02  0.42187025492E+02  0.00000000000E+00 0. -1.
         -1    1    3    3    0  502  0.92342731408E+02  0.23620280131E+03 -0.23182522505E+03  0.34360133638E+03  0.00000000000E+00 0.  1.
         11    1    5    5    0    0 -0.11632251416E+02 -0.58662396972E+02 -0.23676750655E+02  0.64320872297E+02  0.00000000000E+00 0. -1.
        -11    1    5    5    0    0  0.14226318542E+03 -0.41681606360E+03 -0.31615514823E+02  0.44155858680E+03  0.00000000000E+00 0.  1.
          1    1    6    6  503    0 -0.91095801161E+00  0.38565033983E+02 -0.19411708486E+02  0.43184558779E+02  0.00000000000E+00 0. -1.
         -1    1    6    6    0  503 -0.23045855227E+03  0.20105841638E+03 -0.20758081770E+03  0.36962876916E+03  0.00000000000E+00 0.  1.
<mgrwt>
<rscale>  0 0.11803154E+04</rscale>
<asrwt>0</asrwt>
<pdfrwt beam="1">  1        2 0.57617651E-01 0.11803154E+04</pdfrwt>
<pdfrwt beam="2">  1       -2 0.14307176E+00 0.11803154E+04</pdfrwt>
<totfact> 0.28689532E+01</totfact>
</mgrwt>
</event>
<event>
12    2  0.3555611E-008  0.1512824E+04  0.7818608E-02  0.8875970E-01
          2   -1    0    0  501    0  0.00000000000E+00  0.00000000000E+00  0.15851412892E+04  0.15851412892E+04  0.00000000000E+00 0.  1.
         -2   -1    0    0    0  501 -0.00000000000E+00 -0.00000000000E+00 -0.36095135183E+03  0.36095135183E+03  0.00000000000E+00 0. -1.
         23    2    1    2    0    0 -0.17669613788E+03  0.88807822006E+01  0.96678063077E+03  0.98688693881E+03  0.89334475665E+02 0.  0.
        254    2    1    2    0    0  0.17669613788E+03 -0.88807822006E+01  0.25740930665E+03  0.95920570226E+03  0.90692647699E+03 0.  0.
         23    2    4    4    0    0  0.68798173172E+02 -0.34031656411E+03  0.42939959025E+03  0.55960111559E+03  0.90668892232E+02 0.  0.
         23    2    4    4    0    0  0.10789796471E+03  0.33143578191E+03 -0.17199028360E+03  0.39960458667E+03  0.92798274323E+02 0.  0.
          2    1    3    3  502    0 -0.29533030943E+01 -0.73658874850E+01  0.49458578016E+01  0.93509254623E+01  0.00000000000E+00 0. -1.
         -2    1    3    3    0  502 -0.17374283479E+03  0.16246669686E+02  0.96183477297E+03  0.97753601335E+03  0.00000000000E+00 0.  1.
         11    1    5    5    0    0  0.47091896921E+02 -0.21081134788E+03  0.33210309549E+03  0.39617109585E+03  0.00000000000E+00 0. -1.
        -11    1    5    5    0    0  0.21706276251E+02 -0.12950521623E+03  0.97296494762E+02  0.16343001974E+03  0.00000000000E+00 0.  1.
          3    1    6    6  503    0  0.35558341899E+02  0.49524249962E+02 -0.66027746774E+02  0.89870519955E+02  0.00000000000E+00 0. -1.
         -3    1    6    6    0  503  0.72339622809E+02  0.28191153195E+03 -0.10596253682E+03  0.30973406672E+03  0.00000000000E+00 0.  1.
<mgrwt>
<rscale>  0 0.15128237E+04</rscale>
<asrwt>0</asrwt>
<pdfrwt beam="1">  1        2 0.24386789E+00 0.15128237E+04</pdfrwt>
<pdfrwt beam="2">  1       -2 0.55530978E-01 0.15128237E+04</pdfrwt>
<totfact> 0.33432944E+01</totfact>
</mgrwt>
</event>
<event>
12    2  0.3555611E-008  0.1671633E+04  0.7818608E-02  0.8777710E-01
         -2   -1    0    0    0  501 -0.00000000000E+00  0.00000000000E+00  0.18391732726E+03  0.18391732726E+03  0.00000000000E+00 0.  1.
          2   -1    0    0  501    0  0.00000000000E+00 -0.00000000000E+00 -0.37983883342E+04  0.37983883342E+04  0.00000000000E+00 0. -1.
         23    2    1    2    0    0  0.10756086923E+03  0.58168906386E+03 -0.13165368635E+04  0.14462154225E+04  0.91313897619E+02 0.  0.
        254    2    1    2    0    0 -0.10756086923E+03 -0.58168906386E+03 -0.22979341434E+04  0.25360902389E+04  0.89516527224E+03 0.  0.
         23    2    4    4    0    0  0.13129695515E+03 -0.25862679215E+03 -0.13285193523E+03  0.33182261244E+03  0.91268293418E+02 0.  0.
         23    2    4    4    0    0 -0.23885782437E+03 -0.32306227171E+03 -0.21650822082E+04  0.22042676265E+04  0.98957107197E+02 0.  0.
          1    1    3    3  502    0  0.87711510488E+02  0.51377779424E+03 -0.10777293492E+04  0.11971472261E+04  0.00000000000E+00 0. -1.
         -1    1    3    3    0  502  0.19849358741E+02  0.67911269623E+02 -0.23880751428E+03  0.24906819641E+03  0.00000000000E+00 0.  1.
         11    1    5    5    0    0  0.13313831677E+02 -0.12523345219E+03 -0.52258143084E+02  0.13635097792E+03  0.00000000000E+00 0. -1.
        -11    1    5    5    0    0  0.11798312347E+03 -0.13339333996E+03 -0.80593792145E+02  0.19547163452E+03  0.00000000000E+00 0.  1.
          1    1    6    6  503    0 -0.74746154378E+02 -0.10823517303E+03 -0.97711831541E+03  0.98593206794E+03  0.00000000000E+00 0. -1.
         -1    1    6    6    0  503 -0.16411167000E+03 -0.21482709868E+03 -0.11879638928E+04  0.12183355585E+04  0.00000000000E+00 0.  1.
<mgrwt>
<rscale>  0 0.16716332E+04</rscale>
<asrwt>0</asrwt>
<pdfrwt beam="1">  1        2 0.58436743E+00 0.16716332E+04</pdfrwt>
<pdfrwt beam="2">  1       -2 0.28294974E-01 0.16716332E+04</pdfrwt>
<totfact> 0.54496603E+00</totfact>
</mgrwt>
</event>
<event>
12    2  0.3555611E-008  0.1500927E+04  0.7818608E-02  0.8883837E-01
         -2   -1    0    0    0  501 -0.00000000000E+00  0.00000000000E+00  0.55109763662E+03  0.55109763662E+03  0.00000000000E+00 0.  1.
          2   -1    0    0  501    0  0.00000000000E+00 -0.00000000000E+00 -0.10219518642E+04  0.10219518642E+04  0.00000000000E+00 0. -1.
         23    2    1    2    0    0 -0.30771961351E+03 -0.33278009567E+03 -0.33577290156E+03  0.57082897109E+03  0.87568945417E+02 0.  0.
        254    2    1    2    0    0  0.30771961351E+03  0.33278009567E+03 -0.13508132601E+03  0.10022205297E+04  0.88360911772E+03 0.  0.
         23    2    4    4    0    0 -0.18607763014E+03  0.10776872055E+03 -0.34312558512E+03  0.41410659732E+03  0.86660978636E+02 0.  0.
         23    2    4    4    0    0  0.49379724366E+03  0.22501137512E+03  0.20804425911E+03  0.58811393238E+03  0.90165109326E+02 0.  0.
          4    1    3    3  502    0 -0.90920434034E+02 -0.11918139665E+03 -0.16052458557E+03  0.21963349746E+03  0.00000000000E+00 0. -1.
         -4    1    3    3    0  502 -0.21679917948E+03 -0.21359869901E+03 -0.17524831599E+03  0.35119547363E+03  0.00000000000E+00 0.  1.
         11    1    5    5    0    0 -0.18325776051E+03  0.10267042027E+03 -0.34801803721E+03  0.40649867922E+03  0.00000000000E+00 0. -1.
        -11    1    5    5    0    0 -0.28198696362E+01  0.50983002758E+01  0.48924520899E+01  0.76079181068E+01  0.00000000000E+00 0.  1.
          2    1    6    6  503    0  0.18506037975E+03  0.10097130588E+03  0.37124621964E+02  0.21405790413E+03  0.00000000000E+00 0. -1.
         -2    1    6    6    0  503  0.30873686391E+03  0.12404006924E+03  0.17091963715E+03  0.37405602826E+03  0.00000000000E+00 0.  1.
<mgrwt>
<rscale>  0 0.15009267E+04</rscale>
<asrwt>0</asrwt>
<pdfrwt beam="1">  1        2 0.15722336E+00 0.15009267E+04</pdfrwt>
<pdfrwt beam="2">  1       -2 0.84784253E-01 0.15009267E+04</pdfrwt>
<totfact> 0.28559358E+01</totfact>
</mgrwt>
</event>
<event>
12    2  0.3555611E-008  0.1839483E+04  0.7818608E-02  0.8685580E-01
         -2   -1    0    0    0  501 -0.00000000000E+00  0.00000000000E+00  0.57513008130E+03  0.57513008130E+03  0.00000000000E+00 0.  1.
          2   -1    0    0  501    0  0.00000000000E+00 -0.00000000000E+00 -0.14708396668E+04  0.14708396668E+04  0.00000000000E+00 0. -1.
         23    2    1    2    0    0 -0.27078142032E+03  0.40532241506E+03 -0.89862228640E+03  0.10265990197E+04  0.93673347122E+02 0.  0.
        254    2    1    2    0    0  0.27078142032E+03 -0.40532241506E+03  0.29127008584E+01  0.10193707284E+04  0.89526496657E+03 0.  0.
         23    2    4    4    0    0  0.52414858042E+03 -0.43609095883E+03 -0.15606109067E+03  0.70510217063E+03  0.88921022682E+02 0.  0.
         23    2    4    4    0    0 -0.25336716010E+03  0.30768543772E+02  0.15897379153E+03  0.31426855778E+03  0.91380735986E+02 0.  0.
          3    1    3    3  502    0 -0.25176602603E+03  0.31705661597E+03 -0.70553193559E+03  0.81344104994E+03  0.00000000000E+00 0. -1.
         -3    1    3    3    0  502 -0.19015394285E+02  0.88265799090E+02 -0.19309035081E+03  0.21315796979E+03  0.00000000000E+00 0.  1.
         11    1    5    5    0    0  0.14842099187E+03 -0.75954646361E+02 -0.27143952790E+02  0.16892215161E+03  0.00000000000E+00 0. -1.
        -11    1    5    5    0    0  0.37572758855E+03 -0.36013631247E+03 -0.12891713788E+03  0.53618001902E+03  0.00000000000E+00 0.  1.
          1    1    6    6  503    0 -0.38952044902E+02  0.21908200847E+02 -0.39016715302E+01  0.44860384607E+02  0.00000000000E+00 0. -1.
         -1    1    6    6    0  503 -0.21441511520E+03  0.88603429253E+01  0.16287546306E+03  0.26940817317E+03  0.00000000000E+00 0.  1.
<mgrwt>
<rscale>  0 0.18394827E+04</rscale>
<asrwt>0</asrwt>
<pdfrwt beam="1">  1        2 0.22628302E+00 0.18394827E+04</pdfrwt>
<pdfrwt beam="2">  1       -2 0.88481553E-01 0.18394827E+04</pdfrwt>
<totfact> 0.13639251E+01</totfact>
</mgrwt>
</event>
<event>
12    2  0.3555611E-008  0.3165230E+04  0.7818608E-02  0.8198061E-01
          2   -1    0    0  501    0  0.00000000000E+00  0.00000000000E+00  0.10596562661E+04  0.10596562661E+04  0.00000000000E+00 0.  1.
         -2   -1    0    0    0  501 -0.00000000000E+00 -0.00000000000E+00 -0.23636634584E+04  0.23636634584E+04  0.00000000000E+00 0. -1.
         23    2    1    2    0    0 -0.12839116048E+04 -0.26083665475E+03  0.81442196779E+02  0.13157205115E+04  0.89570439112E+02 0.  0.
        254    2    1    2    0    0  0.12839116048E+04  0.26083665475E+03 -0.13854493891E+04  0.21075992129E+04  0.89779711686E+03 0.  0.
         23    2    4    4    0    0  0.64327305290E+03 -0.43346179986E+02 -0.12052812391E+04  0.13704689251E+04  0.99010593136E+02 0.  0.
         23    2    4    4    0    0  0.64063855194E+03  0.30418283474E+03 -0.18016815002E+03  0.73713028780E+03  0.89193877145E+02 0.  0.
          1    1    3    3  502    0 -0.25271419009E+01  0.17962205581E+01 -0.38229347008E+01  0.49221625539E+01  0.00000000000E+00 0. -1.
         -1    1    3    3    0  502 -0.12813844629E+04 -0.26263287531E+03  0.85265131480E+02  0.13107983490E+04  0.00000000000E+00 0.  1.
         11    1    5    5    0    0  0.58643173744E+03 -0.34435566732E+02 -0.11463887438E+04  0.12881363060E+04  0.00000000000E+00 0. -1.
        -11    1    5    5    0    0  0.56841315456E+02 -0.89106132548E+01 -0.58892495289E+02  0.82332619129E+02  0.00000000000E+00 0.  1.
          2    1    6    6  503    0  0.51761515936E+03  0.24021954749E+03 -0.10783854475E+03  0.58074093702E+03  0.00000000000E+00 0. -1.
         -2    1    6    6    0  503  0.12302339258E+03  0.63963287253E+02 -0.72329605269E+02  0.15638935078E+03  0.00000000000E+00 0.  1.
<mgrwt>
<rscale>  0 0.31652304E+04</rscale>
<asrwt>0</asrwt>
<pdfrwt beam="1">  1        2 0.16302404E+00 0.31652304E+04</pdfrwt>
<pdfrwt beam="2">  1       -2 0.36364053E+00 0.31652304E+04</pdfrwt>
<totfact> 0.24839291E-01</totfact>
</mgrwt>
</event>
<event>
12    2  0.3555611E-008  0.4008787E+04  0.7818608E-02  0.8002776E-01
          2   -1    0    0  501    0  0.00000000000E+00  0.00000000000E+00  0.25315521582E+04  0.25315521582E+04  0.00000000000E+00 0.  1.
         -2   -1    0    0    0  501 -0.00000000000E+00 -0.00000000000E+00 -0.15870077540E+04  0.15870077540E+04  0.00000000000E+00 0. -1.
         23    2    1    2    0    0 -0.97472023660E+03 -0.16400190068E+04  0.48123840866E+03  0.19717288233E+04  0.12799321998E+03 0.  0.
        254    2    1    2    0    0  0.97472023660E+03  0.16400190068E+04  0.46330599556E+03  0.21468310889E+04  0.86861349086E+03 0.  0.
         23    2    4    4    0    0  0.56249484466E+03  0.39800593758E+03 -0.13028205857E+03  0.70700294689E+03  0.89836381897E+02 0.  0.
         23    2    4    4    0    0  0.41222539194E+03  0.12420130692E+04  0.59358805413E+03  0.14398281420E+04  0.90730715134E+02 0.  0.
          1    1    3    3  502    0 -0.88214756245E+03 -0.14165247778E+04  0.44551777761E+03  0.17271979789E+04  0.00000000000E+00 0. -1.
         -1    1    3    3    0  502 -0.92572674153E+02 -0.22349422896E+03  0.35720631049E+02  0.24453084439E+03  0.00000000000E+00 0.  1.
         11    1    5    5    0    0  0.25180270940E+03  0.23265393401E+03 -0.70645096368E+02  0.35003312288E+03  0.00000000000E+00 0. -1.
        -11    1    5    5    0    0  0.31069213526E+03  0.16535200357E+03 -0.59636962205E+02  0.35696982402E+03  0.00000000000E+00 0.  1.
          3    1    6    6  503    0  0.37729141616E+03  0.10867843129E+04  0.49307156638E+03  0.12516263520E+04  0.00000000000E+00 0. -1.
         -3    1    6    6    0  503  0.34933975777E+02  0.15522875630E+03  0.10051648775E+03  0.18820178999E+03  0.00000000000E+00 0.  1.
<mgrwt>
<rscale>  0 0.40087868E+04</rscale>
<asrwt>0</asrwt>
<pdfrwt beam="1">  1        2 0.38946956E+00 0.40087868E+04</pdfrwt>
<pdfrwt beam="2">  1       -2 0.24415504E+00 0.40087868E+04</pdfrwt>
<totfact> 0.18367742E-01</totfact>
</mgrwt>
</event>
<event>
12    2  0.3555611E-008  0.1636528E+04  0.7818608E-02  0.8798416E-01
         -2   -1    0    0    0  501 -0.00000000000E+00  0.00000000000E+00  0.38121893611E+03  0.38121893611E+03  0.00000000000E+00 0.  1.
          2   -1    0    0  501    0  0.00000000000E+00 -0.00000000000E+00 -0.17563564806E+04  0.17563564806E+04  0.00000000000E+00 0. -1.
         23    2    1    2    0    0  0.27661346706E+03  0.28579854885E+03 -0.99238016539E+03  0.10735827005E+04  0.97803893102E+02 0.  0.
        254    2    1    2    0    0 -0.27661346706E+03 -0.28579854885E+03 -0.38275737911E+03  0.10639927162E+04  0.90960511662E+03 0.  0.
         23    2    4    4    0    0  0.23870454367E+03 -0.37284850872E+03 -0.99110148675E+02  0.46276880176E+03  0.91303191038E+02 0.  0.
         23    2    4    4    0    0 -0.51531801072E+03  0.87049959861E+02 -0.28364723044E+03  0.60122391444E+03  0.88792433632E+02 0.  0.
          1    1    3    3  502    0  0.25991025328E+03  0.26066710977E+03 -0.96504675869E+03  0.10328678175E+04  0.00000000000E+00 0. -1.
         -1    1    3    3    0  502  0.16703213781E+02  0.25131439083E+02 -0.27333406700E+02  0.40714883063E+02  0.00000000000E+00 0.  1.
         11    1    5    5    0    0  0.55999752569E+02 -0.33865413793E+02 -0.27958961009E+02  0.71165595900E+02  0.00000000000E+00 0.  1.
        -11    1    5    5    0    0  0.18270479110E+03 -0.33898309492E+03 -0.71151187666E+02  0.39160320586E+03  0.00000000000E+00 0. -1.
          3    1    6    6  503    0 -0.51339310516E+03  0.76909472234E+02 -0.28199918444E+03  0.59077160338E+03  0.00000000000E+00 0. -1.
         -3    1    6    6    0  503 -0.19249055654E+01  0.10140487627E+02 -0.16480460014E+01  0.10452311054E+02  0.00000000000E+00 0.  1.
<mgrwt>
<rscale>  0 0.16365285E+04</rscale>
<asrwt>0</asrwt>
<pdfrwt beam="1">  1        2 0.27020869E+00 0.16365285E+04</pdfrwt>
<pdfrwt beam="2">  1       -2 0.58649067E-01 0.16365285E+04</pdfrwt>
<totfact> 0.23708328E+01</totfact>
</mgrwt>
</event>
<event>
12    2  0.3555611E-008  0.2398772E+04  0.7818608E-02  0.8439963E-01
          2   -1    0    0  501    0  0.00000000000E+00  0.00000000000E+00  0.13911981833E+04  0.13911981833E+04  0.00000000000E+00 0. -1.
         -2   -1    0    0    0  501 -0.00000000000E+00 -0.00000000000E+00 -0.10340202704E+04  0.10340202704E+04  0.00000000000E+00 0.  1.
         23    2    1    2    0    0 -0.41922368079E+03  0.59584861685E+03 -0.58038220849E+03  0.93590212732E+03  0.91023157789E+02 0.  0.
        254    2    1    2    0    0  0.41922368079E+03 -0.59584861685E+03  0.93756012135E+03  0.14893163264E+04  0.89903285269E+03 0.  0.
         23    2    4    4    0    0  0.71271108779E+02 -0.74267617251E+03  0.73453383031E+03  0.10509286489E+04  0.90904395092E+02 0.  0.
         23    2    4    4    0    0  0.34795257201E+03  0.14682755566E+03  0.20302629103E+03  0.43838767751E+03  0.91294892899E+02 0.  0.
          4    1    3    3  502    0 -0.16631396983E+03  0.17874263174E+03 -0.15949420086E+03  0.29162932820E+03  0.00000000000E+00 0. -1.
         -4    1    3    3    0  502 -0.25290971096E+03  0.41710598512E+03 -0.42088800763E+03  0.64427279912E+03  0.00000000000E+00 0.  1.
         11    1    5    5    0    0  0.26938103189E+02 -0.29926943622E+03  0.23455821021E+03  0.38118946842E+03  0.00000000000E+00 0. -1.
        -11    1    5    5    0    0  0.44333005591E+02 -0.44340673629E+03  0.49997562011E+03  0.66973918048E+03  0.00000000000E+00 0.  1.
          3    1    6    6  503    0  0.16262753711E+03  0.61378540034E+02  0.14461755517E+03  0.22611784155E+03  0.00000000000E+00 0. -1.
         -3    1    6    6    0  503  0.18532503490E+03  0.85449015622E+02  0.58408735862E+02  0.21226983596E+03  0.00000000000E+00 0.  1.
<mgrwt>
<rscale>  0 0.23987723E+04</rscale>
<asrwt>0</asrwt>
<pdfrwt beam="1">  1        2 0.21403049E+00 0.23987723E+04</pdfrwt>
<pdfrwt beam="2">  1       -2 0.15908004E+00 0.23987723E+04</pdfrwt>
<totfact> 0.33693410E+00</totfact>
</mgrwt>
</event>
<event>
12    2  0.3555611E-008  0.1390644E+04  0.7818608E-02  0.8960619E-01
         -2   -1    0    0    0  501 -0.00000000000E+00  0.00000000000E+00  0.31251153397E+03  0.31251153397E+03  0.00000000000E+00 0.  1.
          2   -1    0    0  501    0  0.00000000000E+00 -0.00000000000E+00 -0.15470560711E+04  0.15470560711E+04  0.00000000000E+00 0. -1.
         23    2    1    2    0    0  0.21486793290E+03 -0.10078178072E+03  0.89252652167E+02  0.27234275077E+03  0.99394879485E+02 0.  0.
        254    2    1    2    0    0 -0.21486793290E+03  0.10078178072E+03 -0.13237971893E+04  0.15872248543E+04  0.84292262028E+03 0.  0.
         23    2    4    4    0    0 -0.45239085295E+03 -0.10737795642E+03 -0.45167058490E+03  0.65462094100E+03  0.91294850725E+02 0.  0.
         23    2    4    4    0    0  0.23752292005E+03  0.20815973714E+03 -0.87212660436E+03  0.93260391326E+03  0.96941380678E+02 0.  0.
          1    1    3    3  502    0  0.41977323171E+02 -0.50375821228E+02 -0.10599846353E+02  0.66424210704E+02  0.00000000000E+00 0. -1.
         -1    1    3    3    0  502  0.17289060972E+03 -0.50405959494E+02  0.99852498521E+02  0.20591854007E+03  0.00000000000E+00 0.  1.
         11    1    5    5    0    0 -0.36863542216E+03 -0.11911388959E+03 -0.39189601989E+03  0.55105597136E+03  0.00000000000E+00 0.  1.
        -11    1    5    5    0    0 -0.83755430786E+02  0.11735933169E+02 -0.59774565014E+02  0.10356496964E+03  0.00000000000E+00 0. -1.
          1    1    6    6  503    0  0.28597691353E+01  0.31612824697E+02 -0.14466921102E+03  0.14811053164E+03  0.00000000000E+00 0. -1.
         -1    1    6    6    0  503  0.23466315092E+03  0.17654691244E+03 -0.72745739334E+03  0.78449338163E+03  0.00000000000E+00 0.  1.
<mgrwt>
<rscale>  0 0.13906443E+04</rscale>
<asrwt>0</asrwt>
<pdfrwt beam="1">  1        2 0.23800862E+00 0.13906443E+04</pdfrwt>
<pdfrwt beam="2">  1       -2 0.48078699E-01 0.13906443E+04</pdfrwt>
<totfact> 0.47656141E+01</totfact>
</mgrwt>
</event>
<event>
12    2  0.3555611E-008  0.1203320E+04  0.7818608E-02  0.9109956E-01
          1   -1    0    0  501    0  0.00000000000E+00  0.00000000000E+00  0.10601491169E+04  0.10601491169E+04  0.00000000000E+00 0. -1.
         -1   -1    0    0    0  501 -0.00000000000E+00 -0.00000000000E+00 -0.34145633259E+03  0.34145633259E+03  0.00000000000E+00 0.  1.
         23    2    1    2    0    0  0.89830707305E+02  0.35330676433E+02 -0.96282719852E+02  0.16342657718E+03  0.90111438317E+02 0.  0.
        254    2    1    2    0    0 -0.89830707305E+02 -0.35330676433E+02  0.81497550413E+03  0.12381788723E+04  0.92713754898E+03 0.  0.
         23    2    4    4    0    0  0.35994093517E+03  0.13636802885E+03  0.55703327448E+03  0.68325794547E+03  0.91660433500E+02 0.  0.
         23    2    4    4    0    0 -0.44977164248E+03 -0.17169870529E+03  0.25794222965E+03  0.55492092680E+03  0.98122705761E+02 0.  0.
          1    1    3    3  502    0  0.57520688400E+01 -0.11974933929E+02  0.12351199798E+02  0.18139390149E+02  0.00000000000E+00 0. -1.
         -1    1    3    3    0  502  0.84078638465E+02  0.47305610362E+02 -0.10863391965E+03  0.14528718703E+03  0.00000000000E+00 0.  1.
         11    1    5    5    0    0  0.77875885801E+02  0.46179129537E+01  0.16611946232E+03  0.18352562347E+03  0.00000000000E+00 0. -1.
        -11    1    5    5    0    0  0.28206504937E+03  0.13175011590E+03  0.39091381216E+03  0.49973232200E+03  0.00000000000E+00 0.  1.
          2    1    6    6  503    0 -0.12506949907E+03 -0.62628172377E+02  0.28789422079E+02  0.14280580659E+03  0.00000000000E+00 0. -1.
         -2    1    6    6    0  503 -0.32470214340E+03 -0.10907053291E+03  0.22915280757E+03  0.41211512020E+03  0.00000000000E+00 0.  1.
<mgrwt>
<rscale>  0 0.12033198E+04</rscale>
<asrwt>0</asrwt>
<pdfrwt beam="1">  1        1 0.16309986E+00 0.12033198E+04</pdfrwt>
<pdfrwt beam="2">  1       -1 0.52531744E-01 0.12033198E+04</pdfrwt>
<totfact> 0.49103733E+01</totfact>
</mgrwt>
</event>
<event>
12    2  0.3555611E-008  0.1223621E+04  0.7818608E-02  0.9092429E-01
         -2   -1    0    0    0  501 -0.00000000000E+00  0.00000000000E+00  0.20216665734E+03  0.20216665734E+03  0.00000000000E+00 0. -1.
          2   -1    0    0  501    0  0.00000000000E+00 -0.00000000000E+00 -0.18515011286E+04  0.18515011286E+04  0.00000000000E+00 0.  1.
         23    2    1    2    0    0 -0.21492006377E+02 -0.88500604319E+02  0.44114354466E+02  0.13622301370E+03  0.91194132977E+02 0.  0.
        254    2    1    2    0    0  0.21492006377E+02  0.88500604319E+02 -0.16934488258E+04  0.19174447723E+04  0.89472412840E+03 0.  0.
         23    2    4    4    0    0 -0.32155893939E+03  0.21315482750E+03 -0.37321610010E+03  0.54456174459E+03  0.91772023569E+02 0.  0.
         23    2    4    4    0    0  0.34305094577E+03 -0.12465422318E+03 -0.13202327257E+04  0.13728830277E+04  0.92578242840E+02 0.  0.
          3    1    3    3  502    0 -0.35202861357E+02 -0.47032592173E+02  0.65166568779E+02  0.87738177897E+02  0.00000000000E+00 0. -1.
         -3    1    3    3    0  502  0.13710854980E+02 -0.41468012146E+02 -0.21052214313E+02  0.48484835806E+02  0.00000000000E+00 0.  1.
         11    1    5    5    0    0 -0.62274505175E+02  0.83615751232E+02 -0.73078632171E+02  0.12731926142E+03  0.00000000000E+00 0.  1.
        -11    1    5    5    0    0 -0.25928443422E+03  0.12953907626E+03 -0.30013746793E+03  0.41724248317E+03  0.00000000000E+00 0. -1.
          4    1    6    6  503    0  0.29380372328E+02 -0.14461838192E+02 -0.25176585777E+03  0.25388658527E+03  0.00000000000E+00 0.  1.
         -4    1    6    6    0  503  0.31367057344E+03 -0.11019238499E+03 -0.10684668679E+04  0.11189964424E+04  0.00000000000E+00 0. -1.
<mgrwt>
<rscale>  0 0.12236205E+04</rscale>
<asrwt>0</asrwt>
<pdfrwt beam="1">  1        2 0.28484632E+00 0.12236205E+04</pdfrwt>
<pdfrwt beam="2">  1       -2 0.31102564E-01 0.12236205E+04</pdfrwt>
<totfact> 0.76316479E+01</totfact>
</mgrwt>
</event>
<event>
12    2  0.3555611E-008  0.2520227E+04  0.7818608E-02  0.8395815E-01
          2   -1    0    0  501    0  0.00000000000E+00  0.00000000000E+00  0.39910791326E+04  0.39910791326E+04  0.00000000000E+00 0. -1.
         -2   -1    0    0    0  501 -0.00000000000E+00 -0.00000000000E+00 -0.39785883447E+03  0.39785883447E+03  0.00000000000E+00 0.  1.
         23    2    1    2    0    0  0.53523055967E+03 -0.12170447621E+03  0.32273067197E+04  0.32749280756E+04  0.91441269913E+02 0.  0.
        254    2    1    2    0    0 -0.53523055967E+03  0.12170447621E+03  0.36591357841E+03  0.11140098914E+04  0.89768678270E+03 0.  0.
         23    2    4    4    0    0  0.22411514517E+03  0.73537317147E+02 -0.25786086986E+02  0.25353637479E+03  0.89333284675E+02 0.  0.
         23    2    4    4    0    0 -0.75934570484E+03  0.48167159067E+02  0.39169966539E+03  0.86047351666E+03  0.89777894440E+02 0.  0.
          2    1    3    3  502    0  0.37790831000E+03 -0.88191372062E+02  0.20183181651E+04  0.20552860201E+04  0.00000000000E+00 0. -1.
         -2    1    3    3    0  502  0.15732224967E+03 -0.33513104151E+02  0.12089885546E+04  0.12196420555E+04  0.00000000000E+00 0.  1.
         11    1    5    5    0    0  0.12663247308E+03  0.21287970781E+02  0.26631103165E+02  0.13114181863E+03  0.00000000000E+00 0. -1.
        -11    1    5    5    0    0  0.97482672094E+02  0.52249346366E+02 -0.52417190151E+02  0.12239455616E+03  0.00000000000E+00 0.  1.
          1    1    6    6  503    0 -0.39561952882E+02 -0.17687956305E+02  0.20593935154E+02  0.47980434338E+02  0.00000000000E+00 0. -1.
         -1    1    6    6    0  503 -0.71978375196E+03  0.65855115372E+02  0.37110573024E+03  0.81249308232E+03  0.00000000000E+00 0.  1.
<mgrwt>
<rscale>  0 0.25202270E+04</rscale>
<asrwt>0</asrwt>
<pdfrwt beam="1">  1        2 0.61401215E+00 0.25202270E+04</pdfrwt>
<pdfrwt beam="2">  1       -2 0.61209054E-01 0.25202270E+04</pdfrwt>
<totfact> 0.77139450E-01</totfact>
</mgrwt>
</event>
<event>
12    2  0.3555611E-008  0.2067245E+04  0.7818608E-02  0.8575811E-01
          2   -1    0    0  501    0  0.00000000000E+00  0.00000000000E+00  0.21535554503E+04  0.21535554503E+04  0.00000000000E+00 0. -1.
         -2   -1    0    0    0  501 -0.00000000000E+00 -0.00000000000E+00 -0.49609836651E+03  0.49609836651E+03  0.00000000000E+00 0.  1.
         23    2    1    2    0    0 -0.26650063698E+03 -0.32661303262E+03 -0.25008747889E+03  0.49858719567E+03  0.91360724641E+02 0.  0.
        254    2    1    2    0    0  0.26650063698E+03  0.32661303262E+03  0.19075445627E+04  0.21510666211E+04  0.90036808439E+03 0.  0.
         23    2    4    4    0    0  0.20346698519E+03  0.57566136562E+03  0.80022413980E+03  0.10104733219E+04  0.88954136989E+02 0.  0.
         23    2    4    4    0    0  0.63033651787E+02 -0.24904833300E+03  0.11073204229E+04  0.11405932992E+04  0.93788282079E+02 0.  0.
          2    1    3    3  502    0 -0.55475555173E+01 -0.66653163745E+01  0.79072983749E+01  0.11735722482E+02  0.00000000000E+00 0. -1.
         -2    1    3    3    0  502 -0.26095308146E+03 -0.31994771625E+03 -0.25799477726E+03  0.48685147319E+03  0.00000000000E+00 0.  1.
         11    1    5    5    0    0  0.88446621714E+02  0.31489747955E+03  0.36365455412E+03  0.48910925391E+03  0.00000000000E+00 0. -1.
        -11    1    5    5    0    0  0.11502036348E+03  0.26076388607E+03  0.43656958568E+03  0.52136406802E+03  0.00000000000E+00 0.  1.
          3    1    6    6  503    0  0.19491100498E+02 -0.19341244160E+03  0.92184347334E+03  0.94211658774E+03  0.00000000000E+00 0. -1.
         -3    1    6    6    0  503  0.43542551289E+02 -0.55635891393E+02  0.18547694952E+03  0.19847671145E+03  0.00000000000E+00 0.  1.
<mgrwt>
<rscale>  0 0.20672449E+04</rscale>
<asrwt>0</asrwt>
<pdfrwt beam="1">  1        2 0.33131622E+00 0.20672449E+04</pdfrwt>
<pdfrwt beam="2">  1       -2 0.76322827E-01 0.20672449E+04</pdfrwt>
<totfact> 0.77820164E+00</totfact>
</mgrwt>
</event>
<event>
12    2  0.3555611E-008  0.1162423E+04  0.7818608E-02  0.9146399E-01
         -1   -1    0    0    0  501 -0.00000000000E+00  0.00000000000E+00  0.92499379095E+03  0.92499379095E+03  0.00000000000E+00 0.  1.
          1   -1    0    0  501    0  0.00000000000E+00 -0.00000000000E+00 -0.36519884093E+03  0.36519884093E+03  0.00000000000E+00 0. -1.
         23    2    1    2    0    0 -0.17486936060E+02 -0.21055941262E+03  0.15190557577E+03  0.27538137856E+03  0.90102944091E+02 0.  0.
        254    2    1    2    0    0  0.17486936060E+02  0.21055941262E+03  0.40788937424E+03  0.10148112533E+04  0.90489064481E+03 0.  0.
         23    2    4    4    0    0  0.35037381121E+03 -0.18177542479E+03  0.21428209971E+03  0.45807999934E+03  0.90090814727E+02 0.  0.
         23    2    4    4    0    0 -0.33288687515E+03  0.39233483741E+03  0.19360727453E+03  0.55673125398E+03  0.87895484053E+02 0.  0.
          3    1    3    3  502    0  0.10569997286E+02 -0.11955365710E+02 -0.89280321365E+01  0.18285660221E+02  0.00000000000E+00 0. -1.
         -3    1    3    3    0  502 -0.28056933346E+02 -0.19860404691E+03  0.16083360791E+03  0.25709571834E+03  0.00000000000E+00 0.  1.
         11    1    5    5    0    0  0.34103925020E+03 -0.15242255287E+03  0.19155892429E+03  0.41980379498E+03  0.00000000000E+00 0.  1.
        -11    1    5    5    0    0  0.93345610060E+01 -0.29352871918E+02  0.22723175419E+02  0.38276204359E+02  0.00000000000E+00 0. -1.
          2    1    6    6  503    0 -0.18622547457E+03  0.17093950108E+03  0.61681560111E+02  0.26020156661E+03  0.00000000000E+00 0. -1.
         -2    1    6    6    0  503 -0.14666140058E+03  0.22139533633E+03  0.13192571442E+03  0.29652968737E+03  0.00000000000E+00 0.  1.
<mgrwt>
<rscale>  0 0.11624227E+04</rscale>
<asrwt>0</asrwt>
<pdfrwt beam="1">  1        1 0.56184437E-01 0.11624227E+04</pdfrwt>
<pdfrwt beam="2">  1       -1 0.14230674E+00 0.11624227E+04</pdfrwt>
<totfact> 0.26982594E+01</totfact>
</mgrwt>
</event>
<event>
12    2  0.3555611E-008  0.1095740E+04  0.7818608E-02  0.9209354E-01
          1   -1    0    0  501    0  0.00000000000E+00  0.00000000000E+00  0.15702922695E+04  0.15702922695E+04  0.00000000000E+00 0. -1.
         -1   -1    0    0    0  501 -0.00000000000E+00 -0.00000000000E+00 -0.19115005137E+03  0.19115005137E+03  0.00000000000E+00 0.  1.
         23    2    1    2    0    0  0.79562737877E+02  0.13266747550E+02  0.42489651223E+03  0.44230048984E+03  0.92663052819E+02 0.  0.
        254    2    1    2    0    0 -0.79562737877E+02 -0.13266747550E+02  0.95424570590E+03  0.13191418310E+04  0.90721776178E+03 0.  0.
         23    2    4    4    0    0 -0.35662844592E+02 -0.22853099733E+03 -0.77617046819E+02  0.26022118111E+03  0.90511888261E+02 0.  0.
         23    2    4    4    0    0 -0.43899893286E+02  0.21526424978E+03  0.10318627527E+04  0.10589206499E+04  0.91138929707E+02 0.  0.
          3    1    3    3  502    0  0.87527545726E+02  0.36277147051E+02  0.37493219577E+03  0.38671857220E+03  0.00000000000E+00 0. -1.
         -3    1    3    3    0  502 -0.79648078484E+01 -0.23010399501E+02  0.49964316465E+02  0.55581917644E+02  0.00000000000E+00 0.  1.
         11    1    5    5    0    0  0.49913085398E+01  0.76601776471E+00 -0.19585893379E+02  0.20226397693E+02  0.00000000000E+00 0.  1.
        -11    1    5    5    0    0 -0.40654153131E+02 -0.22929701510E+03 -0.58031153439E+02  0.23999478342E+03  0.00000000000E+00 0. -1.
          3    1    6    6  503    0 -0.25229230790E+02  0.18781664097E+03  0.69324079780E+03  0.71867545419E+03  0.00000000000E+00 0. -1.
         -3    1    6    6    0  503 -0.18670662496E+02  0.27447608816E+02  0.33862195491E+03  0.34024519573E+03  0.00000000000E+00 0.  1.
<mgrwt>
<rscale>  0 0.10957398E+04</rscale>
<asrwt>0</asrwt>
<pdfrwt beam="1">  1        1 0.24158342E+00 0.10957398E+04</pdfrwt>
<pdfrwt beam="2">  1       -1 0.29407701E-01 0.10957398E+04</pdfrwt>
<totfact> 0.61610985E+01</totfact>
</mgrwt>
</event>
<event>
12    2  0.3555611E-008  0.2086865E+04  0.7818608E-02  0.8567052E-01
         -1   -1    0    0    0  501 -0.00000000000E+00  0.00000000000E+00  0.12503783708E+04  0.12503783708E+04  0.00000000000E+00 0.  1.
          1   -1    0    0  501    0  0.00000000000E+00 -0.00000000000E+00 -0.87073730745E+03  0.87073730745E+03  0.00000000000E+00 0. -1.
         23    2    1    2    0    0 -0.62518025401E+03  0.45932953961E+03  0.42006914912E+03  0.88682169422E+03  0.90336323508E+02 0.  0.
        254    2    1    2    0    0  0.62518025401E+03 -0.45932953961E+03 -0.40428085773E+02  0.12342939840E+04  0.95917320276E+03 0.  0.
         23    2    4    4    0    0  0.47156021660E+03 -0.70354580580E+03 -0.22431795879E+03  0.88107205012E+03  0.92863728832E+02 0.  0.
         23    2    4    4    0    0  0.15362003740E+03  0.24421626619E+03  0.18388987302E+03  0.35322193389E+03  0.87804035339E+02 0.  0.
          1    1    3    3  502    0 -0.14024495644E+02  0.12896164342E+02  0.29563733461E+02  0.35171179522E+02  0.00000000000E+00 0. -1.
         -1    1    3    3    0  502 -0.61115575836E+03  0.44643337527E+03  0.39050541566E+03  0.85165051470E+03  0.00000000000E+00 0.  1.
         11    1    5    5    0    0  0.10713553351E+03 -0.10222132691E+03 -0.53883814005E+02  0.15757756067E+03  0.00000000000E+00 0.  1.
        -11    1    5    5    0    0  0.36442468310E+03 -0.60132447888E+03 -0.17043414479E+03  0.72349448945E+03  0.00000000000E+00 0. -1.
          3    1    6    6  503    0  0.60154972221E+02  0.71728103241E+02  0.15925660539E+02  0.94958770743E+02  0.00000000000E+00 0. -1.
         -3    1    6    6    0  503  0.93465065184E+02  0.17248816295E+03  0.16796421248E+03  0.25826316315E+03  0.00000000000E+00 0.  1.
<mgrwt>
<rscale>  0 0.20868647E+04</rscale>
<asrwt>0</asrwt>
<pdfrwt beam="1">  1        1 0.13395959E+00 0.20868647E+04</pdfrwt>
<pdfrwt beam="2">  1       -1 0.19236590E+00 0.20868647E+04</pdfrwt>
<totfact> 0.30127561E+00</totfact>
</mgrwt>
</event>
<event>
12    2  0.3555611E-008  0.2277250E+04  0.7818608E-02  0.8486946E-01
          1   -1    0    0  501    0  0.00000000000E+00  0.00000000000E+00  0.18950129820E+04  0.18950129820E+04  0.00000000000E+00 0. -1.
         -1   -1    0    0    0  501 -0.00000000000E+00 -0.00000000000E+00 -0.68414651039E+03  0.68414651039E+03  0.00000000000E+00 0.  1.
         23    2    1    2    0    0 -0.20640402015E+03 -0.85396779721E+03  0.95104063496E+03  0.12979496536E+04  0.91276479142E+02 0.  0.
        254    2    1    2    0    0  0.20640402015E+03  0.85396779721E+03  0.25982583666E+03  0.12812098388E+04  0.89561463115E+03 0.  0.
         23    2    4    4    0    0 -0.25701023996E+03  0.61187219867E+03 -0.41674643372E+02  0.67099215270E+03  0.89732057490E+02 0.  0.
         23    2    4    4    0    0  0.46341426010E+03  0.24209559855E+03  0.30150048003E+03  0.61021768614E+03  0.90000165085E+02 0.  0.
          3    1    3    3  502    0 -0.27602119012E+02 -0.93934427243E+02  0.15175308877E+03  0.18059499867E+03  0.00000000000E+00 0.  1.
         -3    1    3    3    0  502 -0.17880190113E+03 -0.76003336997E+03  0.79928754620E+03  0.11173546549E+04  0.00000000000E+00 0. -1.
         11    1    5    5    0    0 -0.24230521387E+03  0.60664772776E+03 -0.45796048008E+02  0.65485155591E+03  0.00000000000E+00 0. -1.
        -11    1    5    5    0    0 -0.14705026088E+02  0.52244709028E+01  0.41214046359E+01  0.16140596787E+02  0.00000000000E+00 0.  1.
          3    1    6    6  503    0  0.34809322105E+03  0.14022857799E+03  0.23351542181E+03  0.44199818647E+03  0.00000000000E+00 0. -1.
         -3    1    6    6    0  503  0.11532103906E+03  0.10186702056E+03  0.67985058226E+02  0.16821949967E+03  0.00000000000E+00 0.  1.
<mgrwt>
<rscale>  0 0.22772497E+04</rscale>
<asrwt>0</asrwt>
<pdfrwt beam="1">  1        1 0.29154046E+00 0.22772497E+04</pdfrwt>
<pdfrwt beam="2">  1       -1 0.10525331E+00 0.22772497E+04</pdfrwt>
<totfact> 0.26917999E+00</totfact>
</mgrwt>
</event>
<event>
12    2  0.3555611E-008  0.1913326E+04  0.7818608E-02  0.8648252E-01
          1   -1    0    0  501    0  0.00000000000E+00  0.00000000000E+00  0.11519551193E+04  0.11519551193E+04  0.00000000000E+00 0. -1.
         -1   -1    0    0    0  501 -0.00000000000E+00 -0.00000000000E+00 -0.79447863667E+03  0.79447863667E+03  0.00000000000E+00 0.  1.
         23    2    1    2    0    0 -0.17096339151E+03 -0.21932575474E+03 -0.55888364389E+03  0.63093990683E+03  0.91662264275E+02 0.  0.
        254    2    1    2    0    0  0.17096339151E+03  0.21932575474E+03  0.91636012654E+03  0.13154938492E+04  0.90192899815E+03 0.  0.
         23    2    4    4    0    0 -0.32993032826E+03  0.87009987147E+02  0.14392517608E+03  0.38112201414E+03  0.90082040316E+02 0.  0.
         23    2    4    4    0    0  0.50089371977E+03  0.13231576759E+03  0.77243495047E+03  0.93437183501E+03  0.89403537415E+02 0.  0.
          1    1    3    3  502    0 -0.78810344647E+02 -0.78205065450E+02 -0.13509297073E+03  0.17486341363E+03  0.00000000000E+00 0. -1.
         -1    1    3    3    0  502 -0.92153046863E+02 -0.14112068929E+03 -0.42379067316E+03  0.45607649320E+03  0.00000000000E+00 0.  1.
         11    1    5    5    0    0 -0.27685443833E+03  0.43869897500E+02  0.13808976990E+03  0.31247677110E+03  0.00000000000E+00 0.  1.
        -11    1    5    5    0    0 -0.53075889930E+02  0.43140089647E+02  0.58354061779E+01  0.68645243039E+02  0.00000000000E+00 0. -1.
          2    1    6    6  503    0  0.27361756002E+03  0.46800368420E+02  0.47758047072E+03  0.55239474078E+03  0.00000000000E+00 0. -1.
         -2    1    6    6    0  503  0.22727615975E+03  0.85515399174E+02  0.29485447975E+03  0.38197709423E+03  0.00000000000E+00 0.  1.
<mgrwt>
<rscale>  0 0.19133256E+04</rscale>
<asrwt>0</asrwt>
<pdfrwt beam="1">  1        1 0.17722386E+00 0.19133256E+04</pdfrwt>
<pdfrwt beam="2">  1       -1 0.12222748E+00 0.19133256E+04</pdfrwt>
<totfact> 0.64113048E+00</totfact>
</mgrwt>
</event>
<event>
12    2  0.3555611E-008  0.2506339E+04  0.7818608E-02  0.8400731E-01
          2   -1    0    0  501    0  0.00000000000E+00  0.00000000000E+00  0.38326322531E+04  0.38326322531E+04  0.00000000000E+00 0. -1.
         -2   -1    0    0    0  501 -0.00000000000E+00 -0.00000000000E+00 -0.40975340313E+03  0.40975340313E+03  0.00000000000E+00 0.  1.
         23    2    1    2    0    0  0.93047108140E+02  0.10569234564E+04  0.19387090938E+04  0.22118851703E+04  0.89989440844E+02 0.  0.
        254    2    1    2    0    0 -0.93047108140E+02 -0.10569234564E+04  0.14841697561E+04  0.20305004859E+04  0.89130656966E+03 0.  0.
         23    2    4    4    0    0  0.25876074877E+03 -0.89294586659E+03  0.12742946320E+04  0.15801046683E+04  0.92706568218E+02 0.  0.
         23    2    4    4    0    0 -0.35180785691E+03 -0.16397758977E+03  0.20987512416E+03  0.45039581761E+03  0.90285140803E+02 0.  0.
          3    1    3    3  502    0  0.90711308834E+02  0.10562463649E+04  0.19384933237E+04  0.22094436610E+04  0.00000000000E+00 0. -1.
         -3    1    3    3    0  502  0.23357993064E+01  0.67709141216E+00  0.21577008627E+00  0.24415093509E+01  0.00000000000E+00 0.  1.
         11    1    5    5    0    0  0.17001358778E+03 -0.49384365050E+03  0.77862460643E+03  0.93757263660E+03  0.00000000000E+00 0. -1.
        -11    1    5    5    0    0  0.88747160986E+02 -0.39910221610E+03  0.49567002555E+03  0.64253203166E+03  0.00000000000E+00 0.  1.
          4    1    6    6  503    0 -0.87244528297E+02 -0.76296687898E+02  0.91147187813E+02  0.14744694689E+03  0.00000000000E+00 0. -1.
         -4    1    6    6    0  503 -0.26456332861E+03 -0.87680901869E+02  0.11872793635E+03  0.30294887072E+03  0.00000000000E+00 0.  1.
<mgrwt>
<rscale>  0 0.25063392E+04</rscale>
<asrwt>0</asrwt>
<pdfrwt beam="1">  1        2 0.58963571E+00 0.25063392E+04</pdfrwt>
<pdfrwt beam="2">  1       -2 0.63038988E-01 0.25063392E+04</pdfrwt>
<totfact> 0.96617390E-01</totfact>
</mgrwt>
</event>
<event>
12    2  0.3555611E-008  0.1945619E+04  0.7818608E-02  0.8632476E-01
         -2   -1    0    0    0  501 -0.00000000000E+00  0.00000000000E+00  0.43766161551E+03  0.43766161551E+03  0.00000000000E+00 0.  1.
          2   -1    0    0  501    0  0.00000000000E+00 -0.00000000000E+00 -0.21623066831E+04  0.21623066831E+04  0.00000000000E+00 0. -1.
         23    2    1    2    0    0 -0.30757135959E+03 -0.13532206568E+03 -0.15816884318E+04  0.16194784397E+04  0.89777048649E+02 0.  0.
        254    2    1    2    0    0  0.30757135959E+03  0.13532206568E+03 -0.14295663575E+03  0.98048985893E+03  0.90995140588E+03 0.  0.
         23    2    4    4    0    0 -0.15451648934E+02  0.20551445081E+03  0.32809219153E+03  0.39766478726E+03  0.89542470015E+02 0.  0.
         23    2    4    4    0    0  0.32302300853E+03 -0.70192385130E+02 -0.47104882728E+03  0.58282507167E+03  0.92343010125E+02 0.  0.
          2    1    3    3  502    0 -0.59886974876E+02 -0.33008287814E+02 -0.52063435831E+03  0.52510582922E+03  0.00000000000E+00 0. -1.
         -2    1    3    3    0  502 -0.24768438472E+03 -0.10231377786E+03 -0.10610540735E+04  0.10943726104E+04  0.00000000000E+00 0.  1.
         11    1    5    5    0    0 -0.23091916321E+02  0.68905544845E+02  0.18930361556E+03  0.20277344396E+03  0.00000000000E+00 0. -1.
        -11    1    5    5    0    0  0.76402673863E+01  0.13660890596E+03  0.13878857597E+03  0.19489134330E+03  0.00000000000E+00 0.  1.
          4    1    6    6  503    0  0.19810202605E+03 -0.77892041822E+01 -0.22475599018E+03  0.29970041633E+03  0.00000000000E+00 0. -1.
         -4    1    6    6    0  503  0.12492098248E+03 -0.62403180947E+02 -0.24629283710E+03  0.28312465535E+03  0.00000000000E+00 0.  1.
<mgrwt>
<rscale>  0 0.19456193E+04</rscale>
<asrwt>0</asrwt>
<pdfrwt beam="1">  1        2 0.33266257E+00 0.19456193E+04</pdfrwt>
<pdfrwt beam="2">  1       -2 0.67332556E-01 0.19456193E+04</pdfrwt>
<totfact> 0.10235989E+01</totfact>
</mgrwt>
</event>
<event>
12    2  0.3555611E-008  0.2216650E+04  0.7818608E-02  0.8511530E-01
         -1   -1    0    0    0  501 -0.00000000000E+00  0.00000000000E+00  0.25921362935E+04  0.25921362935E+04  0.00000000000E+00 0.  1.
          1   -1    0    0  501    0  0.00000000000E+00 -0.00000000000E+00 -0.47388879427E+03  0.47388879427E+03  0.00000000000E+00 0. -1.
         23    2    1    2    0    0  0.51095568344E+03  0.30116880707E+03 -0.93441383397E+02  0.60754465236E+03  0.92740776883E+02 0.  0.
        254    2    1    2    0    0 -0.51095568344E+03 -0.30116880707E+03  0.22116888826E+04  0.24584804354E+04  0.89486310515E+03 0.  0.
         23    2    4    4    0    0  0.21013360006E+03 -0.16155097084E+02  0.92739035793E+03  0.95552424257E+03  0.92501811426E+02 0.  0.
         23    2    4    4    0    0 -0.72108928350E+03 -0.28501370998E+03  0.12842985247E+04  0.15029561928E+04  0.90840780454E+02 0.  0.
          3    1    3    3  502    0  0.49703881382E+03  0.30732028977E+03 -0.95711429324E+02  0.59216046867E+03  0.00000000000E+00 0. -1.
         -3    1    3    3    0  502  0.13916869617E+02 -0.61514827071E+01  0.22700459272E+01  0.15384183694E+02  0.00000000000E+00 0.  1.
         11    1    5    5    0    0  0.40742520822E+02  0.33407315446E+02  0.25244684892E+03  0.25788643480E+03  0.00000000000E+00 0.  1.
        -11    1    5    5    0    0  0.16939107924E+03 -0.49562412530E+02  0.67494350901E+03  0.69763780776E+03  0.00000000000E+00 0. -1.
          1    1    6    6  503    0 -0.16384044238E+02 -0.15583597835E+02  0.17823678082E+02  0.28791820495E+02  0.00000000000E+00 0. -1.
         -1    1    6    6    0  503 -0.70470523926E+03 -0.26943011215E+03  0.12664748466E+04  0.14741643723E+04  0.00000000000E+00 0.  1.
<mgrwt>
<rscale>  0 0.22166500E+04</rscale>
<asrwt>0</asrwt>
<pdfrwt beam="1">  1        1 0.72905970E-01 0.22166500E+04</pdfrwt>
<pdfrwt beam="2">  1       -1 0.39879019E+00 0.22166500E+04</pdfrwt>
<totfact> 0.31701824E-01</totfact>
</mgrwt>
</event>
<event>
12    2  0.3555611E-008  0.1195508E+04  0.7818608E-02  0.9116797E-01
          1   -1    0    0  501    0  0.00000000000E+00  0.00000000000E+00  0.17083682073E+04  0.17083682073E+04  0.00000000000E+00 0. -1.
         -1   -1    0    0    0  501 -0.00000000000E+00 -0.00000000000E+00 -0.20915272777E+03  0.20915272777E+03  0.00000000000E+00 0.  1.
         23    2    1    2    0    0 -0.12685176371E+01 -0.71843681537E+02 -0.56077177051E+02  0.12943848181E+03  0.91905098188E+02 0.  0.
        254    2    1    2    0    0  0.12685176371E+01  0.71843681537E+02  0.15552926566E+04  0.17880824532E+04  0.87928407714E+03 0.  0.
         23    2    4    4    0    0  0.40208920360E+03 -0.90354988502E+02  0.94001708313E+03  0.10304346239E+04  0.91234017492E+02 0.  0.
         23    2    4    4    0    0 -0.40082068597E+03  0.16219867004E+03  0.61527557342E+03  0.75764782933E+03  0.92198542170E+02 0.  0.
          1    1    3    3  502    0 -0.83757925952E+01  0.21214158872E+01 -0.54433035397E+02  0.55114513964E+02  0.00000000000E+00 0. -1.
         -1    1    3    3    0  502  0.71072749581E+01 -0.73965097424E+02 -0.16441416544E+01  0.74323967844E+02  0.00000000000E+00 0.  1.
         11    1    5    5    0    0  0.37611190107E+03 -0.84118643653E+02  0.91866906137E+03  0.99623739774E+03  0.00000000000E+00 0. -1.
        -11    1    5    5    0    0  0.25977302530E+02 -0.62363448490E+01  0.21348021765E+02  0.34197226161E+02  0.00000000000E+00 0.  1.
          4    1    6    6  503    0 -0.11064166837E+03  0.30562825856E+01  0.13925867054E+03  0.17788731536E+03  0.00000000000E+00 0. -1.
         -4    1    6    6    0  503 -0.29017901759E+03  0.15914238745E+03  0.47601690288E+03  0.57976051397E+03  0.00000000000E+00 0.  1.
<mgrwt>
<rscale>  0 0.11955080E+04</rscale>
<asrwt>0</asrwt>
<pdfrwt beam="1">  1        1 0.26282587E+00 0.11955080E+04</pdfrwt>
<pdfrwt beam="2">  1       -1 0.32177344E-01 0.11955080E+04</pdfrwt>
<totfact> 0.42003184E+01</totfact>
</mgrwt>
</event>
<event>
12    2  0.3555611E-008  0.2823564E+04  0.7818608E-02  0.8295990E-01
         -2   -1    0    0    0  501 -0.00000000000E+00  0.00000000000E+00  0.99871291550E+03  0.99871291550E+03  0.00000000000E+00 0.  1.
          2   -1    0    0  501    0  0.00000000000E+00 -0.00000000000E+00 -0.19956966739E+04  0.19956966739E+04  0.00000000000E+00 0. -1.
         23    2    1    2    0    0 -0.57083790985E+02 -0.77952990830E+03 -0.15053026242E+04  0.16985772252E+04  0.91121690261E+02 0.  0.
        254    2    1    2    0    0  0.57083790985E+02  0.77952990830E+03  0.50831886581E+03  0.12958323642E+04  0.89992666902E+03 0.  0.
         23    2    4    4    0    0 -0.40515134242E+03  0.47100701753E+03  0.23982855907E+03  0.67197882762E+03  0.89680467182E+02 0.  0.
         23    2    4    4    0    0  0.46223513340E+03  0.30852289077E+03  0.26849030674E+03  0.62385353658E+03  0.90876276347E+02 0.  0.
          2    1    3    3  502    0 -0.11235486964E+02 -0.62726941314E+03 -0.12252940893E+04  0.13765677456E+04  0.00000000000E+00 0. -1.
         -2    1    3    3    0  502 -0.45848304020E+02 -0.15226049516E+03 -0.28000853490E+03  0.32200947965E+03  0.00000000000E+00 0.  1.
         11    1    5    5    0    0 -0.39949805314E+02  0.42190507980E+02  0.52727944895E+02  0.78461851119E+02  0.00000000000E+00 0. -1.
        -11    1    5    5    0    0 -0.36520153710E+03  0.42881650955E+03  0.18710061418E+03  0.59351697650E+03  0.00000000000E+00 0.  1.
          3    1    6    6  503    0  0.95855108900E+02  0.68264436486E+02  0.17641313466E+02  0.11899349197E+03  0.00000000000E+00 0. -1.
         -3    1    6    6    0  503  0.36638002450E+03  0.24025845429E+03  0.25084899327E+03  0.50486004460E+03  0.00000000000E+00 0.  1.
<mgrwt>
<rscale>  0 0.28235637E+04</rscale>
<asrwt>0</asrwt>
<pdfrwt beam="1">  1        2 0.30703026E+00 0.28235637E+04</pdfrwt>
<pdfrwt beam="2">  1       -2 0.15364814E+00 0.28235637E+04</pdfrwt>
<totfact> 0.16398834E+00</totfact>
</mgrwt>
</event>
<event>
12    2  0.3555611E-008  0.1771664E+04  0.7818608E-02  0.8721515E-01
         -2   -1    0    0    0  501 -0.00000000000E+00  0.00000000000E+00  0.80458744448E+03  0.80458744448E+03  0.00000000000E+00 0.  1.
          2   -1    0    0  501    0  0.00000000000E+00 -0.00000000000E+00 -0.97528087475E+03  0.97528087475E+03  0.00000000000E+00 0. -1.
         23    2    1    2    0    0 -0.42951695890E+03 -0.48268503526E+03 -0.14756190429E+03  0.66852639100E+03  0.87654769569E+02 0.  0.
        254    2    1    2    0    0  0.42951695890E+03  0.48268503526E+03 -0.23131525981E+02  0.11113419282E+04  0.90392264751E+03 0.  0.
         23    2    4    4    0    0 -0.16253869734E+03 -0.12467641603E+03  0.10940032749E+03  0.24814747137E+03  0.87439688049E+02 0.  0.
         23    2    4    4    0    0  0.59205565623E+03  0.60736145129E+03 -0.13253185347E+03  0.86319445685E+03  0.90122946920E+02 0.  0.
          1    1    3    3  502    0 -0.21639509391E+03 -0.22572583702E+03 -0.11471617938E+03  0.33307475434E+03  0.00000000000E+00 0. -1.
         -1    1    3    3    0  502 -0.21312186499E+03 -0.25695919825E+03 -0.32845724905E+02  0.33545163667E+03  0.00000000000E+00 0.  1.
         11    1    5    5    0    0 -0.13514866042E+01  0.11027899474E+02  0.89988560104E+00  0.11146787741E+02  0.00000000000E+00 0. -1.
        -11    1    5    5    0    0 -0.16118721073E+03 -0.13570431550E+03  0.10850044189E+03  0.23700068363E+03  0.00000000000E+00 0.  1.
          4    1    6    6  503    0  0.39313181141E+03  0.34386633120E+03 -0.95696698676E+02  0.53099391052E+03  0.00000000000E+00 0. -1.
         -4    1    6    6    0  503  0.19892384482E+03  0.26349512009E+03 -0.36835154791E+02  0.33220054633E+03  0.00000000000E+00 0.  1.
<mgrwt>
<rscale>  0 0.17716645E+04</rscale>
<asrwt>0</asrwt>
<pdfrwt beam="1">  1        2 0.15004321E+00 0.17716645E+04</pdfrwt>
<pdfrwt beam="2">  1       -2 0.12378268E+00 0.17716645E+04</pdfrwt>
<totfact> 0.12151558E+01</totfact>
</mgrwt>
</event>
<event>
12    2  0.3555611E-008  0.1436219E+04  0.7818608E-02  0.8928011E-01
         -2   -1    0    0    0  501 -0.00000000000E+00  0.00000000000E+00  0.43079288914E+03  0.43079288914E+03  0.00000000000E+00 0.  1.
          2   -1    0    0  501    0  0.00000000000E+00 -0.00000000000E+00 -0.11970507035E+04  0.11970507035E+04  0.00000000000E+00 0. -1.
         23    2    1    2    0    0 -0.21790378219E+03  0.14727140547E+03 -0.53999023486E+03  0.60745237676E+03  0.90763490058E+02 0.  0.
        254    2    1    2    0    0  0.21790378219E+03 -0.14727140547E+03 -0.22626757946E+03  0.10203912158E+04  0.95959902598E+03 0.  0.
         23    2    4    4    0    0  0.61593302148E+02  0.29264672492E+03 -0.40422747474E+03  0.51110408255E+03  0.91606175519E+02 0.  0.
         23    2    4    4    0    0  0.15631048004E+03 -0.43991813039E+03  0.17795989528E+03  0.50928713328E+03  0.98705279405E+02 0.  0.
          4    1    3    3  502    0 -0.15001670194E+03  0.10849794074E+03 -0.27769056678E+03  0.33374970395E+03  0.00000000000E+00 0. -1.
         -4    1    3    3    0  502 -0.67887080256E+02  0.38773464729E+02 -0.26229966808E+03  0.27370267281E+03  0.00000000000E+00 0.  1.
         11    1    5    5    0    0  0.36306935917E+02  0.23805325721E+03 -0.37120808702E+03  0.44247371756E+03  0.00000000000E+00 0. -1.
        -11    1    5    5    0    0  0.25286366231E+02  0.54593467703E+02 -0.33019387718E+02  0.68630364987E+02  0.00000000000E+00 0.  1.
          3    1    6    6  503    0  0.10461173766E+03 -0.38263741994E+03  0.17048766672E+03  0.43176504641E+03  0.00000000000E+00 0. -1.
         -3    1    6    6    0  503  0.51698742386E+02 -0.57280710446E+02  0.74722285559E+01  0.77522086873E+02  0.00000000000E+00 0.  1.
<mgrwt>
<rscale>  0 0.14362186E+04</rscale>
<asrwt>0</asrwt>
<pdfrwt beam="1">  1        2 0.18416164E+00 0.14362186E+04</pdfrwt>
<pdfrwt beam="2">  1       -2 0.66275830E-01 0.14362186E+04</pdfrwt>
<totfact> 0.38652485E+01</totfact>
</mgrwt>
</event>
<event>
12    2  0.3555611E-008  0.1356214E+04  0.7818608E-02  0.8986138E-01
         -2   -1    0    0    0  501 -0.00000000000E+00  0.00000000000E+00  0.61316953115E+03  0.61316953115E+03  0.00000000000E+00 0.  1.
          2   -1    0    0  501    0  0.00000000000E+00 -0.00000000000E+00 -0.74992159583E+03  0.74992159583E+03  0.00000000000E+00 0. -1.
         23    2    1    2    0    0 -0.10137438729E+03  0.22624941871E+03  0.13205459226E+03  0.29497727120E+03  0.90042264078E+02 0.  0.
        254    2    1    2    0    0  0.10137438729E+03 -0.22624941871E+03 -0.26880665695E+03  0.10681138558E+04  0.10035659541E+04 0.  0.
         23    2    4    4    0    0  0.36677367867E+03 -0.50892454077E+03 -0.19138125014E+03  0.66218682316E+03  0.91309836802E+02 0.  0.
         23    2    4    4    0    0 -0.26539929138E+03  0.28267512206E+03 -0.77425406805E+02  0.40592703262E+03  0.91869764862E+02 0.  0.
          1    1    3    3  502    0 -0.26154580578E+02  0.96787050979E+02  0.80770697995E+01  0.10058346971E+03  0.00000000000E+00 0. -1.
         -1    1    3    3    0  502 -0.75219806713E+02  0.12946236773E+03  0.12397752246E+03  0.19439380149E+03  0.00000000000E+00 0.  1.
         11    1    5    5    0    0  0.27830594370E+03 -0.44183768893E+03 -0.14569791343E+03  0.54212786650E+03  0.00000000000E+00 0. -1.
        -11    1    5    5    0    0  0.88467734977E+02 -0.67086851837E+02 -0.45683336711E+02  0.12005895666E+03  0.00000000000E+00 0.  1.
          1    1    6    6  503    0 -0.21466073262E+03  0.26895231978E+03 -0.80041310588E+02  0.35330042718E+03  0.00000000000E+00 0. -1.
         -1    1    6    6    0  503 -0.50738558761E+02  0.13722802278E+02  0.26159037828E+01  0.52626605440E+02  0.00000000000E+00 0.  1.
<mgrwt>
<rscale>  0 0.13562140E+04</rscale>
<asrwt>0</asrwt>
<pdfrwt beam="1">  1        2 0.11537255E+00 0.13562140E+04</pdfrwt>
<pdfrwt beam="2">  1       -2 0.94333774E-01 0.13562140E+04</pdfrwt>
<totfact> 0.34705030E+01</totfact>
</mgrwt>
</event>
<event>
12    2  0.3555611E-008  0.1569602E+04  0.7818608E-02  0.8839443E-01
         -1   -1    0    0    0  501 -0.00000000000E+00  0.00000000000E+00  0.78597081678E+03  0.78597081678E+03  0.00000000000E+00 0.  1.
          1   -1    0    0  501    0  0.00000000000E+00 -0.00000000000E+00 -0.78363322700E+03  0.78363322700E+03  0.00000000000E+00 0. -1.
         23    2    1    2    0    0 -0.43819472445E+03  0.10985490814E+03 -0.25436962611E+03  0.52675935229E+03  0.93213685473E+02 0.  0.
        254    2    1    2    0    0  0.43819472445E+03 -0.10985490814E+03  0.25670721588E+03  0.10428446915E+04  0.90418125313E+03 0.  0.
         23    2    4    4    0    0  0.42906293044E+03 -0.46842083195E+03  0.15453212262E+03  0.65992810275E+03  0.90065808112E+02 0.  0.
         23    2    4    4    0    0  0.91317940057E+01  0.35856592380E+03  0.10217509326E+03  0.38291658874E+03  0.86789704898E+02 0.  0.
          1    1    3    3  502    0 -0.26751419418E+03  0.52261046588E+02 -0.20169199882E+03  0.33907922889E+03  0.00000000000E+00 0. -1.
         -1    1    3    3    0  502 -0.17068053027E+03  0.57593861557E+02 -0.52677627291E+02  0.18768012340E+03  0.00000000000E+00 0.  1.
         11    1    5    5    0    0  0.31152044281E+03 -0.37877437054E+03  0.14669860976E+03  0.51189402436E+03  0.00000000000E+00 0.  1.
        -11    1    5    5    0    0  0.11754248763E+03 -0.89646461406E+02  0.78335128669E+01  0.14803407839E+03  0.00000000000E+00 0. -1.
          4    1    6    6  503    0  0.32001284269E+02  0.56235889373E+02  0.67200990529E+01  0.65051650092E+02  0.00000000000E+00 0. -1.
         -4    1    6    6    0  503 -0.22869490264E+02  0.30233003443E+03  0.95454994206E+02  0.31786493865E+03  0.00000000000E+00 0.  1.
<mgrwt>
<rscale>  0 0.15696023E+04</rscale>
<asrwt>0</asrwt>
<pdfrwt beam="1">  1        1 0.12055896E+00 0.15696023E+04</pdfrwt>
<pdfrwt beam="2">  1       -1 0.12091859E+00 0.15696023E+04</pdfrwt>
<totfact> 0.13360454E+01</totfact>
</mgrwt>
</event>
<event>
12    2  0.3555611E-008  0.1522586E+04  0.7818608E-02  0.8869571E-01
         -1   -1    0    0    0  501 -0.00000000000E+00  0.00000000000E+00  0.43272048265E+03  0.43272048265E+03  0.00000000000E+00 0.  1.
          1   -1    0    0  501    0  0.00000000000E+00 -0.00000000000E+00 -0.13393561280E+04  0.13393561280E+04  0.00000000000E+00 0. -1.
         23    2    1    2    0    0 -0.35294919836E+03 -0.98142172968E+02  0.82354887561E+02  0.38674523910E+03  0.92652737257E+02 0.  0.
        254    2    1    2    0    0  0.35294919836E+03  0.98142172968E+02 -0.98899053288E+03  0.13853313715E+04  0.89824034204E+03 0.  0.
         23    2    4    4    0    0  0.12903775585E+03 -0.31242858341E+03 -0.79900286851E+03  0.87238377665E+03  0.91572417845E+02 0.  0.
         23    2    4    4    0    0  0.22391144251E+03  0.41057075638E+03 -0.18998766437E+03  0.51294759487E+03  0.91187950938E+02 0.  0.
          3    1    3    3  502    0 -0.10592165940E+02  0.34604390992E+01 -0.12996319007E+02  0.17119372821E+02  0.00000000000E+00 0. -1.
         -3    1    3    3    0  502 -0.34235703242E+03 -0.10160261207E+03  0.95351206568E+02  0.36962586628E+03  0.00000000000E+00 0.  1.
         11    1    5    5    0    0  0.43189928170E+02 -0.20678190213E+03 -0.53862356607E+03  0.57856673848E+03  0.00000000000E+00 0. -1.
        -11    1    5    5    0    0  0.85847827682E+02 -0.10564668128E+03 -0.26037930243E+03  0.29381703817E+03  0.00000000000E+00 0.  1.
          4    1    6    6  503    0  0.21715060754E+03  0.32966124194E+03 -0.16646339841E+03  0.42841683418E+03  0.00000000000E+00 0. -1.
         -4    1    6    6    0  503  0.67608349668E+01  0.80909514431E+02 -0.23524265961E+02  0.84530760697E+02  0.00000000000E+00 0.  1.
<mgrwt>
<rscale>  0 0.15225857E+04</rscale>
<asrwt>0</asrwt>
<pdfrwt beam="1">  1        1 0.20605479E+00 0.15225857E+04</pdfrwt>
<pdfrwt beam="2">  1       -1 0.66572381E-01 0.15225857E+04</pdfrwt>
<totfact> 0.18718968E+01</totfact>
</mgrwt>
</event>
<event>
12    2  0.3555611E-008  0.1125703E+04  0.7818608E-02  0.9180496E-01
          2   -1    0    0  501    0  0.00000000000E+00  0.00000000000E+00  0.91865736989E+03  0.91865736989E+03  0.00000000000E+00 0. -1.
         -2   -1    0    0    0  501 -0.00000000000E+00 -0.00000000000E+00 -0.34485285334E+03  0.34485285334E+03  0.00000000000E+00 0.  1.
         23    2    1    2    0    0 -0.15153708320E+03 -0.73100571859E+02  0.80356285217E+01  0.18736851271E+03  0.82068307144E+02 0.  0.
        254    2    1    2    0    0  0.15153708320E+03  0.73100571859E+02  0.56576888803E+03  0.10761417105E+04  0.89982185196E+03 0.  0.
         23    2    4    4    0    0  0.51821446242E+03  0.18213541438E+02  0.27584804668E+03  0.59618577138E+03  0.10231015095E+03 0.  0.
         23    2    4    4    0    0 -0.36667737922E+03  0.54887030421E+02  0.28992084135E+03  0.47995593914E+03  0.94014481480E+02 0.  0.
          4    1    3    3  502    0  0.61915516720E+01 -0.16876352565E+02 -0.68972156308E+01  0.19254042990E+02  0.00000000000E+00 0. -1.
         -4    1    3    3    0  502 -0.15772863487E+03 -0.56224219294E+02  0.14932844152E+02  0.16811446972E+03  0.00000000000E+00 0.  1.
         11    1    5    5    0    0  0.20638686593E+03  0.34915450020E+02  0.64193006617E+02  0.21894147432E+03  0.00000000000E+00 0.  1.
        -11    1    5    5    0    0  0.31182759649E+03 -0.16701908582E+02  0.21165504006E+03  0.37724429706E+03  0.00000000000E+00 0. -1.
          4    1    6    6  503    0 -0.34536994819E+02 -0.22788269534E+02  0.32769193883E+02  0.52781903217E+02  0.00000000000E+00 0. -1.
         -4    1    6    6    0  503 -0.33214038440E+03  0.77675299954E+02  0.25715164747E+03  0.42717403592E+03  0.00000000000E+00 0.  1.
<mgrwt>
<rscale>  0 0.11257027E+04</rscale>
<asrwt>0</asrwt>
<pdfrwt beam="1">  1        2 0.14133190E+00 0.11257027E+04</pdfrwt>
<pdfrwt beam="2">  1       -2 0.53054286E-01 0.11257027E+04</pdfrwt>
<totfact> 0.94601077E+01</totfact>
</mgrwt>
</event>
<event>
12    2  0.3555611E-008  0.2539047E+04  0.7818608E-02  0.8389205E-01
          1   -1    0    0  501    0  0.00000000000E+00  0.00000000000E+00  0.30260548745E+04  0.30260548745E+04  0.00000000000E+00 0. -1.
         -1   -1    0    0    0  501 -0.00000000000E+00 -0.00000000000E+00 -0.53260441924E+03  0.53260441924E+03  0.00000000000E+00 0.  1.
         23    2    1    2    0    0 -0.98252456435E+03  0.48124205144E+03  0.83014328161E+03  0.13754299880E+04  0.75639621139E+02 0.  0.
        254    2    1    2    0    0  0.98252456435E+03 -0.48124205144E+03  0.16633071737E+04  0.21832293057E+04  0.89607534052E+03 0.  0.
         23    2    4    4    0    0 -0.16285722226E+02 -0.43839484814E+02 -0.80306106483E+02  0.12470889535E+03  0.83163168907E+02 0.  0.
         23    2    4    4    0    0  0.99881028657E+03 -0.43740256662E+03  0.17436132802E+04  0.20585204104E+04  0.91520574045E+02 0.  0.
          3    1    3    3  502    0 -0.24779859081E+03  0.10340198341E+03  0.16891177691E+03  0.31721806405E+03  0.00000000000E+00 0. -1.
         -3    1    3    3    0  502 -0.73472597354E+03  0.37784006802E+03  0.66123150469E+03  0.10582119240E+04  0.00000000000E+00 0.  1.
         11    1    5    5    0    0 -0.21624610851E+02  0.21038257035E+02 -0.28660946782E+02  0.41613482478E+02  0.00000000000E+00 0. -1.
        -11    1    5    5    0    0  0.53388886249E+01 -0.64877741848E+02 -0.51645159701E+02  0.83095412868E+02  0.00000000000E+00 0.  1.
          2    1    6    6  503    0  0.84571974897E+03 -0.39473804880E+03  0.14438228924E+04  0.17192104483E+04  0.00000000000E+00 0.  1.
         -2    1    6    6    0  503  0.15309053760E+03 -0.42664517824E+02  0.29979038779E+03  0.33930996212E+03  0.00000000000E+00 0. -1.
<mgrwt>
<rscale>  0 0.25390472E+04</rscale>
<asrwt>0</asrwt>
<pdfrwt beam="1">  1        1 0.46554689E+00 0.25390472E+04</pdfrwt>
<pdfrwt beam="2">  1       -1 0.81939143E-01 0.25390472E+04</pdfrwt>
<totfact> 0.75056662E-01</totfact>
</mgrwt>
</event>
<event>
12    2  0.3555611E-008  0.3477619E+04  0.7818608E-02  0.8119115E-01
          2   -1    0    0  501    0  0.00000000000E+00  0.00000000000E+00  0.22615208949E+04  0.22615208949E+04  0.00000000000E+00 0. -1.
         -2   -1    0    0    0  501 -0.00000000000E+00 -0.00000000000E+00 -0.13369137342E+04  0.13369137342E+04  0.00000000000E+00 0.  1.
         23    2    1    2    0    0  0.61592468840E+03 -0.14083056426E+04 -0.10127376570E+03  0.15431803094E+04  0.91984166842E+02 0.  0.
        254    2    1    2    0    0 -0.61592468840E+03  0.14083056426E+04  0.10258809264E+04  0.20552543197E+04  0.89941683270E+03 0.  0.
         23    2    4    4    0    0 -0.23545608028E+03  0.55813077441E+03 -0.67831019948E+02  0.61611503447E+03  0.89705971647E+02 0.  0.
         23    2    4    4    0    0 -0.38046860812E+03  0.85017486814E+03  0.10937119464E+04  0.14391392853E+04  0.85804385348E+02 0.  0.
          2    1    3    3  502    0  0.14429971599E+03 -0.27643067663E+03 -0.50815181557E+02  0.31594067433E+03  0.00000000000E+00 0. -1.
         -2    1    3    3    0  502  0.47162497241E+03 -0.11318749659E+04 -0.50458584139E+02  0.12272396350E+04  0.00000000000E+00 0.  1.
         11    1    5    5    0    0 -0.81972594207E+02  0.30945505468E+03 -0.37573489500E+02  0.32232546313E+03  0.00000000000E+00 0. -1.
        -11    1    5    5    0    0 -0.15348348608E+03  0.24867571973E+03 -0.30257530448E+02  0.29378957135E+03  0.00000000000E+00 0.  1.
          3    1    6    6  503    0 -0.30483268853E+03  0.63077912935E+03  0.86748965964E+03  0.11150531770E+04  0.00000000000E+00 0. -1.
         -3    1    6    6    0  503 -0.75635919589E+02  0.21939573879E+03  0.22622228675E+03  0.32408610824E+03  0.00000000000E+00 0.  1.
<mgrwt>
<rscale>  0 0.34776189E+04</rscale>
<asrwt>0</asrwt>
<pdfrwt beam="1">  1        2 0.34792629E+00 0.34776189E+04</pdfrwt>
<pdfrwt beam="2">  1       -2 0.20567904E+00 0.34776189E+04</pdfrwt>
<totfact> 0.47921666E-01</totfact>
</mgrwt>
</event>
<event>
12    2  0.3555611E-008  0.1977039E+04  0.7818608E-02  0.8617432E-01
         -2   -1    0    0    0  501 -0.00000000000E+00  0.00000000000E+00  0.73283947549E+03  0.73283947549E+03  0.00000000000E+00 0.  1.
          2   -1    0    0  501    0  0.00000000000E+00 -0.00000000000E+00 -0.13334030780E+04  0.13334030780E+04  0.00000000000E+00 0. -1.
         23    2    1    2    0    0  0.26824506865E+03 -0.75367354171E+02  0.51432714537E+03  0.59247224816E+03  0.94102589973E+02 0.  0.
        254    2    1    2    0    0 -0.26824506865E+03  0.75367354171E+02 -0.11148907479E+04  0.14737703054E+04  0.92270357010E+03 0.  0.
         23    2    4    4    0    0  0.10760464229E+03  0.21288484686E+02 -0.10735076020E+04  0.10826620093E+04  0.87786651433E+02 0.  0.
         23    2    4    4    0    0 -0.37584971094E+03  0.54078869486E+02 -0.41383145947E+02  0.39110829612E+03  0.84057154270E+02 0.  0.
          3    1    3    3  502    0 -0.43847961217E+01 -0.13897151556E+02  0.27866657064E+02  0.31446905003E+02  0.00000000000E+00 0. -1.
         -3    1    3    3    0  502  0.27262986477E+03 -0.61470202616E+02  0.48646048831E+03  0.56102534315E+03  0.00000000000E+00 0.  1.
         11    1    5    5    0    0  0.61379193129E+02  0.51469484371E+02 -0.48496785167E+03  0.49153873736E+03  0.00000000000E+00 0. -1.
        -11    1    5    5    0    0  0.46225449163E+02 -0.30180999685E+02 -0.58853975031E+03  0.59112327190E+03  0.00000000000E+00 0.  1.
          2    1    6    6  503    0 -0.14781121528E+03 -0.10654868815E+02 -0.42099783282E+02  0.15405866851E+03  0.00000000000E+00 0. -1.
         -2    1    6    6    0  503 -0.22803849567E+03  0.64733738300E+02  0.71663733470E+00  0.23704962761E+03  0.00000000000E+00 0.  1.
<mgrwt>
<rscale>  0 0.19770386E+04</rscale>
<asrwt>0</asrwt>
<pdfrwt beam="1">  1        2 0.20513893E+00 0.19770386E+04</pdfrwt>
<pdfrwt beam="2">  1       -2 0.11274454E+00 0.19770386E+04</pdfrwt>
<totfact> 0.91070184E+00</totfact>
</mgrwt>
</event>
<event>
12    2  0.3555611E-008  0.1306777E+04  0.7818608E-02  0.9024208E-01
          2   -1    0    0  501    0  0.00000000000E+00  0.00000000000E+00  0.12884202522E+04  0.12884202522E+04  0.00000000000E+00 0. -1.
         -2   -1    0    0    0  501 -0.00000000000E+00 -0.00000000000E+00 -0.33134906269E+03  0.33134906269E+03  0.00000000000E+00 0.  1.
         23    2    1    2    0    0 -0.51403430576E+02  0.25233045397E+03 -0.14388468235E+02  0.27379797172E+03  0.91898479978E+02 0.  0.
        254    2    1    2    0    0  0.51403430576E+02 -0.25233045397E+03  0.97145965777E+03  0.13459713432E+04  0.89531671456E+03 0.  0.
         23    2    4    4    0    0  0.24874055521E+03  0.33032090323E+02  0.95049268246E+03  0.98736442521E+03  0.92136778612E+02 0.  0.
         23    2    4    4    0    0 -0.19733712463E+03 -0.28536254429E+03  0.20966975317E+02  0.35860691799E+03  0.88235962818E+02 0.  0.
          1    1    3    3  502    0 -0.94824670709E+01  0.18534660540E+02  0.25529697086E+02  0.32942620666E+02  0.00000000000E+00 0. -1.
         -1    1    3    3    0  502 -0.41920963506E+02  0.23379579343E+03 -0.39918165321E+02  0.24085535105E+03  0.00000000000E+00 0.  1.
         11    1    5    5    0    0  0.37832747671E+02 -0.28643872690E+02  0.15815726471E+03  0.16512270776E+03  0.00000000000E+00 0.  1.
        -11    1    5    5    0    0  0.21090780754E+03  0.61675963014E+02  0.79233541775E+03  0.82224171745E+03  0.00000000000E+00 0. -1.
          3    1    6    6  503    0 -0.15321323611E+03 -0.14966136880E+03  0.26453996587E+02  0.21580693910E+03  0.00000000000E+00 0. -1.
         -3    1    6    6    0  503 -0.44123888526E+02 -0.13570117549E+03 -0.54870212695E+01  0.14279997889E+03  0.00000000000E+00 0.  1.
<mgrwt>
<rscale>  0 0.13067775E+04</rscale>
<asrwt>0</asrwt>
<pdfrwt beam="1">  1        2 0.19821850E+00 0.13067775E+04</pdfrwt>
<pdfrwt beam="2">  1       -2 0.50976780E-01 0.13067775E+04</pdfrwt>
<totfact> 0.59821546E+01</totfact>
</mgrwt>
</event>
<event>
12    2  0.3555611E-008  0.1516575E+04  0.7818608E-02  0.8873505E-01
          1   -1    0    0  501    0  0.00000000000E+00  0.00000000000E+00  0.95148287507E+03  0.95148287507E+03  0.00000000000E+00 0. -1.
         -1   -1    0    0    0  501 -0.00000000000E+00 -0.00000000000E+00 -0.60431957559E+03  0.60431957559E+03  0.00000000000E+00 0.  1.
         23    2    1    2    0    0  0.38287819659E+03 -0.25948805473E+02 -0.18813938891E+03  0.43692545742E+03  0.90765476654E+02 0.  0.
        254    2    1    2    0    0 -0.38287819659E+03  0.25948805473E+02  0.53530268839E+03  0.11188769932E+04  0.90447095247E+03 0.  0.
         23    2    4    4    0    0  0.43825756964E+02 -0.35366977448E+03  0.64991489626E+02  0.37353251704E+03  0.91102366629E+02 0.  0.
         23    2    4    4    0    0 -0.42670395356E+03  0.37961857995E+03  0.47031119877E+03  0.74534447620E+03  0.90328479937E+02 0.  0.
          2    1    3    3  502    0  0.21334227324E+02 -0.53730086806E+00 -0.40092437420E+02  0.45418514794E+02  0.00000000000E+00 0. -1.
         -2    1    3    3    0  502  0.36154396927E+03 -0.25411504605E+02 -0.14804695149E+03  0.39150694263E+03  0.00000000000E+00 0.  1.
         11    1    5    5    0    0  0.98672085750E+01 -0.81322598208E+01  0.19562882111E+02  0.23370960856E+02  0.00000000000E+00 0. -1.
        -11    1    5    5    0    0  0.33958548389E+02 -0.34553751466E+03  0.45428607515E+02  0.35016155618E+03  0.00000000000E+00 0.  1.
          3    1    6    6  503    0 -0.14192677069E+03  0.73174899511E+02  0.12103578897E+03  0.20036825190E+03  0.00000000000E+00 0. -1.
         -3    1    6    6    0  503 -0.28477718286E+03  0.30644368044E+03  0.34927540979E+03  0.54497622430E+03  0.00000000000E+00 0.  1.
<mgrwt>
<rscale>  0 0.15165747E+04</rscale>
<asrwt>0</asrwt>
<pdfrwt beam="1">  1        1 0.14638198E+00 0.15165747E+04</pdfrwt>
<pdfrwt beam="2">  1       -1 0.92972242E-01 0.15165747E+04</pdfrwt>
<totfact> 0.17950601E+01</totfact>
</mgrwt>
</event>
<event>
12    2  0.3555611E-008  0.2416086E+04  0.7818608E-02  0.8433506E-01
          2   -1    0    0  501    0  0.00000000000E+00  0.00000000000E+00  0.14441807758E+04  0.14441807758E+04  0.00000000000E+00 0. -1.
         -2   -1    0    0    0  501 -0.00000000000E+00 -0.00000000000E+00 -0.10105161698E+04  0.10105161698E+04  0.00000000000E+00 0.  1.
         23    2    1    2    0    0 -0.29138713741E+03  0.22892377943E+03 -0.79758829788E+03  0.88415720943E+03  0.90963275162E+02 0.  0.
        254    2    1    2    0    0  0.29138713741E+03 -0.22892377943E+03  0.12312529039E+04  0.15705397361E+04  0.90183079830E+03 0.  0.
         23    2    4    4    0    0  0.70414689281E+02  0.92232317477E+02  0.11549274332E+04  0.11643695681E+04  0.91837281297E+02 0.  0.
         23    2    4    4    0    0  0.22097244813E+03 -0.32115609690E+03  0.76325470699E+02  0.40617016806E+03  0.84726421706E+02 0.  0.
          3    1    3    3  502    0  0.28550016015E+01  0.23281333042E+00  0.88680209697E+00  0.29986087025E+01  0.00000000000E+00 0. -1.
         -3    1    3    3    0  502 -0.29424213901E+03  0.22869096610E+03 -0.79847509998E+03  0.88115860072E+03  0.00000000000E+00 0.  1.
         11    1    5    5    0    0  0.21041785440E+02  0.12777657853E+02  0.52551917981E+02  0.58032140734E+02  0.00000000000E+00 0. -1.
        -11    1    5    5    0    0  0.49372903841E+02  0.79454659624E+02  0.11023755152E+04  0.11063374273E+04  0.00000000000E+00 0.  1.
          4    1    6    6  503    0  0.10324800165E+03 -0.10673873274E+03  0.62651963900E+02  0.16117870669E+03  0.00000000000E+00 0. -1.
         -4    1    6    6    0  503  0.11772444648E+03 -0.21441736417E+03  0.13673506799E+02  0.24499146137E+03  0.00000000000E+00 0.  1.
<mgrwt>
<rscale>  0 0.24160861E+04</rscale>
<asrwt>0</asrwt>
<pdfrwt beam="1">  1        2 0.22218166E+00 0.24160861E+04</pdfrwt>
<pdfrwt beam="2">  1       -2 0.15546403E+00 0.24160861E+04</pdfrwt>
<totfact> 0.33396876E+00</totfact>
</mgrwt>
</event>
<event>
12    2  0.3555611E-008  0.1182091E+04  0.7818608E-02  0.9128678E-01
          2   -1    0    0  501    0  0.00000000000E+00  0.00000000000E+00  0.33336365987E+04  0.33336365987E+04  0.00000000000E+00 0. -1.
         -2   -1    0    0    0  501 -0.00000000000E+00 -0.00000000000E+00 -0.10479093400E+03  0.10479093400E+03  0.00000000000E+00 0.  1.
         23    2    1    2    0    0  0.17980150165E+03 -0.68846232988E+02  0.28718164539E+03  0.35795152097E+03  0.92669359115E+02 0.  0.
        254    2    1    2    0    0 -0.17980150165E+03  0.68846232988E+02  0.29416640194E+04  0.30804760118E+04  0.89379912318E+03 0.  0.
         23    2    4    4    0    0 -0.16101844067E+03 -0.12539365065E+03  0.28278772020E+04  0.28367402055E+04  0.92493339451E+02 0.  0.
         23    2    4    4    0    0 -0.18783060986E+02  0.19423988364E+03  0.11378681734E+03  0.24373580630E+03  0.91530146387E+02 0.  0.
          1    1    3    3  502    0  0.18910805925E+03 -0.66819718704E+02  0.25520436405E+03  0.32458589050E+03  0.00000000000E+00 0. -1.
         -1    1    3    3    0  502 -0.93065575970E+01 -0.20265142847E+01  0.31977281344E+02  0.33365630469E+02  0.00000000000E+00 0.  1.
         11    1    5    5    0    0 -0.16847059171E+03 -0.10433897632E+03  0.23495656794E+04  0.23579075139E+04  0.00000000000E+00 0. -1.
        -11    1    5    5    0    0  0.74521510432E+01 -0.21054674326E+02  0.47831152256E+03  0.47883269154E+03  0.00000000000E+00 0.  1.
          2    1    6    6  503    0 -0.29026313905E+02  0.12428733633E+03  0.24691661124E+02  0.12999825768E+03  0.00000000000E+00 0. -1.
         -2    1    6    6    0  503  0.10243252919E+02  0.69952547310E+02  0.89095156218E+02  0.11373754862E+03  0.00000000000E+00 0.  1.
<mgrwt>
<rscale>  0 0.11820912E+04</rscale>
<asrwt>0</asrwt>
<pdfrwt beam="1">  1        2 0.51286709E+00 0.11820912E+04</pdfrwt>
<pdfrwt beam="2">  1       -2 0.16121685E-01 0.11820912E+04</pdfrwt>
<totfact> 0.33187762E+01</totfact>
</mgrwt>
</event>
<event>
12    2  0.3555611E-008  0.1292875E+04  0.7818608E-02  0.9035234E-01
         -2   -1    0    0    0  501 -0.00000000000E+00  0.00000000000E+00  0.48805728735E+03  0.48805728735E+03  0.00000000000E+00 0.  1.
          2   -1    0    0  501    0  0.00000000000E+00 -0.00000000000E+00 -0.85621430667E+03  0.85621430667E+03  0.00000000000E+00 0. -1.
         23    2    1    2    0    0  0.23982902269E+02 -0.20533476279E+03  0.15788519673E+03  0.27731664093E+03  0.96120963281E+02 0.  0.
        254    2    1    2    0    0 -0.23982902269E+02  0.20533476279E+03 -0.52604221605E+03  0.10669549531E+04  0.90495022760E+03 0.  0.
         23    2    4    4    0    0  0.28150975915E+03  0.19003571698E+02 -0.61919400559E+03  0.68667016740E+03  0.92227013451E+02 0.  0.
         23    2    4    4    0    0 -0.30549266142E+03  0.18633119109E+03  0.93151789538E+02  0.38028478568E+03  0.88849217048E+02 0.  0.
          4    1    3    3  502    0  0.29071452321E+02 -0.75736799432E+01  0.23866526554E+02  0.38368229797E+02  0.00000000000E+00 0. -1.
         -4    1    3    3    0  502 -0.50885500522E+01 -0.19776108284E+03  0.13401867017E+03  0.23894841113E+03  0.00000000000E+00 0.  1.
         11    1    5    5    0    0  0.10689699015E+03  0.24995447832E+02 -0.14907665337E+03  0.18513667247E+03  0.00000000000E+00 0.  1.
        -11    1    5    5    0    0  0.17461276901E+03 -0.59918761345E+01 -0.47011735222E+03  0.50153349493E+03  0.00000000000E+00 0. -1.
          4    1    6    6  503    0 -0.14074340509E+03  0.12017656972E+03  0.13092638137E+02  0.18553309990E+03  0.00000000000E+00 0. -1.
         -4    1    6    6    0  503 -0.16474925633E+03  0.66154621371E+02  0.80059151401E+02  0.19475168578E+03  0.00000000000E+00 0.  1.
<mgrwt>
<rscale>  0 0.12928753E+04</rscale>
<asrwt>0</asrwt>
<pdfrwt beam="1">  1        2 0.13172528E+00 0.12928753E+04</pdfrwt>
<pdfrwt beam="2">  1       -2 0.75085736E-01 0.12928753E+04</pdfrwt>
<totfact> 0.49100941E+01</totfact>
</mgrwt>
</event>
<event>
12    2  0.3555611E-008  0.2376653E+04  0.7818608E-02  0.8448297E-01
          2   -1    0    0  501    0  0.00000000000E+00  0.00000000000E+00  0.18916353687E+04  0.18916353687E+04  0.00000000000E+00 0. -1.
         -2   -1    0    0    0  501 -0.00000000000E+00 -0.00000000000E+00 -0.74650712890E+03  0.74650712890E+03  0.00000000000E+00 0.  1.
         23    2    1    2    0    0  0.66983866148E+03 -0.76405306333E+03  0.66608879056E+03  0.12186308703E+04  0.94477537433E+02 0.  0.
        254    2    1    2    0    0 -0.66983866148E+03  0.76405306333E+03  0.47903944924E+03  0.14195116273E+04  0.86779810451E+03 0.  0.
         23    2    4    4    0    0 -0.41516887172E+03  0.80360774057E+03  0.63086725266E+03  0.11064852548E+04  0.90363354465E+02 0.  0.
         23    2    4    4    0    0 -0.25466978976E+03 -0.39554677237E+02 -0.15182780341E+03  0.31302637255E+03  0.92263501518E+02 0.  0.
          4    1    3    3  502    0  0.63155367018E+03 -0.68046725849E+03  0.59973037598E+03  0.11052475976E+04  0.00000000000E+00 0. -1.
         -4    1    3    3    0  502  0.38284991294E+02 -0.83585804842E+02  0.66358414580E+02  0.11338327264E+03  0.00000000000E+00 0.  1.
         11    1    5    5    0    0 -0.41174492910E+03  0.75879045873E+03  0.58928475507E+03  0.10452527778E+04  0.00000000000E+00 0.  1.
        -11    1    5    5    0    0 -0.34239426227E+01  0.44817281835E+02  0.41582497586E+02  0.61232477001E+02  0.00000000000E+00 0. -1.
          3    1    6    6  503    0 -0.62402706313E+02 -0.66665369653E+01  0.46920382944E+01  0.62932946011E+02  0.00000000000E+00 0. -1.
         -3    1    6    6    0  503 -0.19226708345E+03 -0.32888140272E+02 -0.15651984171E+03  0.25009342654E+03  0.00000000000E+00 0.  1.
<mgrwt>
<rscale>  0 0.23766525E+04</rscale>
<asrwt>0</asrwt>
<pdfrwt beam="1">  1        2 0.29102082E+00 0.23766525E+04</pdfrwt>
<pdfrwt beam="2">  1       -2 0.11484725E+00 0.23766525E+04</pdfrwt>
<totfact> 0.40907313E+00</totfact>
</mgrwt>
</event>
<event>
12    2  0.3555611E-008  0.2360048E+04  0.7818608E-02  0.8454614E-01
          2   -1    0    0  501    0  0.00000000000E+00  0.00000000000E+00  0.36501355478E+04  0.36501355478E+04  0.00000000000E+00 0. -1.
         -2   -1    0    0    0  501 -0.00000000000E+00 -0.00000000000E+00 -0.38148071285E+03  0.38148071285E+03  0.00000000000E+00 0.  1.
         23    2    1    2    0    0 -0.21958628642E+03 -0.86928552642E+03  0.21815723699E+04  0.23603929827E+04  0.91222607674E+02 0.  0.
        254    2    1    2    0    0  0.21958628642E+03  0.86928552642E+03  0.10870824650E+04  0.16712232779E+04  0.89853408127E+03 0.  0.
         23    2    4    4    0    0 -0.20286789305E+03  0.24231179179E+03 -0.17534170372E+02  0.32942067609E+03  0.91324412018E+02 0.  0.
         23    2    4    4    0    0  0.42245417947E+03  0.62697373463E+03  0.11046166354E+04  0.13418026018E+04  0.93234721919E+02 0.  0.
          3    1    3    3  502    0 -0.13985184428E+03 -0.54107030853E+03  0.14725435265E+04  0.15750238266E+04  0.00000000000E+00 0. -1.
         -3    1    3    3    0  502 -0.79734442145E+02 -0.32821521788E+03  0.70902884342E+03  0.78536915607E+03  0.00000000000E+00 0.  1.
         11    1    5    5    0    0 -0.61867305212E+02  0.78634904765E+02 -0.48477668721E+02  0.11118046621E+03  0.00000000000E+00 0. -1.
        -11    1    5    5    0    0 -0.14100058784E+03  0.16367688702E+03  0.30943498349E+02  0.21824020988E+03  0.00000000000E+00 0.  1.
          4    1    6    6  503    0  0.68978084340E+02  0.17289458198E+03  0.28182514425E+03  0.33775127613E+03  0.00000000000E+00 0. -1.
         -4    1    6    6    0  503  0.35347609513E+03  0.45407915265E+03  0.82279149114E+03  0.10040513257E+04  0.00000000000E+00 0.  1.
<mgrwt>
<rscale>  0 0.23600477E+04</rscale>
<asrwt>0</asrwt>
<pdfrwt beam="1">  1        2 0.56155929E+00 0.23600477E+04</pdfrwt>
<pdfrwt beam="2">  1       -2 0.58689343E-01 0.23600477E+04</pdfrwt>
<totfact> 0.15592934E+00</totfact>
</mgrwt>
</event>
<event>
12    2  0.3555611E-008  0.1487376E+04  0.7818608E-02  0.8892892E-01
         -2   -1    0    0    0  501 -0.00000000000E+00  0.00000000000E+00  0.97490932539E+03  0.97490932539E+03  0.00000000000E+00 0.  1.
          2   -1    0    0  501    0  0.00000000000E+00 -0.00000000000E+00 -0.56730565217E+03  0.56730565217E+03  0.00000000000E+00 0. -1.
         23    2    1    2    0    0 -0.86324429950E+02 -0.24995995496E+01 -0.32435460294E+03  0.34767414498E+03  0.90626968564E+02 0.  0.
        254    2    1    2    0    0  0.86324429950E+02  0.24995995496E+01  0.73195827617E+03  0.11945408326E+04  0.94005676820E+03 0.  0.
         23    2    4    4    0    0 -0.81254385359E+01  0.31260146815E+03 -0.61854176840E+02  0.33141135553E+03  0.90674399577E+02 0.  0.
         23    2    4    4    0    0  0.94449868486E+02 -0.31010186860E+03  0.79381245301E+03  0.86312947705E+03  0.98845015216E+02 0.  0.
          2    1    3    3  502    0 -0.10322775476E+03 -0.12425290320E+02 -0.29060683360E+03  0.30864654368E+03  0.00000000000E+00 0. -1.
         -2    1    3    3    0  502  0.16903324815E+02  0.99256907704E+01 -0.33747769348E+02  0.39027601297E+02  0.00000000000E+00 0.  1.
         11    1    5    5    0    0 -0.24879767307E+02  0.19818565308E+03  0.11102978561E+01  0.19974430823E+03  0.00000000000E+00 0. -1.
        -11    1    5    5    0    0  0.16754328771E+02  0.11441581507E+03 -0.62964474696E+02  0.13166704730E+03  0.00000000000E+00 0.  1.
          3    1    6    6  503    0  0.23136203157E+02 -0.10997944843E+03  0.40213789441E+03  0.41754718188E+03  0.00000000000E+00 0. -1.
         -3    1    6    6    0  503  0.71313665330E+02 -0.20012242017E+03  0.39167455860E+03  0.44558229517E+03  0.00000000000E+00 0.  1.
<mgrwt>
<rscale>  0 0.14873756E+04</rscale>
<asrwt>0</asrwt>
<pdfrwt beam="1">  1        2 0.87277793E-01 0.14873756E+04</pdfrwt>
<pdfrwt beam="2">  1       -2 0.14998605E+00 0.14873756E+04</pdfrwt>
<totfact> 0.15365610E+01</totfact>
</mgrwt>
</event>
<event>
12    2  0.3555611E-008  0.1762892E+04  0.7818608E-02  0.8726286E-01
          2   -1    0    0  501    0  0.00000000000E+00  0.00000000000E+00  0.94202710342E+03  0.94202710342E+03  0.00000000000E+00 0. -1.
         -2   -1    0    0    0  501 -0.00000000000E+00 -0.00000000000E+00 -0.82476082475E+03  0.82476082475E+03  0.00000000000E+00 0.  1.
         23    2    1    2    0    0 -0.84804469685E+02  0.13912565341E+03  0.67251828532E+03  0.69786718176E+03  0.90498694899E+02 0.  0.
        254    2    1    2    0    0  0.84804469685E+02 -0.13912565341E+03 -0.55525200665E+03  0.10689207464E+04  0.89874302540E+03 0.  0.
         23    2    4    4    0    0  0.11033329370E+03 -0.48101669713E+03 -0.13645555489E+03  0.52001957208E+03  0.90828069862E+02 0.  0.
         23    2    4    4    0    0 -0.25528824017E+02  0.34189104372E+03 -0.41879645176E+03  0.54890117433E+03  0.91437544492E+02 0.  0.
          1    1    3    3  502    0 -0.87837740300E+02  0.11846525483E+03  0.65243372342E+03  0.66889404892E+03  0.00000000000E+00 0. -1.
         -1    1    3    3    0  502  0.30332706144E+01  0.20660398581E+02  0.20084561897E+02  0.28973132843E+02  0.00000000000E+00 0.  1.
         11    1    5    5    0    0  0.11548940021E+03 -0.47797893213E+03 -0.14203722919E+03  0.51183614135E+03  0.00000000000E+00 0.  1.
        -11    1    5    5    0    0 -0.51561065106E+01 -0.30377649989E+01  0.55816742982E+01  0.81834307297E+01  0.00000000000E+00 0. -1.
          2    1    6    6  503    0 -0.43380031977E+02  0.32429621800E+03 -0.36908130056E+03  0.49322496957E+03  0.00000000000E+00 0.  1.
         -2    1    6    6    0  503  0.17851207960E+02  0.17594825717E+02 -0.49715151197E+02  0.55676204757E+02  0.00000000000E+00 0. -1.
<mgrwt>
<rscale>  0 0.17628920E+04</rscale>
<asrwt>0</asrwt>
<pdfrwt beam="1">  1        2 0.14492725E+00 0.17628920E+04</pdfrwt>
<pdfrwt beam="2">  1       -2 0.12688628E+00 0.17628920E+04</pdfrwt>
<totfact> 0.12014731E+01</totfact>
</mgrwt>
</event>
<event>
12    2  0.3555611E-008  0.1613897E+04  0.7818608E-02  0.8812056E-01
         -2   -1    0    0    0  501 -0.00000000000E+00  0.00000000000E+00  0.37693884829E+03  0.37693884829E+03  0.00000000000E+00 0.  1.
          2   -1    0    0  501    0  0.00000000000E+00 -0.00000000000E+00 -0.17275106827E+04  0.17275106827E+04  0.00000000000E+00 0. -1.
         23    2    1    2    0    0  0.15663472652E+02  0.10105409972E+03 -0.11699946031E+04  0.11793669189E+04  0.10752526497E+03 0.  0.
        254    2    1    2    0    0 -0.15663472652E+02 -0.10105409972E+03 -0.18057723127E+03  0.92508261208E+03  0.90150564461E+03 0.  0.
         23    2    4    4    0    0 -0.35935592009E+03 -0.25456681958E+03  0.82346758475E+02  0.45695401363E+03  0.89916844932E+02 0.  0.
         23    2    4    4    0    0  0.34369244744E+03  0.15351271986E+03 -0.26292398974E+03  0.46812859845E+03  0.91239830738E+02 0.  0.
          1    1    3    3  502    0 -0.13129997874E+01  0.11027482687E+03 -0.67131374653E+03  0.68031199291E+03  0.00000000000E+00 0. -1.
         -1    1    3    3    0  502  0.16976472439E+02 -0.92207271477E+01 -0.49868085659E+03  0.49905492599E+03  0.00000000000E+00 0.  1.
         11    1    5    5    0    0 -0.28792398600E+03 -0.24304322706E+03  0.62618343163E+02  0.38195718194E+03  0.00000000000E+00 0. -1.
        -11    1    5    5    0    0 -0.71431934089E+02 -0.11523592520E+02  0.19728415312E+02  0.74996831686E+02  0.00000000000E+00 0.  1.
          4    1    6    6  503    0  0.24403376882E+03  0.15185929793E+03 -0.18825738117E+03  0.34359069873E+03  0.00000000000E+00 0. -1.
         -4    1    6    6    0  503  0.99658678626E+02  0.16534219325E+01 -0.74666608572E+02  0.12453789971E+03  0.00000000000E+00 0.  1.
<mgrwt>
<rscale>  0 0.16138970E+04</rscale>
<asrwt>0</asrwt>
<pdfrwt beam="1">  1        2 0.26577087E+00 0.16138970E+04</pdfrwt>
<pdfrwt beam="2">  1       -2 0.57990593E-01 0.16138970E+04</pdfrwt>
<totfact> 0.25235247E+01</totfact>
</mgrwt>
</event>
<event>
12    2  0.3555611E-008  0.2234488E+04  0.7818608E-02  0.8504209E-01
         -2   -1    0    0    0  501 -0.00000000000E+00  0.00000000000E+00  0.96903486718E+03  0.96903486718E+03  0.00000000000E+00 0. -1.
          2   -1    0    0  501    0  0.00000000000E+00 -0.00000000000E+00 -0.12881209225E+04  0.12881209225E+04  0.00000000000E+00 0.  1.
         23    2    1    2    0    0 -0.89296730783E+03 -0.21905032182E+03 -0.30444661403E+03  0.97314688454E+03  0.94622733771E+02 0.  0.
        254    2    1    2    0    0  0.89296730783E+03  0.21905032182E+03 -0.14639441240E+02  0.12840089051E+04  0.89615339020E+03 0.  0.
         23    2    4    4    0    0  0.58933969272E+03  0.55487100336E+03  0.50839766078E+02  0.81618342117E+03  0.91474539588E+02 0.  0.
         23    2    4    4    0    0  0.30362761511E+03 -0.33582068154E+03 -0.65479207318E+02  0.46782548392E+03  0.98019885776E+02 0.  0.
          2    1    3    3  502    0 -0.61606163306E+03 -0.15276917661E+03 -0.25563327422E+03  0.68426510063E+03  0.00000000000E+00 0. -1.
         -2    1    3    3    0  502 -0.27690567477E+03 -0.66281145206E+02 -0.48813339811E+02  0.28888178390E+03  0.00000000000E+00 0.  1.
         11    1    5    5    0    0  0.89880614641E+02  0.48290859422E+02 -0.80875357413E+01  0.10235204066E+03  0.00000000000E+00 0. -1.
        -11    1    5    5    0    0  0.49945907808E+03  0.50658014394E+03  0.58927301820E+02  0.71383138051E+03  0.00000000000E+00 0.  1.
          1    1    6    6  503    0  0.19120271902E+02  0.44008041494E+01 -0.47172386221E+01  0.20179301648E+02  0.00000000000E+00 0. -1.
         -1    1    6    6    0  503  0.28450734321E+03 -0.34022148569E+03 -0.60761968696E+02  0.44764618228E+03  0.00000000000E+00 0.  1.
<mgrwt>
<rscale>  0 0.22344879E+04</rscale>
<asrwt>0</asrwt>
<pdfrwt beam="1">  1        2 0.19817245E+00 0.22344879E+04</pdfrwt>
<pdfrwt beam="2">  1       -2 0.14908229E+00 0.22344879E+04</pdfrwt>
<totfact> 0.46632357E+00</totfact>
</mgrwt>
</event>
<event>
12    2  0.3555611E-008  0.1497706E+04  0.7818608E-02  0.8885980E-01
         -1   -1    0    0    0  501 -0.00000000000E+00  0.00000000000E+00  0.26273673675E+03  0.26273673675E+03  0.00000000000E+00 0.  1.
          1   -1    0    0  501    0  0.00000000000E+00 -0.00000000000E+00 -0.21343829098E+04  0.21343829098E+04  0.00000000000E+00 0. -1.
         23    2    1    2    0    0 -0.31368205181E+03  0.30481747244E+03 -0.31608025479E+03  0.54740828609E+03  0.91863937859E+02 0.  0.
        254    2    1    2    0    0  0.31368205181E+03 -0.30481747244E+03 -0.15555659183E+04  0.18497113605E+04  0.90018701936E+03 0.  0.
         23    2    4    4    0    0  0.15151122571E+03  0.22411747376E+03 -0.10722923274E+04  0.11094945958E+04  0.89348358083E+02 0.  0.
         23    2    4    4    0    0  0.16217082609E+03 -0.52893494621E+03 -0.48327359087E+03  0.74021676469E+03  0.91082056098E+02 0.  0.
          3    1    3    3  502    0 -0.23847289913E+03  0.21554733122E+03 -0.27693386449E+03  0.42429039692E+03  0.00000000000E+00 0.  1.
         -3    1    3    3    0  502 -0.75209152673E+02  0.89270141223E+02 -0.39146390298E+02  0.12311788917E+03  0.00000000000E+00 0. -1.
         11    1    5    5    0    0  0.88079191154E+02  0.12115519581E+03 -0.75967632713E+03  0.77430268460E+03  0.00000000000E+00 0. -1.
        -11    1    5    5    0    0  0.63432034557E+02  0.10296227795E+03 -0.31261600028E+03  0.33519191118E+03  0.00000000000E+00 0.  1.
          1    1    6    6  503    0  0.17271721737E+03 -0.51349167459E+03 -0.47072839136E+03  0.71769781627E+03  0.00000000000E+00 0. -1.
         -1    1    6    6    0  503 -0.10546391275E+02 -0.15443271618E+02 -0.12545199503E+02  0.22518948416E+02  0.00000000000E+00 0.  1.
<mgrwt>
<rscale>  0 0.14977060E+04</rscale>
<asrwt>0</asrwt>
<pdfrwt beam="1">  1        1 0.32836660E+00 0.14977060E+04</pdfrwt>
<pdfrwt beam="2">  1       -1 0.40421036E-01 0.14977060E+04</pdfrwt>
<totfact> 0.13974541E+01</totfact>
</mgrwt>
</event>
<event>
12    2  0.3555611E-008  0.2033304E+04  0.7818608E-02  0.8591206E-01
         -1   -1    0    0    0  501 -0.00000000000E+00  0.00000000000E+00  0.19027691444E+04  0.19027691444E+04  0.00000000000E+00 0.  1.
          1   -1    0    0  501    0  0.00000000000E+00 -0.00000000000E+00 -0.54319866232E+03  0.54319866232E+03  0.00000000000E+00 0. -1.
         23    2    1    2    0    0 -0.21242806630E+03  0.34983346575E+03 -0.29601179326E+03  0.51335650962E+03  0.91666717510E+02 0.  0.
        254    2    1    2    0    0  0.21242806630E+03 -0.34983346575E+03  0.16555822753E+04  0.19326112971E+04  0.90913399352E+03 0.  0.
         23    2    4    4    0    0 -0.20757831263E+03  0.19667029950E+03  0.44168505982E+03  0.53391428537E+03  0.90613517038E+02 0.  0.
         23    2    4    4    0    0  0.42000637893E+03 -0.54650376525E+03  0.12138972155E+04  0.13986970117E+04  0.87949741555E+02 0.  0.
          3    1    3    3  502    0 -0.15910498521E+03  0.17544429765E+03 -0.17537388485E+03  0.29470510240E+03  0.00000000000E+00 0. -1.
         -3    1    3    3    0  502 -0.53323081097E+02  0.17438916810E+03 -0.12063790842E+03  0.21865140721E+03  0.00000000000E+00 0.  1.
         11    1    5    5    0    0 -0.34834549146E+02  0.54476764940E+02  0.46006174456E+02  0.79358249859E+02  0.00000000000E+00 0.  1.
        -11    1    5    5    0    0 -0.17274376348E+03  0.14219353456E+03  0.39567888537E+03  0.45455603551E+03  0.00000000000E+00 0. -1.
          4    1    6    6  503    0  0.39110819616E+02 -0.67008249049E+02  0.90240609801E+02  0.11900894634E+03  0.00000000000E+00 0. -1.
         -4    1    6    6    0  503  0.38089555931E+03 -0.47949551620E+03  0.11236566057E+04  0.12796880654E+04  0.00000000000E+00 0.  1.
<mgrwt>
<rscale>  0 0.20333044E+04</rscale>
<asrwt>0</asrwt>
<pdfrwt beam="1">  1        1 0.83569026E-01 0.20333044E+04</pdfrwt>
<pdfrwt beam="2">  1       -1 0.29273371E+00 0.20333044E+04</pdfrwt>
<totfact> 0.13448383E+00</totfact>
</mgrwt>
</event>
<event>
12    2  0.3555611E-008  0.2296688E+04  0.7818608E-02  0.8479228E-01
          1   -1    0    0  501    0  0.00000000000E+00  0.00000000000E+00  0.16154352802E+04  0.16154352802E+04  0.00000000000E+00 0. -1.
         -1   -1    0    0    0  501 -0.00000000000E+00 -0.00000000000E+00 -0.81630893986E+03  0.81630893986E+03  0.00000000000E+00 0.  1.
         23    2    1    2    0    0  0.40947320647E+03 -0.55497154458E+03  0.11345374906E+04  0.13306919133E+04  0.88904041511E+02 0.  0.
        254    2    1    2    0    0 -0.40947320647E+03  0.55497154458E+03 -0.33541115020E+03  0.11010523068E+04  0.79003406282E+03 0.  0.
         23    2    4    4    0    0 -0.20631489009E+03  0.50442491016E+03  0.14314231700E+03  0.57079071207E+03  0.91115257795E+02 0.  0.
         23    2    4    4    0    0 -0.20315831638E+03  0.50546634420E+02 -0.47855346720E+03  0.53026159469E+03  0.91299912753E+02 0.  0.
          2    1    3    3  502    0  0.92303558059E+02 -0.97501128210E+02  0.28467583065E+03  0.31474870197E+03  0.00000000000E+00 0. -1.
         -2    1    3    3    0  502  0.31716964841E+03 -0.45747041637E+03  0.84986165991E+03  0.10159432114E+04  0.00000000000E+00 0.  1.
         11    1    5    5    0    0 -0.14483893796E+03  0.41833112950E+03  0.87498234484E+02  0.45125956267E+03  0.00000000000E+00 0.  1.
        -11    1    5    5    0    0 -0.61475952128E+02  0.86093780658E+02  0.55644082513E+02  0.11953114940E+03  0.00000000000E+00 0. -1.
          4    1    6    6  503    0 -0.43915736186E+02  0.27481024370E+02 -0.48000472427E+02  0.70624669475E+02  0.00000000000E+00 0. -1.
         -4    1    6    6    0  503 -0.15924258019E+03  0.23065610049E+02 -0.43055299477E+03  0.45963692521E+03  0.00000000000E+00 0.  1.
<mgrwt>
<rscale>  0 0.22966883E+04</rscale>
<asrwt>0</asrwt>
<pdfrwt beam="1">  1        1 0.24852850E+00 0.22966883E+04</pdfrwt>
<pdfrwt beam="2">  1       -1 0.12558599E+00 0.22966883E+04</pdfrwt>
<totfact> 0.27233151E+00</totfact>
</mgrwt>
</event>
<event>
12    2  0.3555611E-008  0.2586133E+04  0.7818608E-02  0.8372927E-01
         -2   -1    0    0    0  501 -0.00000000000E+00  0.00000000000E+00  0.17843457345E+04  0.17843457345E+04  0.00000000000E+00 0.  1.
          2   -1    0    0  501    0  0.00000000000E+00 -0.00000000000E+00 -0.93704978660E+03  0.93704978660E+03  0.00000000000E+00 0. -1.
         23    2    1    2    0    0  0.55632838583E+03 -0.68696181695E+03 -0.37461880448E+03  0.96436602949E+03  0.90800767250E+02 0.  0.
        254    2    1    2    0    0 -0.55632838583E+03  0.68696181695E+03  0.12219147524E+04  0.17570294916E+04  0.90147610146E+03 0.  0.
         23    2    4    4    0    0 -0.62246529624E+03  0.43303173595E+03  0.12658592749E+04  0.14785519214E+04  0.93469519203E+02 0.  0.
         23    2    4    4    0    0  0.66136910404E+02  0.25393008100E+03 -0.43944522512E+02  0.27847757023E+03  0.82243900154E+02 0.  0.
          1    1    3    3  502    0  0.14473636134E+03 -0.16732263194E+03 -0.13672114704E+03  0.26007335408E+03  0.00000000000E+00 0. -1.
         -1    1    3    3    0  502  0.41159202449E+03 -0.51963918501E+03 -0.23789765744E+03  0.70429267541E+03  0.00000000000E+00 0.  1.
         11    1    5    5    0    0 -0.60846041720E+03  0.43710287488E+03  0.12463987519E+04  0.14542327362E+04  0.00000000000E+00 0.  1.
        -11    1    5    5    0    0 -0.14004879037E+02 -0.40711389249E+01  0.19460523055E+02  0.24319185154E+02  0.00000000000E+00 0. -1.
          2    1    6    6  503    0  0.61390096860E+02  0.81605104442E+02 -0.24316111560E+02  0.10497337922E+03  0.00000000000E+00 0.  1.
         -2    1    6    6    0  503  0.47468135441E+01  0.17232497655E+03 -0.19628410953E+02  0.17350419101E+03  0.00000000000E+00 0. -1.
<mgrwt>
<rscale>  0 0.25861329E+04</rscale>
<asrwt>0</asrwt>
<pdfrwt beam="1">  1        2 0.14416151E+00 0.25861329E+04</pdfrwt>
<pdfrwt beam="2">  1       -2 0.27451473E+00 0.25861329E+04</pdfrwt>
<totfact> 0.11153988E+00</totfact>
</mgrwt>
</event>
<event>
12    2  0.3555611E-008  0.2182882E+04  0.7818608E-02  0.8525587E-01
          2   -1    0    0  501    0  0.00000000000E+00  0.00000000000E+00  0.26340102292E+04  0.26340102292E+04  0.00000000000E+00 0. -1.
         -2   -1    0    0    0  501 -0.00000000000E+00 -0.00000000000E+00 -0.45225467305E+03  0.45225467305E+03  0.00000000000E+00 0.  1.
         23    2    1    2    0    0  0.65699637037E+03 -0.61991318310E+03  0.98308048866E+03  0.13380427898E+04  0.89301035003E+02 0.  0.
        254    2    1    2    0    0 -0.65699637037E+03  0.61991318310E+03  0.11986750674E+04  0.17482221124E+04  0.89639391551E+03 0.  0.
         23    2    4    4    0    0 -0.65737514116E+03  0.26052193548E+03  0.11778082242E+04  0.13766731140E+04  0.89347047788E+02 0.  0.
         23    2    4    4    0    0  0.37877079446E+00  0.35939124762E+03  0.20866843285E+02  0.37154899837E+03  0.91929433315E+02 0.  0.
          4    1    3    3  502    0  0.14159297037E+03 -0.13687145751E+03  0.27135715033E+03  0.33528654637E+03  0.00000000000E+00 0. -1.
         -4    1    3    3    0  502  0.51540340000E+03 -0.48304172559E+03  0.71172333833E+03  0.10027562434E+04  0.00000000000E+00 0.  1.
         11    1    5    5    0    0 -0.38147331773E+03  0.15079844980E+03  0.76695111618E+03  0.86975633324E+03  0.00000000000E+00 0. -1.
        -11    1    5    5    0    0 -0.27590182343E+03  0.10972348568E+03  0.41085710799E+03  0.50691678081E+03  0.00000000000E+00 0.  1.
          3    1    6    6  503    0  0.12153781242E+02  0.20948837255E+03 -0.31781393419E+02  0.21223371457E+03  0.00000000000E+00 0. -1.
         -3    1    6    6    0  503 -0.11775010448E+02  0.14990287507E+03  0.52648236704E+02  0.15931528380E+03  0.00000000000E+00 0.  1.
<mgrwt>
<rscale>  0 0.21828820E+04</rscale>
<asrwt>0</asrwt>
<pdfrwt beam="1">  1        2 0.40523233E+00 0.21828820E+04</pdfrwt>
<pdfrwt beam="2">  1       -2 0.69577644E-01 0.21828820E+04</pdfrwt>
<totfact> 0.50122407E+00</totfact>
</mgrwt>
</event>
<event>
12    2  0.3555611E-008  0.2756051E+04  0.7818608E-02  0.8317044E-01
         -2   -1    0    0    0  501 -0.00000000000E+00  0.00000000000E+00  0.90686892404E+03  0.90686892404E+03  0.00000000000E+00 0.  1.
          2   -1    0    0  501    0  0.00000000000E+00 -0.00000000000E+00 -0.20939684426E+04  0.20939684426E+04  0.00000000000E+00 0. -1.
         23    2    1    2    0    0 -0.93883159581E+02 -0.12273485566E+04 -0.46110069428E+03  0.13174439647E+04  0.88578908439E+02 0.  0.
        254    2    1    2    0    0  0.93883159581E+02  0.12273485566E+04 -0.72599882427E+03  0.16833934019E+04  0.88968563310E+03 0.  0.
         23    2    4    4    0    0 -0.19240809190E+03  0.40070524439E+03 -0.66059139464E+03  0.80141275032E+03  0.91081496457E+02 0.  0.
         23    2    4    4    0    0  0.28629125148E+03  0.82664331217E+03 -0.65407429626E+02  0.88198065157E+03  0.91158607187E+02 0.  0.
          1    1    3    3  502    0  0.52047906295E+01 -0.21490662931E+02  0.13555709242E+01  0.22153464994E+02  0.00000000000E+00 0. -1.
         -1    1    3    3    0  502 -0.99087950210E+02 -0.12058578936E+04 -0.46245626521E+03  0.12952904997E+04  0.00000000000E+00 0.  1.
         11    1    5    5    0    0 -0.98084605427E+02  0.10915092396E+03 -0.23287183708E+03  0.27525225981E+03  0.00000000000E+00 0. -1.
        -11    1    5    5    0    0 -0.94323486474E+02  0.29155432043E+03 -0.42771955756E+03  0.52616049051E+03  0.00000000000E+00 0.  1.
          1    1    6    6  503    0  0.14951735404E+03  0.47680678754E+03 -0.80055043211E+02  0.50607209145E+03  0.00000000000E+00 0. -1.
         -1    1    6    6    0  503  0.13677389744E+03  0.34983652463E+03  0.14647613585E+02  0.37590856012E+03  0.00000000000E+00 0.  1.
<mgrwt>
<rscale>  0 0.27560515E+04</rscale>
<asrwt>0</asrwt>
<pdfrwt beam="1">  1        2 0.32214899E+00 0.27560515E+04</pdfrwt>
<pdfrwt beam="2">  1       -2 0.13951830E+00 0.27560515E+04</pdfrwt>
<totfact> 0.18740761E+00</totfact>
</mgrwt>
</event>
<event>
12    2  0.3555611E-008  0.1412012E+04  0.7818608E-02  0.8945169E-01
          1   -1    0    0  501    0  0.00000000000E+00  0.00000000000E+00  0.13095921369E+04  0.13095921369E+04  0.00000000000E+00 0. -1.
         -1   -1    0    0    0  501 -0.00000000000E+00 -0.00000000000E+00 -0.38061070978E+03  0.38061070978E+03  0.00000000000E+00 0.  1.
         23    2    1    2    0    0 -0.32175666391E+03 -0.15881934976E+03  0.50001307385E+03  0.62317883449E+03  0.97917562828E+02 0.  0.
        254    2    1    2    0    0  0.32175666391E+03  0.15881934976E+03  0.42896835328E+03  0.10670240122E+04  0.90872188148E+03 0.  0.
         23    2    4    4    0    0 -0.12190932617E+03 -0.26278189959E+03 -0.17726516509E+02  0.30393532310E+03  0.90256527105E+02 0.  0.
         23    2    4    4    0    0  0.44366599008E+03  0.42160124934E+03  0.44669486979E+03  0.76308868910E+03  0.90448419246E+02 0.  0.
          3    1    3    3  502    0 -0.17685223342E+03 -0.12021348276E+03  0.35587111609E+03  0.41517736591E+03  0.00000000000E+00 0. -1.
         -3    1    3    3    0  502 -0.14490443049E+03 -0.38605866997E+02  0.14414195776E+03  0.20800146858E+03  0.00000000000E+00 0.  1.
         11    1    5    5    0    0 -0.18071757012E+02 -0.12057303496E+01 -0.13295094152E+02  0.22467792853E+02  0.00000000000E+00 0.  1.
        -11    1    5    5    0    0 -0.10383756916E+03 -0.26157616924E+03 -0.44314223566E+01  0.28146753025E+03  0.00000000000E+00 0. -1.
          3    1    6    6  503    0  0.40774293024E+03  0.40499282061E+03  0.43797767966E+03  0.72256344343E+03  0.00000000000E+00 0. -1.
         -3    1    6    6    0  503  0.35923059833E+02  0.16608428737E+02  0.87171901279E+01  0.40525245670E+02  0.00000000000E+00 0.  1.
<mgrwt>
<rscale>  0 0.14120125E+04</rscale>
<asrwt>0</asrwt>
<pdfrwt beam="1">  1        1 0.20147571E+00 0.14120125E+04</pdfrwt>
<pdfrwt beam="2">  1       -1 0.58555494E-01 0.14120125E+04</pdfrwt>
<totfact> 0.25633814E+01</totfact>
</mgrwt>
</event>
<event>
12    2  0.3555611E-008  0.2086887E+04  0.7818608E-02  0.8567042E-01
         -1   -1    0    0    0  501 -0.00000000000E+00  0.00000000000E+00  0.31505712887E+03  0.31505712887E+03  0.00000000000E+00 0.  1.
          1   -1    0    0  501    0  0.00000000000E+00 -0.00000000000E+00 -0.34558011396E+04  0.34558011396E+04  0.00000000000E+00 0. -1.
         23    2    1    2    0    0 -0.75386576521E+02 -0.24340043103E+03 -0.27424672736E+04  0.27557746170E+04  0.90774924516E+02 0.  0.
        254    2    1    2    0    0  0.75386576521E+02  0.24340043103E+03 -0.39827673708E+03  0.10150836515E+04  0.89824470744E+03 0.  0.
         23    2    4    4    0    0  0.65599471728E+01  0.40888737799E+03  0.13880324996E+03  0.44160958589E+03  0.92307981045E+02 0.  0.
         23    2    4    4    0    0  0.68826629348E+02 -0.16548694696E+03 -0.53707998704E+03  0.57347406558E+03  0.91074457971E+02 0.  0.
          2    1    3    3  502    0 -0.21305135288E+02 -0.13832983949E+03 -0.10662065510E+04  0.10753536454E+04  0.00000000000E+00 0.  1.
         -2    1    3    3    0  502 -0.54081441232E+02 -0.10507059154E+03 -0.16762607226E+04  0.16804209716E+04  0.00000000000E+00 0. -1.
         11    1    5    5    0    0 -0.28458115006E+02  0.25002390791E+03  0.11689438524E+03  0.27746372040E+03  0.00000000000E+00 0.  1.
        -11    1    5    5    0    0  0.35018062179E+02  0.15886347008E+03  0.21908864715E+02  0.16414586549E+03  0.00000000000E+00 0. -1.
          1    1    6    6  503    0 -0.17464988243E+02 -0.21404213573E+02 -0.13377533393E+03  0.13659797268E+03  0.00000000000E+00 0. -1.
         -1    1    6    6    0  503  0.86291617591E+02 -0.14408273339E+03 -0.40330465312E+03  0.43687609291E+03  0.00000000000E+00 0.  1.
<mgrwt>
<rscale>  0 0.20868874E+04</rscale>
<asrwt>0</asrwt>
<pdfrwt beam="1">  1        1 0.53166170E+00 0.20868874E+04</pdfrwt>
<pdfrwt beam="2">  1       -1 0.48470329E-01 0.20868874E+04</pdfrwt>
<totfact> 0.10649287E+00</totfact>
</mgrwt>
</event>
<event>
12    2  0.3555611E-008  0.2039606E+04  0.7818608E-02  0.8588324E-01
          1   -1    0    0  501    0  0.00000000000E+00  0.00000000000E+00  0.17888431358E+04  0.17888431358E+04  0.00000000000E+00 0. -1.
         -1   -1    0    0    0  501 -0.00000000000E+00 -0.00000000000E+00 -0.58138017567E+03  0.58138017567E+03  0.00000000000E+00 0.  1.
         23    2    1    2    0    0  0.60269725981E+02 -0.69322936437E+02 -0.43861232109E+03  0.45756382064E+03  0.92443346753E+02 0.  0.
        254    2    1    2    0    0 -0.60269725981E+02  0.69322936437E+02  0.16460752812E+04  0.19126594908E+04  0.96967230910E+03 0.  0.
         23    2    4    4    0    0 -0.21214222030E+03  0.23303253063E+02 -0.21605299227E+02  0.23494118311E+03  0.95829052642E+02 0.  0.
         23    2    4    4    0    0  0.15187249432E+03  0.46019683375E+02  0.16676805804E+04  0.16777183077E+04  0.91635887543E+02 0.  0.
          4    1    3    3  502    0 -0.12062927719E+01  0.18332361782E+02 -0.30181630635E+02  0.35333574098E+02  0.00000000000E+00 0. -1.
         -4    1    3    3    0  502  0.61476018753E+02 -0.87655298219E+02 -0.40843069045E+03  0.42223024654E+03  0.00000000000E+00 0.  1.
         11    1    5    5    0    0 -0.14352981880E+03 -0.65365058265E+01 -0.53890264698E+02  0.15345258363E+03  0.00000000000E+00 0. -1.
        -11    1    5    5    0    0 -0.68612401496E+02  0.29839758889E+02  0.32284965471E+02  0.81488599480E+02  0.00000000000E+00 0.  1.
          4    1    6    6  503    0  0.10976982008E+03  0.43723237199E+02  0.15060645200E+04  0.15106923820E+04  0.00000000000E+00 0. -1.
         -4    1    6    6    0  503  0.42102674241E+02  0.22964461756E+01  0.16161606046E+03  0.16702592566E+03  0.00000000000E+00 0.  1.
<mgrwt>
<rscale>  0 0.20396058E+04</rscale>
<asrwt>0</asrwt>
<pdfrwt beam="1">  1        1 0.27520663E+00 0.20396058E+04</pdfrwt>
<pdfrwt beam="2">  1       -1 0.89443105E-01 0.20396058E+04</pdfrwt>
<totfact> 0.46931396E+00</totfact>
</mgrwt>
</event>
<event>
12    2  0.3555611E-008  0.1368599E+04  0.7818608E-02  0.8976867E-01
          3   -1    0    0  501    0  0.00000000000E+00  0.00000000000E+00  0.24696142758E+03  0.24696142758E+03  0.00000000000E+00 0. -1.
         -3   -1    0    0    0  501 -0.00000000000E+00 -0.00000000000E+00 -0.18961101523E+04  0.18961101523E+04  0.00000000000E+00 0.  1.
         23    2    1    2    0    0 -0.35881915471E+03  0.23182164809E+01 -0.29936857362E+03  0.47616917914E+03  0.91427481519E+02 0.  0.
        254    2    1    2    0    0  0.35881915471E+03 -0.23182164809E+01 -0.13497801511E+04  0.16669024007E+04  0.90989043151E+03 0.  0.
         23    2    4    4    0    0 -0.88315795162E+02 -0.33375449801E+03 -0.81457956445E+03  0.88940627764E+03  0.91169705886E+02 0.  0.
         23    2    4    4    0    0  0.44713494987E+03  0.33143628153E+03 -0.53520058666E+03  0.77749612310E+03  0.90999348143E+02 0.  0.
          4    1    3    3  502    0 -0.35993083948E+03  0.48512883974E+01 -0.27851026999E+03  0.45512823984E+03  0.00000000000E+00 0. -1.
         -4    1    3    3    0  502  0.11116847712E+01 -0.25330719165E+01 -0.20858303629E+02  0.21040939300E+02  0.00000000000E+00 0.  1.
         11    1    5    5    0    0 -0.42827410969E+02 -0.36625364049E+02 -0.13766631428E+03  0.14875354957E+03  0.00000000000E+00 0. -1.
        -11    1    5    5    0    0 -0.45488384193E+02 -0.29712913396E+03 -0.67691325017E+03  0.74065272807E+03  0.00000000000E+00 0.  1.
          1    1    6    6  503    0  0.43088618912E+03  0.29064147752E+03 -0.50018955777E+03  0.72133554614E+03  0.00000000000E+00 0. -1.
         -1    1    6    6    0  503  0.16248760758E+02  0.40794804011E+02 -0.35011028891E+02  0.56160576960E+02  0.00000000000E+00 0.  1.
<mgrwt>
<rscale>  0 0.13685994E+04</rscale>
<asrwt>0</asrwt>
<pdfrwt beam="1">  1        3 0.37994065E-01 0.13685994E+04</pdfrwt>
<pdfrwt beam="2">  1       -3 0.29170926E+00 0.13685994E+04</pdfrwt>
<totfact> 0.74794198E-01</totfact>
</mgrwt>
</event>
<event>
12    2  0.3555611E-008  0.1967144E+04  0.7818608E-02  0.8622138E-01
          2   -1    0    0  501    0  0.00000000000E+00  0.00000000000E+00  0.17485334328E+04  0.17485334328E+04  0.00000000000E+00 0. -1.
         -2   -1    0    0    0  501 -0.00000000000E+00 -0.00000000000E+00 -0.55327164694E+03  0.55327164694E+03  0.00000000000E+00 0.  1.
         23    2    1    2    0    0  0.20094369129E+03  0.30664228268E+03 -0.33749505254E+03  0.50663168872E+03  0.91459832299E+02 0.  0.
        254    2    1    2    0    0 -0.20094369129E+03 -0.30664228268E+03  0.15327568385E+04  0.17951733911E+04  0.85959067095E+03 0.  0.
         23    2    4    4    0    0 -0.15390722997E+03 -0.55824003603E+03  0.66830072982E+03  0.88883878976E+03  0.89939732298E+02 0.  0.
         23    2    4    4    0    0 -0.47036461322E+02  0.25159775335E+03  0.86445610863E+03  0.90633460131E+03  0.92974123236E+02 0.  0.
          3    1    3    3  502    0  0.51543333930E+02  0.23462672717E+02 -0.64881024420E+02  0.86120610851E+02  0.00000000000E+00 0. -1.
         -3    1    3    3    0  502  0.14940035736E+03  0.28317960996E+03 -0.27261402812E+03  0.42051107786E+03  0.00000000000E+00 0.  1.
         11    1    5    5    0    0 -0.12458662626E+03 -0.35636490501E+03  0.48485179568E+03  0.61449087604E+03  0.00000000000E+00 0. -1.
        -11    1    5    5    0    0 -0.29320603714E+02 -0.20187513102E+03  0.18344893414E+03  0.27434791372E+03  0.00000000000E+00 0.  1.
          3    1    6    6  503    0 -0.60971249547E+01  0.89020021982E+02  0.17076757861E+03  0.19267409050E+03  0.00000000000E+00 0. -1.
         -3    1    6    6    0  503 -0.40939336368E+02  0.16257773137E+03  0.69368853002E+03  0.71366051081E+03  0.00000000000E+00 0.  1.
<mgrwt>
<rscale>  0 0.19671441E+04</rscale>
<asrwt>0</asrwt>
<pdfrwt beam="1">  1        2 0.26900514E+00 0.19671441E+04</pdfrwt>
<pdfrwt beam="2">  1       -2 0.85118716E-01 0.19671441E+04</pdfrwt>
<totfact> 0.10310639E+01</totfact>
</mgrwt>
</event>
<event>
12    2  0.3555611E-008  0.2479366E+04  0.7818608E-02  0.8410374E-01
         -1   -1    0    0    0  501 -0.00000000000E+00  0.00000000000E+00  0.14624720300E+04  0.14624720300E+04  0.00000000000E+00 0.  1.
          1   -1    0    0  501    0  0.00000000000E+00 -0.00000000000E+00 -0.10508331906E+04  0.10508331906E+04  0.00000000000E+00 0. -1.
         23    2    1    2    0    0 -0.90276536602E+03 -0.53811529133E+03 -0.43715517248E+02  0.10555727393E+04  0.88144136155E+02 0.  0.
        254    2    1    2    0    0  0.90276536602E+03  0.53811529133E+03  0.45535435665E+03  0.14577324813E+04  0.90171116440E+03 0.  0.
         23    2    4    4    0    0  0.70768813195E+03  0.11235788917E+03 -0.95237609009E+02  0.72886549113E+03  0.93423308818E+02 0.  0.
         23    2    4    4    0    0  0.19507723408E+03  0.42575740216E+03  0.55059196566E+03  0.72886699015E+03  0.93654065238E+02 0.  0.
          4    1    3    3  502    0 -0.95531100855E+02 -0.29468917426E+02 -0.14363743940E+02  0.10099963101E+03  0.00000000000E+00 0. -1.
         -4    1    3    3    0  502 -0.80723426517E+03 -0.50864637390E+03 -0.29351773308E+02  0.95457310833E+03  0.00000000000E+00 0.  1.
         11    1    5    5    0    0  0.25903069396E+03  0.72268561274E+02 -0.23006409490E+01  0.26893296248E+03  0.00000000000E+00 0. -1.
        -11    1    5    5    0    0  0.44865743799E+03  0.40089327895E+02 -0.92936968060E+02  0.45993252864E+03  0.00000000000E+00 0.  1.
          2    1    6    6  503    0  0.22097421637E+02  0.10940528290E+02  0.12112675084E+02  0.27471951149E+02  0.00000000000E+00 0. -1.
         -2    1    6    6    0  503  0.17297981244E+03  0.41481687387E+03  0.53847929058E+03  0.70139503900E+03  0.00000000000E+00 0.  1.
<mgrwt>
<rscale>  0 0.24793662E+04</rscale>
<asrwt>0</asrwt>
<pdfrwt beam="1">  1        1 0.16166664E+00 0.24793662E+04</pdfrwt>
<pdfrwt beam="2">  1       -1 0.22499570E+00 0.24793662E+04</pdfrwt>
<totfact> 0.12532726E+00</totfact>
</mgrwt>
</event>
<event>
12    2  0.3555611E-008  0.4518421E+04  0.7818608E-02  0.7907420E-01
          2   -1    0    0  501    0  0.00000000000E+00  0.00000000000E+00  0.27491082015E+04  0.27491082015E+04  0.00000000000E+00 0. -1.
         -2   -1    0    0    0  501 -0.00000000000E+00 -0.00000000000E+00 -0.18566135345E+04  0.18566135345E+04  0.00000000000E+00 0.  1.
         23    2    1    2    0    0  0.20274129351E+03  0.19524660987E+04 -0.50950954833E+03  0.20301967422E+04  0.94185633830E+02 0.  0.
        254    2    1    2    0    0 -0.20274129351E+03 -0.19524660987E+04  0.14020042153E+04  0.25755249938E+04  0.90248837957E+03 0.  0.
         23    2    4    4    0    0  0.12605150896E+03 -0.11988535822E+04  0.39407631738E+03  0.12715212763E+04  0.91276052905E+02 0.  0.
         23    2    4    4    0    0 -0.32879280247E+03 -0.75361251654E+03  0.10079278979E+04  0.13040037175E+04  0.92035404819E+02 0.  0.
          1    1    3    3  502    0  0.15511020963E+03  0.12862441270E+04 -0.29560969483E+03  0.13288597455E+04  0.00000000000E+00 0. -1.
         -1    1    3    3    0  502  0.47631083876E+02  0.66622197171E+03 -0.21389985350E+03  0.70133699679E+03  0.00000000000E+00 0.  1.
         11    1    5    5    0    0  0.13740205242E+03 -0.11674791008E+04  0.38228904010E+03  0.12361357874E+04  0.00000000000E+00 0.  1.
        -11    1    5    5    0    0 -0.11350543459E+02 -0.31374481432E+02  0.11787277281E+02  0.35385488941E+02  0.00000000000E+00 0. -1.
          3    1    6    6  503    0 -0.18803738845E+03 -0.49624725115E+03  0.59196729640E+03  0.79501237333E+03  0.00000000000E+00 0. -1.
         -3    1    6    6    0  503 -0.14075541402E+03 -0.25736526539E+03  0.41596060150E+03  0.50899134414E+03  0.00000000000E+00 0.  1.
<mgrwt>
<rscale>  0 0.45184207E+04</rscale>
<asrwt>0</asrwt>
<pdfrwt beam="1">  1        2 0.42293972E+00 0.45184207E+04</pdfrwt>
<pdfrwt beam="2">  1       -2 0.28563285E+00 0.45184207E+04</pdfrwt>
<totfact> 0.73044106E-02</totfact>
</mgrwt>
</event>
<event>
12    2  0.3555611E-008  0.2112107E+04  0.7818608E-02  0.8555929E-01
          1   -1    0    0  501    0  0.00000000000E+00  0.00000000000E+00  0.16834805815E+04  0.16834805815E+04  0.00000000000E+00 0. -1.
         -1   -1    0    0    0  501 -0.00000000000E+00 -0.00000000000E+00 -0.66246623402E+03  0.66246623402E+03  0.00000000000E+00 0.  1.
         23    2    1    2    0    0  0.45401317542E+02 -0.19414659039E+02 -0.53592247749E+03  0.54524288080E+03  0.87399591370E+02 0.  0.
        254    2    1    2    0    0 -0.45401317542E+02  0.19414659039E+02  0.15569368250E+04  0.18007039348E+04  0.90335163417E+03 0.  0.
         23    2    4    4    0    0  0.36678706379E+03  0.19132933808E+03  0.96342684879E+03  0.10524842702E+04  0.91608843778E+02 0.  0.
         23    2    4    4    0    0 -0.41218838133E+03 -0.17191467904E+03  0.59350997623E+03  0.74821966458E+03  0.90136873680E+02 0.  0.
          4    1    3    3  502    0 -0.11973764884E+02  0.17214187611E+01 -0.33510220591E+03  0.33532047766E+03  0.00000000000E+00 0.  1.
         -4    1    3    3    0  502  0.57375082426E+02 -0.21136077800E+02 -0.20082027157E+03  0.20992240315E+03  0.00000000000E+00 0. -1.
         11    1    5    5    0    0  0.21608270828E+03  0.16165615136E+03  0.63133347055E+03  0.68659041585E+03  0.00000000000E+00 0. -1.
        -11    1    5    5    0    0  0.15070435551E+03  0.29673186717E+02  0.33209337823E+03  0.36589385434E+03  0.00000000000E+00 0.  1.
          2    1    6    6  503    0 -0.21562687455E+03 -0.12532534567E+03  0.27694435023E+03  0.37269231871E+03  0.00000000000E+00 0. -1.
         -2    1    6    6    0  503 -0.19656150678E+03 -0.46589333366E+02  0.31656562600E+03  0.37552734587E+03  0.00000000000E+00 0.  1.
<mgrwt>
<rscale>  0 0.21121070E+04</rscale>
<asrwt>0</asrwt>
<pdfrwt beam="1">  1        1 0.25899701E+00 0.21121070E+04</pdfrwt>
<pdfrwt beam="2">  1       -1 0.10191788E+00 0.21121070E+04</pdfrwt>
<totfact> 0.40994857E+00</totfact>
</mgrwt>
</event>
<event>
12    2  0.3555611E-008  0.1748928E+04  0.7818608E-02  0.8733941E-01
          2   -1    0    0  501    0  0.00000000000E+00  0.00000000000E+00  0.11631819538E+04  0.11631819538E+04  0.00000000000E+00 0. -1.
         -2   -1    0    0    0  501 -0.00000000000E+00 -0.00000000000E+00 -0.65740955623E+03  0.65740955623E+03  0.00000000000E+00 0.  1.
         23    2    1    2    0    0 -0.28987068453E+03  0.35066364567E+03 -0.26075545455E+03  0.53248206942E+03  0.92486436976E+02 0.  0.
        254    2    1    2    0    0  0.28987068453E+03 -0.35066364567E+03  0.76652785214E+03  0.12881094406E+04  0.92987686109E+03 0.  0.
         23    2    4    4    0    0 -0.27511214591E+03 -0.16943302643E+03  0.29612081530E+02  0.33703459852E+03  0.91220622417E+02 0.  0.
         23    2    4    4    0    0  0.56498283044E+03 -0.18123061924E+03  0.73691577061E+03  0.95107484211E+03  0.97202707179E+02 0.  0.
          2    1    3    3  502    0 -0.64390903165E+02  0.12193908035E+03 -0.43003168883E+02  0.14444583850E+03  0.00000000000E+00 0. -1.
         -2    1    3    3    0  502 -0.22547978137E+03  0.22872456532E+03 -0.21775228567E+03  0.38803623091E+03  0.00000000000E+00 0.  1.
         11    1    5    5    0    0 -0.20690482006E+03 -0.15841146892E+03 -0.30724158238E+01  0.26060168416E+03  0.00000000000E+00 0.  1.
        -11    1    5    5    0    0 -0.68207325852E+02 -0.11021557508E+02  0.32684497354E+02  0.76432914357E+02  0.00000000000E+00 0. -1.
          1    1    6    6  503    0  0.10782886326E+03  0.37571783189E+00  0.15961799891E+03  0.19262686856E+03  0.00000000000E+00 0. -1.
         -1    1    6    6    0  503  0.45715396718E+03 -0.18160633708E+03  0.57729777170E+03  0.75844797355E+03  0.00000000000E+00 0.  1.
<mgrwt>
<rscale>  0 0.17489276E+04</rscale>
<asrwt>0</asrwt>
<pdfrwt beam="1">  1        2 0.17895107E+00 0.17489276E+04</pdfrwt>
<pdfrwt beam="2">  1       -2 0.10113993E+00 0.17489276E+04</pdfrwt>
<totfact> 0.15193732E+01</totfact>
</mgrwt>
</event>
<event>
12    2  0.3555611E-008  0.1532615E+04  0.7818608E-02  0.8863050E-01
         -1   -1    0    0    0  501 -0.00000000000E+00  0.00000000000E+00  0.96428249501E+03  0.96428249501E+03  0.00000000000E+00 0.  1.
          1   -1    0    0  501    0  0.00000000000E+00 -0.00000000000E+00 -0.60897811456E+03  0.60897811456E+03  0.00000000000E+00 0. -1.
         23    2    1    2    0    0  0.41302964183E+03  0.15660473708E+03 -0.54389487516E+02  0.45313606104E+03  0.85179485532E+02 0.  0.
        254    2    1    2    0    0 -0.41302964183E+03 -0.15660473708E+03  0.40969386797E+03  0.11201245485E+04  0.94430472309E+03 0.  0.
         23    2    4    4    0    0 -0.52717748138E+03 -0.35695036448E+03  0.54091359988E+03  0.83998342253E+03  0.87492673961E+02 0.  0.
         23    2    4    4    0    0  0.11414783955E+03  0.20034562741E+03 -0.13121973192E+03  0.28014112600E+03  0.89957394018E+02 0.  0.
          3    1    3    3  502    0  0.13022538280E+03  0.23179002545E+02 -0.46921312757E+02  0.14034787521E+03  0.00000000000E+00 0. -1.
         -3    1    3    3    0  502  0.28280425903E+03  0.13342573453E+03 -0.74681747595E+01  0.31278818583E+03  0.00000000000E+00 0.  1.
         11    1    5    5    0    0 -0.28989843588E+03 -0.14896817021E+03  0.30023543817E+03  0.44314099020E+03  0.00000000000E+00 0.  1.
        -11    1    5    5    0    0 -0.23727904550E+03 -0.20798219427E+03  0.24067816172E+03  0.39684243233E+03  0.00000000000E+00 0. -1.
          1    1    6    6  503    0  0.12586587506E+03  0.18138026797E+03 -0.10149720102E+03  0.24298704066E+03  0.00000000000E+00 0. -1.
         -1    1    6    6    0  503 -0.11718035509E+02  0.18965359433E+02 -0.29722530894E+02  0.37154085339E+02  0.00000000000E+00 0.  1.
<mgrwt>
<rscale>  0 0.15326147E+04</rscale>
<asrwt>0</asrwt>
<pdfrwt beam="1">  1        1 0.93688940E-01 0.15326147E+04</pdfrwt>
<pdfrwt beam="2">  1       -1 0.14835115E+00 0.15326147E+04</pdfrwt>
<totfact> 0.11624749E+01</totfact>
</mgrwt>
</event>
<event>
12    2  0.3555611E-008  0.1257435E+04  0.7818608E-02  0.9064018E-01
         -2   -1    0    0    0  501 -0.00000000000E+00  0.00000000000E+00  0.35574592368E+03  0.35574592368E+03  0.00000000000E+00 0.  1.
          2   -1    0    0  501    0  0.00000000000E+00 -0.00000000000E+00 -0.11111454292E+04  0.11111454292E+04  0.00000000000E+00 0. -1.
         23    2    1    2    0    0  0.28633952352E+03 -0.70002572501E+02 -0.10412267654E+03  0.32650422953E+03  0.94195526666E+02 0.  0.
        254    2    1    2    0    0 -0.28633952352E+03  0.70002572501E+02 -0.65127682900E+03  0.11403871234E+04  0.88849907162E+03 0.  0.
         23    2    4    4    0    0  0.32626977860E+02 -0.37024949844E+03 -0.22923602756E+03  0.44634930928E+03  0.92354419380E+02 0.  0.
         23    2    4    4    0    0 -0.31896650138E+03  0.44025207094E+03 -0.42204080144E+03  0.69403781410E+03  0.89490414826E+02 0.  0.
          1    1    3    3  502    0  0.86954672072E+01 -0.22725457486E+02 -0.22831597396E+02  0.33366741039E+02  0.00000000000E+00 0. -1.
         -1    1    3    3    0  502  0.27764405631E+03 -0.47277115015E+02 -0.81291079148E+02  0.29313748849E+03  0.00000000000E+00 0.  1.
         11    1    5    5    0    0  0.68862880712E+01 -0.25866733816E+02 -0.51293472849E+02  0.57857836450E+02  0.00000000000E+00 0.  1.
        -11    1    5    5    0    0  0.25740689789E+02 -0.34438276462E+03 -0.17794255471E+03  0.38849147283E+03  0.00000000000E+00 0. -1.
          1    1    6    6  503    0 -0.22956054432E+03  0.37565457924E+03 -0.34823596365E+03  0.56132227178E+03  0.00000000000E+00 0. -1.
         -1    1    6    6    0  503 -0.89405957064E+02  0.64597491697E+02 -0.73804837791E+02  0.13271554232E+03  0.00000000000E+00 0.  1.
<mgrwt>
<rscale>  0 0.12574346E+04</rscale>
<asrwt>0</asrwt>
<pdfrwt beam="1">  1        2 0.17094545E+00 0.12574346E+04</pdfrwt>
<pdfrwt beam="2">  1       -2 0.54730142E-01 0.12574346E+04</pdfrwt>
<totfact> 0.66205042E+01</totfact>
</mgrwt>
</event>
<event>
12    2  0.3555611E-008  0.1629386E+04  0.7818608E-02  0.8802696E-01
          2   -1    0    0  501    0  0.00000000000E+00  0.00000000000E+00  0.31781911364E+04  0.31781911364E+04  0.00000000000E+00 0. -1.
         -2   -1    0    0    0  501 -0.00000000000E+00 -0.00000000000E+00 -0.20883712579E+03  0.20883712579E+03  0.00000000000E+00 0.  1.
         23    2    1    2    0    0  0.47012312675E+02  0.66219609580E+02 -0.11846280300E+03  0.17139191326E+03  0.93523034600E+02 0.  0.
        254    2    1    2    0    0 -0.47012312675E+02 -0.66219609580E+02  0.30878168137E+04  0.32156363490E+04  0.89392911344E+03 0.  0.
         23    2    4    4    0    0  0.27144619738E+03 -0.25909567171E+03  0.23735357942E+04  0.24049511237E+04  0.96457948293E+02 0.  0.
         23    2    4    4    0    0 -0.31845851005E+03  0.19287606213E+03  0.71428101949E+03  0.81068522531E+03  0.91630572242E+02 0.  0.
          1    1    3    3  502    0  0.32726260892E+02 -0.10370380438E+01  0.18750042806E+01  0.32796329687E+02  0.00000000000E+00 0. -1.
         -1    1    3    3    0  502  0.14286051783E+02  0.67256647623E+02 -0.12033780728E+03  0.13859558358E+03  0.00000000000E+00 0.  1.
         11    1    5    5    0    0  0.24533313546E+03 -0.25992727846E+03  0.22795794018E+04  0.23074299094E+04  0.00000000000E+00 0. -1.
        -11    1    5    5    0    0  0.26113061919E+02  0.83160674771E+00  0.93956392356E+02  0.97521214293E+02  0.00000000000E+00 0.  1.
          4    1    6    6  503    0 -0.61785367861E+02  0.50858517441E+01  0.80707038602E+02  0.10176897194E+03  0.00000000000E+00 0.  1.
         -4    1    6    6    0  503 -0.25667314219E+03  0.18779021039E+03  0.63357398088E+03  0.70891625337E+03  0.00000000000E+00 0. -1.
<mgrwt>
<rscale>  0 0.16293855E+04</rscale>
<asrwt>0</asrwt>
<pdfrwt beam="1">  1        2 0.48895245E+00 0.16293855E+04</pdfrwt>
<pdfrwt beam="2">  1       -2 0.32128791E-01 0.16293855E+04</pdfrwt>
<totfact> 0.11643411E+01</totfact>
</mgrwt>
</event>
<event>
12    2  0.3555611E-008  0.2251185E+04  0.7818608E-02  0.8497421E-01
          1   -1    0    0  501    0  0.00000000000E+00  0.00000000000E+00  0.12019455765E+04  0.12019455765E+04  0.00000000000E+00 0. -1.
         -1   -1    0    0    0  501 -0.00000000000E+00 -0.00000000000E+00 -0.10540894017E+04  0.10540894017E+04  0.00000000000E+00 0.  1.
         23    2    1    2    0    0  0.80245353403E+03 -0.49666629076E+03  0.81066652665E+02  0.95215430740E+03  0.97040941255E+02 0.  0.
        254    2    1    2    0    0 -0.80245353403E+03  0.49666629076E+03  0.66789522122E+02  0.13038806709E+04  0.89723736268E+03 0.  0.
         23    2    4    4    0    0 -0.68683855977E+03 -0.44450145667E+02  0.20943559188E+03  0.72406862999E+03  0.81786864225E+02 0.  0.
         23    2    4    4    0    0 -0.11561497426E+03  0.54111643643E+03 -0.14264606975E+03  0.57981204089E+03  0.98286731068E+02 0.  0.
          1    1    3    3  502    0  0.36521022402E+03 -0.21168347883E+03  0.83141749760E+02  0.43023360340E+03  0.00000000000E+00 0. -1.
         -1    1    3    3    0  502  0.43724331001E+03 -0.28498281193E+03 -0.20750970946E+01  0.52192070400E+03  0.00000000000E+00 0.  1.
         11    1    5    5    0    0 -0.48533370194E+03 -0.16277787170E+02  0.11141596033E+03  0.49822413110E+03  0.00000000000E+00 0. -1.
        -11    1    5    5    0    0 -0.20150485783E+03 -0.28172358496E+02  0.98019631546E+02  0.22584449890E+03  0.00000000000E+00 0.  1.
          1    1    6    6  503    0 -0.11698709834E+03  0.53517700204E+03 -0.15212324860E+03  0.56854365484E+03  0.00000000000E+00 0. -1.
         -1    1    6    6    0  503  0.13721240841E+01  0.59394343829E+01  0.94771788478E+01  0.11268386051E+02  0.00000000000E+00 0.  1.
<mgrwt>
<rscale>  0 0.22511847E+04</rscale>
<asrwt>0</asrwt>
<pdfrwt beam="1">  1        1 0.18491471E+00 0.22511847E+04</pdfrwt>
<pdfrwt beam="2">  1       -1 0.16216760E+00 0.22511847E+04</pdfrwt>
<totfact> 0.27208481E+00</totfact>
</mgrwt>
</event>
<event>
12    2  0.3555611E-008  0.1646748E+04  0.7818608E-02  0.8792332E-01
         -2   -1    0    0    0  501 -0.00000000000E+00  0.00000000000E+00  0.49501710936E+03  0.49501710936E+03  0.00000000000E+00 0.  1.
          2   -1    0    0  501    0  0.00000000000E+00 -0.00000000000E+00 -0.13695385693E+04  0.13695385693E+04  0.00000000000E+00 0. -1.
         23    2    1    2    0    0 -0.34427314761E+03  0.11035262420E+03  0.20393083577E+03  0.42394390683E+03  0.86249339269E+02 0.  0.
        254    2    1    2    0    0  0.34427314761E+03 -0.11035262420E+03 -0.10784522957E+04  0.14406117718E+04  0.88408213484E+03 0.  0.
         23    2    4    4    0    0 -0.35779393482E+02 -0.10806277636E+03 -0.10379956897E+04  0.10480332131E+04  0.89335520543E+02 0.  0.
         23    2    4    4    0    0  0.38005254109E+03 -0.22898478407E+01 -0.40456605953E+02  0.39257855870E+03  0.89643797287E+02 0.  0.
          3    1    3    3  502    0  0.48241495660E+01  0.13463189092E+01 -0.38128308793E+00  0.50229842159E+01  0.00000000000E+00 0. -1.
         -3    1    3    3    0  502 -0.34909729717E+03  0.10900630529E+03  0.20431211886E+03  0.41892092261E+03  0.00000000000E+00 0.  1.
         11    1    5    5    0    0  0.18716132072E+02  0.48031087793E+01 -0.12993915565E+03  0.13136798554E+03  0.00000000000E+00 0. -1.
        -11    1    5    5    0    0 -0.54495525553E+02 -0.11286588514E+03 -0.90805653408E+03  0.91666522756E+03  0.00000000000E+00 0.  1.
          2    1    6    6  503    0  0.18545920137E+03 -0.45348025659E+02 -0.12562293160E+02  0.19133575205E+03  0.00000000000E+00 0. -1.
         -2    1    6    6    0  503  0.19459333972E+03  0.43058177819E+02 -0.27894312792E+02  0.20124280665E+03  0.00000000000E+00 0.  1.
<mgrwt>
<rscale>  0 0.16467483E+04</rscale>
<asrwt>0</asrwt>
<pdfrwt beam="1">  1        2 0.21069824E+00 0.16467483E+04</pdfrwt>
<pdfrwt beam="2">  1       -2 0.76156478E-01 0.16467483E+04</pdfrwt>
<totfact> 0.22218012E+01</totfact>
</mgrwt>
</event>
<event>
12    2  0.3555611E-008  0.2245238E+04  0.7818608E-02  0.8499832E-01
         -1   -1    0    0    0  501 -0.00000000000E+00  0.00000000000E+00  0.15458261183E+04  0.15458261183E+04  0.00000000000E+00 0.  1.
          1   -1    0    0  501    0  0.00000000000E+00 -0.00000000000E+00 -0.81527472858E+03  0.81527472858E+03  0.00000000000E+00 0. -1.
         23    2    1    2    0    0 -0.16058781982E+03  0.25454471742E+03  0.12428535746E+04  0.12822586004E+04  0.94449189581E+02 0.  0.
        254    2    1    2    0    0  0.16058781982E+03 -0.25454471742E+03 -0.51230218487E+03  0.10788422465E+04  0.90048076222E+03 0.  0.
         23    2    4    4    0    0  0.22679576408E+03  0.19321632586E+03 -0.53032672707E+03  0.61506320731E+03  0.91035401695E+02 0.  0.
         23    2    4    4    0    0 -0.66207944265E+02 -0.44776104328E+03  0.18024542199E+02  0.46377903917E+03  0.99461898669E+02 0.  0.
          4    1    3    3  502    0 -0.54340261524E+02  0.47058396253E+02  0.45498183572E+03  0.46062547424E+03  0.00000000000E+00 0. -1.
         -4    1    3    3    0  502 -0.10624755829E+03  0.20748632117E+03  0.78787173890E+03  0.82163312620E+03  0.00000000000E+00 0.  1.
         11    1    5    5    0    0  0.53191970522E+02  0.92494551498E+02 -0.13860992717E+03  0.17492095271E+03  0.00000000000E+00 0.  1.
        -11    1    5    5    0    0  0.17360379356E+03  0.10072177436E+03 -0.39171679990E+03  0.44014225461E+03  0.00000000000E+00 0. -1.
          3    1    6    6  503    0 -0.49324224988E+02 -0.44202619966E+03  0.11911352047E+02  0.44492911869E+03  0.00000000000E+00 0. -1.
         -3    1    6    6    0  503 -0.16883719277E+02 -0.57348436220E+01  0.61131901530E+01  0.18849920473E+02  0.00000000000E+00 0.  1.
<mgrwt>
<rscale>  0 0.22452376E+04</rscale>
<asrwt>0</asrwt>
<pdfrwt beam="1">  1        1 0.12542688E+00 0.22452376E+04</pdfrwt>
<pdfrwt beam="2">  1       -1 0.23781940E+00 0.22452376E+04</pdfrwt>
<totfact> 0.16318066E+00</totfact>
</mgrwt>
</event>
<event>
12    2  0.3555611E-008  0.1699301E+04  0.7818608E-02  0.8761763E-01
          2   -1    0    0  501    0  0.00000000000E+00  0.00000000000E+00  0.19005279727E+04  0.19005279727E+04  0.00000000000E+00 0. -1.
         -2   -1    0    0    0  501 -0.00000000000E+00 -0.00000000000E+00 -0.37984511897E+03  0.37984511897E+03  0.00000000000E+00 0.  1.
         23    2    1    2    0    0 -0.51658102018E+03  0.10814759637E+03  0.14653904384E+03  0.55539547369E+03  0.91861786466E+02 0.  0.
        254    2    1    2    0    0  0.51658102018E+03 -0.10814759637E+03  0.13741438099E+04  0.17249776180E+04  0.89929123161E+03 0.  0.
         23    2    4    4    0    0 -0.94145062193E+02 -0.25253347496E+03  0.96934336424E+02  0.29885536546E+03  0.85333552471E+02 0.  0.
         23    2    4    4    0    0  0.61072608237E+03  0.14438587860E+03  0.12772094735E+04  0.14261222525E+04  0.93418469061E+02 0.  0.
          3    1    3    3  502    0 -0.19268977401E+03  0.67067341431E+02  0.19103937311E+02  0.20492032041E+03  0.00000000000E+00 0. -1.
         -3    1    3    3    0  502 -0.32389124617E+03  0.41080254934E+02  0.12743510653E+03  0.35047515328E+03  0.00000000000E+00 0.  1.
         11    1    5    5    0    0 -0.93454397779E+02 -0.13771225375E+03  0.72112829503E+02  0.18137984859E+03  0.00000000000E+00 0.  1.
        -11    1    5    5    0    0 -0.69066441306E+00 -0.11482122121E+03  0.24821506921E+02  0.11747551687E+03  0.00000000000E+00 0. -1.
          3    1    6    6  503    0  0.50200559695E+03  0.12035811163E+03  0.96094682585E+03  0.10908320203E+04  0.00000000000E+00 0. -1.
         -3    1    6    6    0  503  0.10872048542E+03  0.24027766971E+02  0.31626264764E+03  0.33529023223E+03  0.00000000000E+00 0.  1.
<mgrwt>
<rscale>  0 0.16993014E+04</rscale>
<asrwt>0</asrwt>
<pdfrwt beam="1">  1        2 0.29238891E+00 0.16993014E+04</pdfrwt>
<pdfrwt beam="2">  1       -2 0.58437712E-01 0.16993014E+04</pdfrwt>
<totfact> 0.19773267E+01</totfact>
</mgrwt>
</event>
<event>
12    2  0.3555611E-008  0.1803998E+04  0.7818608E-02  0.8704176E-01
         -2   -1    0    0    0  501 -0.00000000000E+00  0.00000000000E+00  0.13934877735E+04  0.13934877735E+04  0.00000000000E+00 0.  1.
          2   -1    0    0  501    0  0.00000000000E+00 -0.00000000000E+00 -0.58386035341E+03  0.58386035341E+03  0.00000000000E+00 0. -1.
         23    2    1    2    0    0  0.37829217138E+03 -0.46328348511E+03  0.64148874780E+03  0.88204678175E+03  0.93606394745E+02 0.  0.
        254    2    1    2    0    0 -0.37829217138E+03  0.46328348511E+03  0.16813867232E+03  0.10953013452E+04  0.90204094650E+03 0.  0.
         23    2    4    4    0    0 -0.47512077729E+02  0.27760707778E+03 -0.34200669985E+03  0.45326123822E+03  0.95676957355E+02 0.  0.
         23    2    4    4    0    0 -0.33078009365E+03  0.18567640733E+03  0.51014537217E+03  0.64204010698E+03  0.89866565704E+02 0.  0.
          4    1    3    3  502    0  0.63190795323E+02 -0.10859676555E+03  0.89932763275E+02  0.15451289918E+03  0.00000000000E+00 0. -1.
         -4    1    3    3    0  502  0.31510137605E+03 -0.35468671955E+03  0.55155598453E+03  0.72753388257E+03  0.00000000000E+00 0.  1.
         11    1    5    5    0    0 -0.60151771654E+02  0.19593327770E+03 -0.18627990760E+03  0.27696261285E+03  0.00000000000E+00 0.  1.
        -11    1    5    5    0    0  0.12639693924E+02  0.81673800079E+02 -0.15572679225E+03  0.17629862537E+03  0.00000000000E+00 0. -1.
          1    1    6    6  503    0 -0.65543375505E+02  0.17858283889E+02  0.14775563199E+03  0.16262404238E+03  0.00000000000E+00 0. -1.
         -1    1    6    6    0  503 -0.26523671814E+03  0.16781812344E+03  0.36238974018E+03  0.47941606460E+03  0.00000000000E+00 0.  1.
<mgrwt>
<rscale>  0 0.18039981E+04</rscale>
<asrwt>0</asrwt>
<pdfrwt beam="1">  1        2 0.89824670E-01 0.18039981E+04</pdfrwt>
<pdfrwt beam="2">  1       -2 0.21438273E+00 0.18039981E+04</pdfrwt>
<totfact> 0.51878633E+00</totfact>
</mgrwt>
</event>
<event>
12    2  0.3555611E-008  0.1507386E+04  0.7818608E-02  0.8879556E-01
         -1   -1    0    0    0  501 -0.00000000000E+00  0.00000000000E+00  0.93357870025E+03  0.93357870025E+03  0.00000000000E+00 0.  1.
          1   -1    0    0  501    0  0.00000000000E+00 -0.00000000000E+00 -0.60846813494E+03  0.60846813494E+03  0.00000000000E+00 0. -1.
         23    2    1    2    0    0 -0.28905670642E+03  0.20234508394E+03  0.43444784158E+03  0.56687943284E+03  0.90055826023E+02 0.  0.
        254    2    1    2    0    0  0.28905670642E+03 -0.20234508394E+03 -0.10933727627E+03  0.97516740235E+03  0.90249626598E+03 0.  0.
         23    2    4    4    0    0 -0.80536597814E+02  0.19158781649E+03  0.23522076912E+03  0.32726934249E+03  0.92651914676E+02 0.  0.
         23    2    4    4    0    0  0.36959330424E+03 -0.39393290043E+03 -0.34455804540E+03  0.64789805986E+03  0.96277249331E+02 0.  0.
          3    1    3    3  502    0 -0.18182918808E+02  0.28979059865E+02  0.12677272375E+02  0.36484485496E+02  0.00000000000E+00 0. -1.
         -3    1    3    3    0  502 -0.27087378762E+03  0.17336602408E+03  0.42177056921E+03  0.53039494735E+03  0.00000000000E+00 0.  1.
         11    1    5    5    0    0 -0.99987895912E+02  0.15559153157E+03  0.20686929466E+03  0.27749091714E+03  0.00000000000E+00 0.  1.
        -11    1    5    5    0    0  0.19451298098E+02  0.35996284925E+02  0.28351474469E+02  0.49778425353E+02  0.00000000000E+00 0. -1.
          2    1    6    6  503    0  0.24786273494E+03 -0.20141723101E+03 -0.17715324921E+03  0.36522337004E+03  0.00000000000E+00 0. -1.
         -2    1    6    6    0  503  0.12173056929E+03 -0.19251566942E+03 -0.16740479619E+03  0.28267468981E+03  0.00000000000E+00 0.  1.
<mgrwt>
<rscale>  0 0.15073857E+04</rscale>
<asrwt>0</asrwt>
<pdfrwt beam="1">  1        1 0.93610482E-01 0.15073857E+04</pdfrwt>
<pdfrwt beam="2">  1       -1 0.14362749E+00 0.15073857E+04</pdfrwt>
<totfact> 0.12714708E+01</totfact>
</mgrwt>
</event>
<event>
12    2  0.3555611E-008  0.2587562E+04  0.7818608E-02  0.8372438E-01
          2   -1    0    0  501    0  0.00000000000E+00  0.00000000000E+00  0.12277003754E+04  0.12277003754E+04  0.00000000000E+00 0. -1.
         -2   -1    0    0    0  501 -0.00000000000E+00 -0.00000000000E+00 -0.13634186438E+04  0.13634186438E+04  0.00000000000E+00 0.  1.
         23    2    1    2    0    0 -0.60581598468E+02  0.10077186393E+04 -0.57981358408E+03  0.11676421450E+04  0.89651550094E+02 0.  0.
        254    2    1    2    0    0  0.60581598468E+02 -0.10077186393E+04  0.44409531562E+03  0.14234768742E+04  0.89994376268E+03 0.  0.
         23    2    4    4    0    0  0.15783120534E+03 -0.37279881056E+03  0.62487631856E+03  0.74990277271E+03  0.89409800856E+02 0.  0.
         23    2    4    4    0    0 -0.97249606869E+02 -0.63491982873E+03 -0.18078100294E+03  0.67357410149E+03  0.91867427435E+02 0.  0.
          3    1    3    3  502    0 -0.24273818729E+02  0.55334212478E+02 -0.35825054549E+02  0.70246194770E+02  0.00000000000E+00 0. -1.
         -3    1    3    3    0  502 -0.36307779739E+02  0.95238442682E+03 -0.54398852953E+03  0.10973959502E+04  0.00000000000E+00 0.  1.
         11    1    5    5    0    0  0.10777671165E+02 -0.87571904050E+01  0.62552556590E+02  0.64075493876E+02  0.00000000000E+00 0.  1.
        -11    1    5    5    0    0  0.14705353417E+03 -0.36404162016E+03  0.56232376197E+03  0.68582727884E+03  0.00000000000E+00 0. -1.
          4    1    6    6  503    0 -0.29971956141E+02 -0.11486233325E+03 -0.69326683450E+02  0.13746949768E+03  0.00000000000E+00 0. -1.
         -4    1    6    6    0  503 -0.67277650728E+02 -0.52005749548E+03 -0.11145431949E+03  0.53610460381E+03  0.00000000000E+00 0.  1.
<mgrwt>
<rscale>  0 0.25875622E+04</rscale>
<asrwt>0</asrwt>
<pdfrwt beam="1">  1        2 0.18887698E+00 0.25875622E+04</pdfrwt>
<pdfrwt beam="2">  1       -2 0.20975671E+00 0.25875622E+04</pdfrwt>
<totfact> 0.18554814E+00</totfact>
</mgrwt>
</event>
<event>
12    2  0.3555611E-008  0.2545612E+04  0.7818608E-02  0.8386914E-01
         -2   -1    0    0    0  501 -0.00000000000E+00  0.00000000000E+00  0.10391718725E+04  0.10391718725E+04  0.00000000000E+00 0.  1.
          2   -1    0    0  501    0  0.00000000000E+00 -0.00000000000E+00 -0.15589668790E+04  0.15589668790E+04  0.00000000000E+00 0. -1.
         23    2    1    2    0    0  0.37499584224E+03  0.89220332467E+03  0.34197301844E+03  0.10305960763E+04  0.92380046503E+02 0.  0.
        254    2    1    2    0    0 -0.37499584224E+03 -0.89220332467E+03 -0.86176802498E+03  0.15675426752E+04  0.88198483853E+03 0.  0.
         23    2    4    4    0    0  0.81595840216E+02  0.81885863279E+02 -0.33542763647E+03  0.36654187397E+03  0.92076437386E+02 0.  0.
         23    2    4    4    0    0 -0.45659168246E+03 -0.97408918795E+03 -0.52634038851E+03  0.12010008012E+04  0.89682826523E+02 0.  0.
          4    1    3    3  502    0  0.93332331082E+02  0.13563587870E+03  0.66981311113E+02  0.17774845050E+03  0.00000000000E+00 0. -1.
         -4    1    3    3    0  502  0.28166351116E+03  0.75656744596E+03  0.27499170733E+03  0.85284762584E+03  0.00000000000E+00 0.  1.
         11    1    5    5    0    0  0.83362036839E+02  0.96736110051E+02 -0.26025541487E+03  0.28989650764E+03  0.00000000000E+00 0. -1.
        -11    1    5    5    0    0 -0.17661966235E+01 -0.14850246771E+02 -0.75172221597E+02  0.76645366328E+02  0.00000000000E+00 0.  1.
          1    1    6    6  503    0 -0.45889927711E+03 -0.96495655666E+03 -0.51468386180E+03  0.11860139883E+04  0.00000000000E+00 0. -1.
         -1    1    6    6    0  503  0.23075946521E+01 -0.91326312903E+01 -0.11656526710E+02  0.14986812946E+02  0.00000000000E+00 0.  1.
<mgrwt>
<rscale>  0 0.25456115E+04</rscale>
<asrwt>0</asrwt>
<pdfrwt beam="1">  1        2 0.23984106E+00 0.25456115E+04</pdfrwt>
<pdfrwt beam="2">  1       -2 0.15987260E+00 0.25456115E+04</pdfrwt>
<totfact> 0.26379656E+00</totfact>
</mgrwt>
</event>
<event>
12    2  0.3555611E-008  0.2118756E+04  0.7818608E-02  0.8553026E-01
          1   -1    0    0  501    0  0.00000000000E+00  0.00000000000E+00  0.14522246561E+04  0.14522246561E+04  0.00000000000E+00 0. -1.
         -1   -1    0    0    0  501 -0.00000000000E+00 -0.00000000000E+00 -0.77280180968E+03  0.77280180968E+03  0.00000000000E+00 0.  1.
         23    2    1    2    0    0 -0.18246726093E+03  0.71341978523E+03 -0.20877487786E+03  0.77052382874E+03  0.88644964642E+02 0.  0.
        254    2    1    2    0    0  0.18246726093E+03 -0.71341978523E+03  0.88819772423E+03  0.14545026370E+04  0.88567524094E+03 0.  0.
         23    2    4    4    0    0 -0.16041733188E+03 -0.16517239139E+03  0.74625380964E+03  0.78630548250E+03  0.91465426114E+02 0.  0.
         23    2    4    4    0    0  0.34288459281E+03 -0.54824739384E+03  0.14194391460E+03  0.66819715449E+03  0.90522447672E+02 0.  0.
          2    1    3    3  502    0 -0.18532537513E+02  0.11926114622E+03 -0.30265263447E+01  0.12073042618E+03  0.00000000000E+00 0. -1.
         -2    1    3    3    0  502 -0.16393472341E+03  0.59415863901E+03 -0.20574835152E+03  0.64979340255E+03  0.00000000000E+00 0.  1.
         11    1    5    5    0    0 -0.12136552678E+03 -0.61078389275E+02  0.43972900116E+03  0.46024097513E+03  0.00000000000E+00 0. -1.
        -11    1    5    5    0    0 -0.39051805100E+02 -0.10409400211E+03  0.30652480847E+03  0.32606450737E+03  0.00000000000E+00 0.  1.
          3    1    6    6  503    0  0.23069753790E+03 -0.37042619947E+03  0.13875823661E+03  0.45792004922E+03  0.00000000000E+00 0. -1.
         -3    1    6    6    0  503  0.11218705491E+03 -0.17782119437E+03  0.31856779904E+01  0.21027710527E+03  0.00000000000E+00 0.  1.
<mgrwt>
<rscale>  0 0.21187561E+04</rscale>
<asrwt>0</asrwt>
<pdfrwt beam="1">  1        1 0.22341918E+00 0.21187561E+04</pdfrwt>
<pdfrwt beam="2">  1       -1 0.11889259E+00 0.21187561E+04</pdfrwt>
<totfact> 0.41066215E+00</totfact>
</mgrwt>
</event>
<event>
12    2  0.3555611E-008  0.1323311E+04  0.7818608E-02  0.9011281E-01
         -2   -1    0    0    0  501 -0.00000000000E+00  0.00000000000E+00  0.26365396062E+03  0.26365396062E+03  0.00000000000E+00 0.  1.
          2   -1    0    0  501    0  0.00000000000E+00 -0.00000000000E+00 -0.16604649442E+04  0.16604649442E+04  0.00000000000E+00 0. -1.
         23    2    1    2    0    0  0.20040005733E+03  0.16844768430E+03 -0.71362079052E+03  0.76549515397E+03  0.90517361722E+02 0.  0.
        254    2    1    2    0    0 -0.20040005733E+03 -0.16844768430E+03 -0.68319019307E+03  0.11586237508E+04  0.89840155319E+03 0.  0.
         23    2    4    4    0    0 -0.46151063867E+02 -0.16141040066E+03  0.18947650479E+03  0.26751289377E+03  0.86478692945E+02 0.  0.
         23    2    4    4    0    0 -0.15424899346E+03 -0.70372836438E+01 -0.87266669785E+03  0.89111085706E+03  0.93215442357E+02 0.  0.
          4    1    3    3  502    0  0.13760107049E+03  0.62846978457E+02 -0.33844086948E+03  0.37071015556E+03  0.00000000000E+00 0. -1.
         -4    1    3    3    0  502  0.62798986846E+02  0.10560070584E+03 -0.37517992103E+03  0.39478499841E+03  0.00000000000E+00 0.  1.
         11    1    5    5    0    0  0.13061696734E+02 -0.10724469428E+03  0.98491900086E+02  0.14619400383E+03  0.00000000000E+00 0.  1.
        -11    1    5    5    0    0 -0.59212760602E+02 -0.54165706377E+02  0.90984604699E+02  0.12131888995E+03  0.00000000000E+00 0. -1.
          2    1    6    6  503    0 -0.23148807588E+02 -0.35553162296E+02 -0.29710319562E+03  0.30011698300E+03  0.00000000000E+00 0. -1.
         -2    1    6    6    0  503 -0.13110018588E+03  0.28515878652E+02 -0.57556350224E+03  0.59099387406E+03  0.00000000000E+00 0.  1.
<mgrwt>
<rscale>  0 0.13233112E+04</rscale>
<asrwt>0</asrwt>
<pdfrwt beam="1">  1        2 0.25545614E+00 0.13233112E+04</pdfrwt>
<pdfrwt beam="2">  1       -2 0.40562148E-01 0.13233112E+04</pdfrwt>
<totfact> 0.58086837E+01</totfact>
</mgrwt>
</event>
<event>
12    2  0.3555611E-008  0.1739708E+04  0.7818608E-02  0.8739036E-01
         -1   -1    0    0    0  501 -0.00000000000E+00  0.00000000000E+00  0.41760879026E+03  0.41760879026E+03  0.00000000000E+00 0.  1.
          1   -1    0    0  501    0  0.00000000000E+00 -0.00000000000E+00 -0.18118539465E+04  0.18118539465E+04  0.00000000000E+00 0. -1.
         23    2    1    2    0    0 -0.21265807723E+03 -0.30911756213E+03 -0.11681734860E+04  0.12304391468E+04  0.92596305388E+02 0.  0.
        254    2    1    2    0    0  0.21265807723E+03  0.30911756213E+03 -0.22607167027E+03  0.99902358991E+03  0.89786558463E+03 0.  0.
         23    2    4    4    0    0 -0.25760880714E+03  0.39846591453E+03 -0.14718712282E+03  0.50563609503E+03  0.94161716809E+02 0.  0.
         23    2    4    4    0    0  0.47026688437E+03 -0.89348352407E+02 -0.78884547448E+02  0.49338749488E+03  0.89857540914E+02 0.  0.
          3    1    3    3  502    0 -0.97107903648E+02 -0.21848815403E+03 -0.75404603033E+03  0.79104515311E+03  0.00000000000E+00 0. -1.
         -3    1    3    3    0  502 -0.11555017358E+03 -0.90629408092E+02 -0.41412745562E+03  0.43939399373E+03  0.00000000000E+00 0.  1.
         11    1    5    5    0    0 -0.16578631034E+03  0.19555816318E+03 -0.11354038877E+03  0.28039171843E+03  0.00000000000E+00 0. -1.
        -11    1    5    5    0    0 -0.91822496805E+02  0.20290775135E+03 -0.33646734048E+02  0.22524437660E+03  0.00000000000E+00 0.  1.
          3    1    6    6  503    0  0.36349673199E+03 -0.39576798573E+02 -0.33611977560E+02  0.36718654958E+03  0.00000000000E+00 0. -1.
         -3    1    6    6    0  503  0.10677015238E+03 -0.49771553833E+02 -0.45272569888E+02  0.12620094530E+03  0.00000000000E+00 0.  1.
<mgrwt>
<rscale>  0 0.17397082E+04</rscale>
<asrwt>0</asrwt>
<pdfrwt beam="1">  1        1 0.27874676E+00 0.17397082E+04</pdfrwt>
<pdfrwt beam="2">  1       -1 0.64247506E-01 0.17397082E+04</pdfrwt>
<totfact> 0.93182800E+00</totfact>
</mgrwt>
</event>
<event>
12    2  0.3555611E-008  0.2319412E+04  0.7818608E-02  0.8470307E-01
         -1   -1    0    0    0  501 -0.00000000000E+00  0.00000000000E+00  0.32115094635E+04  0.32115094635E+04  0.00000000000E+00 0.  1.
          1   -1    0    0  501    0  0.00000000000E+00 -0.00000000000E+00 -0.41878049186E+03  0.41878049186E+03  0.00000000000E+00 0. -1.
         23    2    1    2    0    0  0.18113353347E+03 -0.18298948161E+03  0.26634381736E+04  0.26773928155E+04  0.90746222095E+02 0.  0.
        254    2    1    2    0    0 -0.18113353347E+03  0.18298948161E+03  0.12929079809E+03  0.95289713985E+03  0.90829639509E+03 0.  0.
         23    2    4    4    0    0  0.15942320822E+03 -0.19350529599E+03 -0.20565643018E+03  0.33784326068E+03  0.94781024551E+02 0.  0.
         23    2    4    4    0    0 -0.34055674170E+03  0.37649477760E+03  0.33494722827E+03  0.61505387917E+03  0.91511839053E+02 0.  0.
          1    1    3    3  502    0 -0.78928603845E+01  0.23220183782E+01  0.90756131833E+02  0.91128285837E+02  0.00000000000E+00 0. -1.
         -1    1    3    3    0  502  0.18902639386E+03 -0.18531149999E+03  0.25726820417E+04  0.25862645297E+04  0.00000000000E+00 0.  1.
         11    1    5    5    0    0  0.27668756717E+02 -0.93311411709E+02 -0.45193103071E+02  0.10730795040E+03  0.00000000000E+00 0. -1.
        -11    1    5    5    0    0  0.13175445151E+03 -0.10019388428E+03 -0.16046332711E+03  0.23053531028E+03  0.00000000000E+00 0.  1.
          3    1    6    6  503    0 -0.22485069239E+02  0.41249602912E+02  0.63882417334E+02  0.79297360130E+02  0.00000000000E+00 0. -1.
         -3    1    6    6    0  503 -0.31807167246E+03  0.33524517469E+03  0.27106481093E+03  0.53575651904E+03  0.00000000000E+00 0.  1.
<mgrwt>
<rscale>  0 0.23194116E+04</rscale>
<asrwt>0</asrwt>
<pdfrwt beam="1">  1        1 0.64427770E-01 0.23194116E+04</pdfrwt>
<pdfrwt beam="2">  1       -1 0.49407836E+00 0.23194116E+04</pdfrwt>
<totfact> 0.82609067E-02</totfact>
</mgrwt>
</event>
<event>
12    2  0.3555611E-008  0.1862791E+04  0.7818608E-02  0.8673603E-01
         -1   -1    0    0    0  501 -0.00000000000E+00  0.00000000000E+00  0.17534232995E+04  0.17534232995E+04  0.00000000000E+00 0.  1.
          1   -1    0    0  501    0  0.00000000000E+00 -0.00000000000E+00 -0.49474495566E+03  0.49474495566E+03  0.00000000000E+00 0. -1.
         23    2    1    2    0    0 -0.14999567224E+03  0.65315754975E+02  0.13103119614E+04  0.13241429830E+04  0.98348124767E+02 0.  0.
        254    2    1    2    0    0  0.14999567224E+03 -0.65315754975E+02 -0.51633617587E+02  0.92402527216E+03  0.90796025441E+03 0.  0.
         23    2    4    4    0    0  0.30982845681E+03 -0.48461338977E+01 -0.40698555527E+03  0.51990785708E+03  0.93004193398E+02 0.  0.
         23    2    4    4    0    0 -0.15983278457E+03 -0.60469621077E+02  0.35535193769E+03  0.40411741508E+03  0.88503059011E+02 0.  0.
          4    1    3    3  502    0 -0.15504270120E+03  0.58967273670E+02  0.99540134619E+03  0.10091279495E+04  0.00000000000E+00 0.  1.
         -4    1    3    3    0  502  0.50470289565E+01  0.63484813049E+01  0.31491061525E+03  0.31501503348E+03  0.00000000000E+00 0. -1.
         11    1    5    5    0    0 -0.21238744658E+01 -0.88437165914E+01 -0.32030934919E+01  0.96427161014E+01  0.00000000000E+00 0. -1.
        -11    1    5    5    0    0  0.31195233128E+03  0.39975826937E+01 -0.40378246178E+03  0.51026514098E+03  0.00000000000E+00 0.  1.
          3    1    6    6  503    0 -0.59054028162E+02 -0.14377125128E+02  0.48156286757E+02  0.77544232044E+02  0.00000000000E+00 0. -1.
         -3    1    6    6    0  503 -0.10077875641E+03 -0.46092495949E+02  0.30719565093E+03  0.32657318303E+03  0.00000000000E+00 0.  1.
<mgrwt>
<rscale>  0 0.18627907E+04</rscale>
<asrwt>0</asrwt>
<pdfrwt beam="1">  1        1 0.76114610E-01 0.18627907E+04</pdfrwt>
<pdfrwt beam="2">  1       -1 0.26975743E+00 0.18627907E+04</pdfrwt>
<totfact> 0.21897224E+00</totfact>
</mgrwt>
</event>
<event>
12    2  0.3555611E-008  0.2168591E+04  0.7818608E-02  0.8531616E-01
          2   -1    0    0  501    0  0.00000000000E+00  0.00000000000E+00  0.27680991080E+04  0.27680991080E+04  0.00000000000E+00 0. -1.
         -2   -1    0    0    0  501 -0.00000000000E+00 -0.00000000000E+00 -0.42473082083E+03  0.42473082083E+03  0.00000000000E+00 0.  1.
         23    2    1    2    0    0 -0.28898049882E+03 -0.82789772407E+03  0.13380660879E+04  0.16024338847E+04  0.91919145217E+02 0.  0.
        254    2    1    2    0    0  0.28898049882E+03  0.82789772407E+03  0.10053021993E+04  0.15903960440E+04  0.86591148209E+03 0.  0.
         23    2    4    4    0    0 -0.22308323400E+03  0.53999392891E+02  0.43774992479E+02  0.25091719908E+03  0.91439198950E+02 0.  0.
         23    2    4    4    0    0  0.51206373282E+03  0.77389833118E+03  0.96152720679E+03  0.13394788450E+04  0.92418143382E+02 0.  0.
          3    1    3    3  502    0 -0.22228446150E+03 -0.51781412500E+03  0.89244332957E+03  0.10554605376E+04  0.00000000000E+00 0. -1.
         -3    1    3    3    0  502 -0.66696037325E+02 -0.31008359908E+03  0.44562275830E+03  0.54697334718E+03  0.00000000000E+00 0.  1.
         11    1    5    5    0    0 -0.90282479094E+02 -0.93084298368E+01 -0.15923728638E+02  0.92147371265E+02  0.00000000000E+00 0. -1.
        -11    1    5    5    0    0 -0.13280075490E+03  0.63307822728E+02  0.59698721117E+02  0.15876982781E+03  0.00000000000E+00 0.  1.
          2    1    6    6  503    0  0.10641018613E+03  0.19621316879E+03  0.28220343954E+03  0.35980761055E+03  0.00000000000E+00 0. -1.
         -2    1    6    6    0  503  0.40565354668E+03  0.57768516239E+03  0.67932376724E+03  0.97967123441E+03  0.00000000000E+00 0.  1.
<mgrwt>
<rscale>  0 0.21685913E+04</rscale>
<asrwt>0</asrwt>
<pdfrwt beam="1">  1        2 0.42586139E+00 0.21685913E+04</pdfrwt>
<pdfrwt beam="2">  1       -2 0.65343205E-01 0.21685913E+04</pdfrwt>
<totfact> 0.47849551E+00</totfact>
</mgrwt>
</event>
<event>
12    2  0.3555611E-008  0.1622335E+04  0.7818608E-02  0.8806943E-01
         -2   -1    0    0    0  501 -0.00000000000E+00  0.00000000000E+00  0.16677229724E+04  0.16677229724E+04  0.00000000000E+00 0.  1.
          2   -1    0    0  501    0  0.00000000000E+00 -0.00000000000E+00 -0.39454535410E+03  0.39454535410E+03  0.00000000000E+00 0. -1.
         23    2    1    2    0    0  0.44727333489E+03 -0.10705772784E+03  0.85346817150E+03  0.97383326887E+03  0.91806985572E+02 0.  0.
        254    2    1    2    0    0 -0.44727333489E+03  0.10705772784E+03  0.41970944684E+03  0.10884350577E+04  0.89275980074E+03 0.  0.
         23    2    4    4    0    0 -0.38161889153E+03 -0.29914355440E+03  0.10514852986E+01  0.49412372782E+03  0.95064758245E+02 0.  0.
         23    2    4    4    0    0 -0.65654443361E+02  0.40620128224E+03  0.41865796154E+03  0.59431132985E+03  0.92851927285E+02 0.  0.
          4    1    3    3  502    0  0.44212216031E+02 -0.17925593803E+02  0.42696769857E+02  0.64023910501E+02  0.00000000000E+00 0. -1.
         -4    1    3    3    0  502  0.40306111886E+03 -0.89132134039E+02  0.81077140164E+03  0.90980935837E+03  0.00000000000E+00 0.  1.
         11    1    5    5    0    0 -0.43007957584E+02 -0.55119842370E+01 -0.14331820349E+02  0.45666918664E+02  0.00000000000E+00 0. -1.
        -11    1    5    5    0    0 -0.33861093395E+03 -0.29363157016E+03  0.15383305647E+02  0.44845680916E+03  0.00000000000E+00 0.  1.
          3    1    6    6  503    0  0.83818954338E+01  0.35471096194E+02  0.10412236055E+02  0.37906061467E+02  0.00000000000E+00 0. -1.
         -3    1    6    6    0  503 -0.74036338794E+02  0.37073018605E+03  0.40824572548E+03  0.55640526839E+03  0.00000000000E+00 0.  1.
<mgrwt>
<rscale>  0 0.16223346E+04</rscale>
<asrwt>0</asrwt>
<pdfrwt beam="1">  1        2 0.60699286E-01 0.16223346E+04</pdfrwt>
<pdfrwt beam="2">  1       -2 0.25657276E+00 0.16223346E+04</pdfrwt>
<totfact> 0.45294743E+00</totfact>
</mgrwt>
</event>
<event>
12    2  0.3555611E-008  0.1910061E+04  0.7818608E-02  0.8649864E-01
          1   -1    0    0  501    0  0.00000000000E+00  0.00000000000E+00  0.74488119752E+03  0.74488119752E+03  0.00000000000E+00 0. -1.
         -1   -1    0    0    0  501 -0.00000000000E+00 -0.00000000000E+00 -0.12244684146E+04  0.12244684146E+04  0.00000000000E+00 0.  1.
         23    2    1    2    0    0 -0.47333487763E+03  0.25514087752E+03  0.33421222605E+03  0.63961747385E+03  0.90939139248E+02 0.  0.
        254    2    1    2    0    0  0.47333487763E+03 -0.25514087752E+03 -0.81379944317E+03  0.13297321383E+04  0.90375619067E+03 0.  0.
         23    2    4    4    0    0  0.37980433444E+03  0.24062988926E+03 -0.13376082137E+03  0.47773368787E+03  0.90462385152E+02 0.  0.
         23    2    4    4    0    0  0.93530543192E+02 -0.49577076678E+03 -0.68003862180E+03  0.85199845043E+03  0.94404537498E+02 0.  0.
          1    1    3    3  502    0 -0.42975413644E+03  0.19904936326E+03  0.30131275055E+03  0.56133647703E+03  0.00000000000E+00 0. -1.
         -1    1    3    3    0  502 -0.43580741194E+02  0.56091514260E+02  0.32899475504E+02  0.78280996822E+02  0.00000000000E+00 0.  1.
         11    1    5    5    0    0  0.19854090023E+03  0.11021615854E+03 -0.11249913192E+03  0.25342088578E+03  0.00000000000E+00 0. -1.
        -11    1    5    5    0    0  0.18126343421E+03  0.13041373072E+03 -0.21261689447E+02  0.22431280208E+03  0.00000000000E+00 0.  1.
          4    1    6    6  503    0  0.58018299068E+02 -0.43316298913E+03 -0.54132449037E+03  0.69572156935E+03  0.00000000000E+00 0. -1.
         -4    1    6    6    0  503  0.35512244124E+02 -0.62607777655E+02 -0.13871413142E+03  0.15627688109E+03  0.00000000000E+00 0.  1.
<mgrwt>
<rscale>  0 0.19100613E+04</rscale>
<asrwt>0</asrwt>
<pdfrwt beam="1">  1        1 0.11459711E+00 0.19100613E+04</pdfrwt>
<pdfrwt beam="2">  1       -1 0.18837975E+00 0.19100613E+04</pdfrwt>
<totfact> 0.41975542E+00</totfact>
</mgrwt>
</event>
<event>
12    2  0.3555611E-008  0.2069499E+04  0.7818608E-02  0.8574800E-01
         -2   -1    0    0    0  501 -0.00000000000E+00  0.00000000000E+00  0.60820207229E+03  0.60820207229E+03  0.00000000000E+00 0. -1.
          2   -1    0    0  501    0  0.00000000000E+00 -0.00000000000E+00 -0.17604453778E+04  0.17604453778E+04  0.00000000000E+00 0.  1.
         23    2    1    2    0    0  0.44702327925E+03 -0.62953979048E+03 -0.83715340780E+03  0.11423445429E+04  0.89303227838E+02 0.  0.
        254    2    1    2    0    0 -0.44702327925E+03  0.62953979048E+03 -0.31508989776E+03  0.12263029072E+04  0.89910345158E+03 0.  0.
         23    2    4    4    0    0 -0.70264105127E+03  0.49374946856E+03 -0.32523741704E+03  0.92287240841E+03  0.91766661277E+02 0.  0.
         23    2    4    4    0    0  0.25561777202E+03  0.13579032192E+03  0.10147519282E+02  0.30343049883E+03  0.90485571067E+02 0.  0.
          4    1    3    3  502    0  0.25476180227E+02 -0.80229109193E+02 -0.10593655614E+03  0.13530816549E+03  0.00000000000E+00 0. -1.
         -4    1    3    3    0  502  0.42154709902E+03 -0.54931068128E+03 -0.73121685166E+03  0.10070363774E+04  0.00000000000E+00 0.  1.
         11    1    5    5    0    0 -0.14596169795E+03  0.11516703257E+03 -0.11029200689E+03  0.21617721768E+03  0.00000000000E+00 0. -1.
        -11    1    5    5    0    0 -0.55667935332E+03  0.37858243599E+03 -0.21494541014E+03  0.70669519073E+03  0.00000000000E+00 0.  1.
          3    1    6    6  503    0 -0.48734785884E+01  0.15604407114E+02  0.15543652790E+01  0.16421460542E+02  0.00000000000E+00 0. -1.
         -3    1    6    6    0  503  0.26049125061E+03  0.12018591480E+03  0.85931540028E+01  0.28700903829E+03  0.00000000000E+00 0.  1.
<mgrwt>
<rscale>  0 0.20694990E+04</rscale>
<asrwt>0</asrwt>
<pdfrwt beam="1">  1        2 0.27083775E+00 0.20694990E+04</pdfrwt>
<pdfrwt beam="2">  1       -2 0.93569551E-01 0.20694990E+04</pdfrwt>
<totfact> 0.80968672E+00</totfact>
</mgrwt>
</event>
<event>
12    2  0.3555611E-008  0.2696812E+04  0.7818608E-02  0.8336040E-01
         -2   -1    0    0    0  501 -0.00000000000E+00  0.00000000000E+00  0.11269899761E+04  0.11269899761E+04  0.00000000000E+00 0.  1.
          2   -1    0    0  501    0  0.00000000000E+00 -0.00000000000E+00 -0.16133224549E+04  0.16133224549E+04  0.00000000000E+00 0. -1.
         23    2    1    2    0    0  0.11628425233E+04 -0.10309095892E+03 -0.52689425172E+03  0.12839041077E+04  0.89228501465E+02 0.  0.
        254    2    1    2    0    0 -0.11628425233E+04  0.10309095892E+03  0.40561772981E+02  0.14564083233E+04  0.86985600362E+03 0.  0.
         23    2    4    4    0    0 -0.12680066390E+04 -0.17831440222E+01  0.12296705442E+01  0.12712463751E+04  0.90674240743E+02 0.  0.
         23    2    4    4    0    0  0.10516411569E+03  0.10487410294E+03  0.39332102437E+02  0.18516194826E+03  0.10334342797E+03 0.  0.
          1    1    3    3  502    0  0.32241837875E+03 -0.58095651127E+02 -0.17780088939E+03  0.37274907365E+03  0.00000000000E+00 0. -1.
         -1    1    3    3    0  502  0.84042414453E+03 -0.44995307791E+02 -0.34909336234E+03  0.91115503404E+03  0.00000000000E+00 0.  1.
         11    1    5    5    0    0 -0.99181110848E+03  0.32722427287E+02  0.16461890726E+02  0.99248729261E+03  0.00000000000E+00 0.  1.
        -11    1    5    5    0    0 -0.27619553049E+03 -0.34505571309E+02 -0.15232220181E+02  0.27875908244E+03  0.00000000000E+00 0. -1.
          2    1    6    6  503    0  0.96099570032E+02  0.58323732173E+02  0.66396983195E+02  0.13055782042E+03  0.00000000000E+00 0.  1.
         -2    1    6    6    0  503  0.90645456552E+01  0.46550370767E+02 -0.27064880758E+02  0.54604127838E+02  0.00000000000E+00 0. -1.
<mgrwt>
<rscale>  0 0.26968116E+04</rscale>
<asrwt>0</asrwt>
<pdfrwt beam="1">  1        2 0.24820345E+00 0.26968116E+04</pdfrwt>
<pdfrwt beam="2">  1       -2 0.17338307E+00 0.26968116E+04</pdfrwt>
<totfact> 0.19405601E+00</totfact>
</mgrwt>
</event>
<event>
12    2  0.3555611E-008  0.1243098E+04  0.7818608E-02  0.9075948E-01
         -2   -1    0    0    0  501 -0.00000000000E+00  0.00000000000E+00  0.81075310859E+03  0.81075310859E+03  0.00000000000E+00 0.  1.
          2   -1    0    0  501    0  0.00000000000E+00 -0.00000000000E+00 -0.47649880338E+03  0.47649880338E+03  0.00000000000E+00 0. -1.
         23    2    1    2    0    0  0.10708865666E+03 -0.13497955987E+03 -0.19226445245E+03  0.27186340476E+03  0.85185850963E+02 0.  0.
        254    2    1    2    0    0 -0.10708865666E+03  0.13497955987E+03  0.52651875766E+03  0.10153885072E+04  0.85094321575E+03 0.  0.
         23    2    4    4    0    0 -0.37488248461E+03  0.27262478808E+02  0.58959483235E+03  0.70590745318E+03  0.96969820580E+02 0.  0.
         23    2    4    4    0    0  0.26779382794E+03  0.10771708106E+03 -0.63076074694E+02  0.30948105403E+03  0.92105525154E+02 0.  0.
          2    1    3    3  502    0  0.51151727394E+02 -0.83631821296E+01 -0.35997574594E+02  0.63105209036E+02  0.00000000000E+00 0.  1.
         -2    1    3    3    0  502  0.55936929268E+02 -0.12661637774E+03 -0.15626687786E+03  0.20875819573E+03  0.00000000000E+00 0. -1.
         11    1    5    5    0    0 -0.30980571535E+02  0.22225497681E+02  0.27784560654E+02  0.47177858902E+02  0.00000000000E+00 0.  1.
        -11    1    5    5    0    0 -0.34390191307E+03  0.50369811271E+01  0.56181027170E+03  0.65872959428E+03  0.00000000000E+00 0. -1.
          2    1    6    6  503    0  0.27113034331E+03  0.98661508168E+02 -0.70842681329E+02  0.29709332163E+03  0.00000000000E+00 0. -1.
         -2    1    6    6    0  503 -0.33365153695E+01  0.90555728948E+01  0.77666066349E+01  0.12387732395E+02  0.00000000000E+00 0.  1.
<mgrwt>
<rscale>  0 0.12430976E+04</rscale>
<asrwt>0</asrwt>
<pdfrwt beam="1">  1        2 0.73307508E-01 0.12430976E+04</pdfrwt>
<pdfrwt beam="2">  1       -2 0.12473125E+00 0.12430976E+04</pdfrwt>
<totfact> 0.30874584E+01</totfact>
</mgrwt>
</event>
<event>
12    2  0.3555611E-008  0.1812395E+04  0.7818608E-02  0.8699736E-01
         -2   -1    0    0    0  501 -0.00000000000E+00  0.00000000000E+00  0.66089029777E+03  0.66089029777E+03  0.00000000000E+00 0.  1.
          2   -1    0    0  501    0  0.00000000000E+00 -0.00000000000E+00 -0.12425569677E+04  0.12425569677E+04  0.00000000000E+00 0. -1.
         23    2    1    2    0    0 -0.11259513653E+03  0.59339982448E+03  0.14388143291E+03  0.62612108782E+03  0.80775821918E+02 0.  0.
        254    2    1    2    0    0  0.11259513653E+03 -0.59339982448E+03 -0.72554810288E+03  0.12773261777E+04  0.86043076315E+03 0.  0.
         23    2    4    4    0    0  0.50501765436E+02 -0.79636875510E+03 -0.65130235209E+03  0.10344629600E+04  0.95735256678E+02 0.  0.
         23    2    4    4    0    0  0.62093371094E+02  0.20296893062E+03 -0.74245750794E+02  0.24286321769E+03  0.91750408537E+02 0.  0.
          3    1    3    3  502    0 -0.98964059333E+02  0.58094360178E+03  0.14705939344E+03  0.60738440768E+03  0.00000000000E+00 0. -1.
         -3    1    3    3    0  502 -0.13631077197E+02  0.12456222703E+02 -0.31779605310E+01  0.18736680141E+02  0.00000000000E+00 0.  1.
         11    1    5    5    0    0 -0.72109625387E+01 -0.54244309490E+03 -0.41825941763E+03  0.68500908725E+03  0.00000000000E+00 0. -1.
        -11    1    5    5    0    0  0.57712727975E+02 -0.25392566021E+03 -0.23304293446E+03  0.34945387275E+03  0.00000000000E+00 0.  1.
          4    1    6    6  503    0  0.25471452756E+02  0.13434604021E+03 -0.89732580670E+02  0.16355301727E+03  0.00000000000E+00 0. -1.
         -4    1    6    6    0  503  0.36621918339E+02  0.68622890410E+02  0.15486829877E+02  0.79310200420E+02  0.00000000000E+00 0.  1.
<mgrwt>
<rscale>  0 0.18123949E+04</rscale>
<asrwt>0</asrwt>
<pdfrwt beam="1">  1        2 0.19116261E+00 0.18123949E+04</pdfrwt>
<pdfrwt beam="2">  1       -2 0.10167543E+00 0.18123949E+04</pdfrwt>
<totfact> 0.13381981E+01</totfact>
</mgrwt>
</event>
<event>
12    2  0.3555611E-008  0.2384129E+04  0.7818608E-02  0.8445469E-01
         -2   -1    0    0    0  501 -0.00000000000E+00  0.00000000000E+00  0.58623095556E+03  0.58623095556E+03  0.00000000000E+00 0.  1.
          2   -1    0    0  501    0  0.00000000000E+00 -0.00000000000E+00 -0.24239896483E+04  0.24239896483E+04  0.00000000000E+00 0. -1.
         23    2    1    2    0    0  0.35532499558E+03 -0.83040359612E+03 -0.19548399921E+03  0.92804256395E+03  0.84988361736E+02 0.  0.
        254    2    1    2    0    0 -0.35532499558E+03  0.83040359612E+03 -0.16422746935E+04  0.20821780399E+04  0.90695823274E+03 0.  0.
         23    2    4    4    0    0 -0.37760208230E+03 -0.36265436764E+02 -0.67764402916E+03  0.78214220127E+03  0.92986441439E+02 0.  0.
         23    2    4    4    0    0  0.22277086725E+02  0.86666903288E+03 -0.96463066439E+03  0.13000358386E+04  0.89271394872E+02 0.  0.
          4    1    3    3  502    0  0.10492155561E+03 -0.34098034750E+03 -0.59133600630E+02  0.36162537651E+03  0.00000000000E+00 0. -1.
         -4    1    3    3    0  502  0.25040343997E+03 -0.48942324862E+03 -0.13635039858E+03  0.56641718744E+03  0.00000000000E+00 0.  1.
         11    1    5    5    0    0 -0.36496090688E+02  0.98515664351E+01 -0.12932549564E+03  0.13473715828E+03  0.00000000000E+00 0. -1.
        -11    1    5    5    0    0 -0.34110599162E+03 -0.46117003200E+02 -0.54831853352E+03  0.64740504300E+03  0.00000000000E+00 0.  1.
          1    1    6    6  503    0 -0.12915535577E+02  0.22902274478E+02 -0.20640525035E+02  0.33426883032E+02  0.00000000000E+00 0. -1.
         -1    1    6    6    0  503  0.35192622301E+02  0.84376675840E+03 -0.94399013935E+03  0.12666089556E+04  0.00000000000E+00 0.  1.
<mgrwt>
<rscale>  0 0.23841290E+04</rscale>
<asrwt>0</asrwt>
<pdfrwt beam="1">  1        2 0.37292148E+00 0.23841290E+04</pdfrwt>
<pdfrwt beam="2">  1       -2 0.90189379E-01 0.23841290E+04</pdfrwt>
<totfact> 0.36465604E+00</totfact>
</mgrwt>
</event>
<event>
12    2  0.3555611E-008  0.1670360E+04  0.7818608E-02  0.8778452E-01
          2   -1    0    0  501    0  0.00000000000E+00  0.00000000000E+00  0.59735146057E+03  0.59735146057E+03  0.00000000000E+00 0.  1.
         -2   -1    0    0    0  501 -0.00000000000E+00 -0.00000000000E+00 -0.11676977065E+04  0.11676977065E+04  0.00000000000E+00 0. -1.
         23    2    1    2    0    0  0.12057550799E+03 -0.30917386324E+03 -0.71482957345E+03  0.79278022146E+03  0.85978076410E+02 0.  0.
        254    2    1    2    0    0 -0.12057550799E+03  0.30917386324E+03  0.14448332754E+03  0.97226894559E+03  0.90238824227E+03 0.  0.
         23    2    4    4    0    0 -0.43111050578E+03  0.39469130911E+03 -0.33261802205E+02  0.59263611980E+03  0.92052839882E+02 0.  0.
         23    2    4    4    0    0  0.31053499779E+03 -0.85517445867E+02  0.17774512974E+03  0.37963282579E+03  0.93715168816E+02 0.  0.
          1    1    3    3  502    0  0.72917023928E+02 -0.16604688893E+03 -0.48567664224E+03  0.51843057637E+03  0.00000000000E+00 0. -1.
         -1    1    3    3    0  502  0.47658484061E+02 -0.14312697430E+03 -0.22915293122E+03  0.27434964509E+03  0.00000000000E+00 0.  1.
         11    1    5    5    0    0 -0.38460427085E+03  0.30662273124E+03 -0.21382062595E+02  0.49233640641E+03  0.00000000000E+00 0. -1.
        -11    1    5    5    0    0 -0.46506234929E+02  0.88068577865E+02 -0.11879739609E+02  0.10029971340E+03  0.00000000000E+00 0.  1.
          1    1    6    6  503    0  0.20577319393E+03 -0.18340303022E+02  0.14010029876E+03  0.24961383730E+03  0.00000000000E+00 0. -1.
         -1    1    6    6    0  503  0.10476180386E+03 -0.67177142845E+02  0.37644830981E+02  0.13001898849E+03  0.00000000000E+00 0.  1.
<mgrwt>
<rscale>  0 0.16703604E+04</rscale>
<asrwt>0</asrwt>
<pdfrwt beam="1">  1        2 0.91900226E-01 0.16703604E+04</pdfrwt>
<pdfrwt beam="2">  1       -2 0.17964580E+00 0.16703604E+04</pdfrwt>
<totfact> 0.86641552E+00</totfact>
</mgrwt>
</event>
<event>
12    2  0.3555611E-008  0.1434225E+04  0.7818608E-02  0.8929411E-01
         -3   -1    0    0    0  501 -0.00000000000E+00  0.00000000000E+00  0.31295310358E+03  0.31295310358E+03  0.00000000000E+00 0.  1.
          3   -1    0    0  501    0  0.00000000000E+00 -0.00000000000E+00 -0.16432186834E+04  0.16432186834E+04  0.00000000000E+00 0. -1.
         23    2    1    2    0    0  0.15600179027E+03 -0.28148000988E+03 -0.82353233231E+03  0.88892100718E+03  0.91692421250E+02 0.  0.
        254    2    1    2    0    0 -0.15600179027E+03  0.28148000988E+03 -0.50673324756E+03  0.10672507798E+04  0.88242738420E+03 0.  0.
         23    2    4    4    0    0 -0.51328391497E+03  0.19180112245E+03 -0.27910028352E+03  0.62252819746E+03  0.96934722521E+02 0.  0.
         23    2    4    4    0    0  0.35728212470E+03  0.89678887427E+02 -0.22763296404E+03  0.44472258239E+03  0.10133404904E+03 0.  0.
          4    1    3    3  502    0  0.13969566913E+03 -0.24181113352E+03 -0.77688567065E+03  0.82555366242E+03  0.00000000000E+00 0. -1.
         -4    1    3    3    0  502  0.16306121142E+02 -0.39668876358E+02 -0.46646661660E+02  0.63367344763E+02  0.00000000000E+00 0.  1.
         11    1    5    5    0    0 -0.32006546532E+02  0.46798232154E+00 -0.42297209534E+02  0.53044245331E+02  0.00000000000E+00 0. -1.
        -11    1    5    5    0    0 -0.48127736844E+03  0.19133314013E+03 -0.23680307398E+03  0.56948395213E+03  0.00000000000E+00 0.  1.
          4    1    6    6  503    0  0.36478535281E+02  0.29688315962E+02 -0.64586136903E+02  0.79896487538E+02  0.00000000000E+00 0. -1.
         -4    1    6    6    0  503  0.32080358942E+03  0.59990571465E+02 -0.16304682714E+03  0.36482609485E+03  0.00000000000E+00 0.  1.
<mgrwt>
<rscale>  0 0.14342251E+04</rscale>
<asrwt>0</asrwt>
<pdfrwt beam="1">  1        3 0.25280287E+00 0.14342251E+04</pdfrwt>
<pdfrwt beam="2">  1       -3 0.48146632E-01 0.14342251E+04</pdfrwt>
<totfact> 0.77817954E-01</totfact>
</mgrwt>
</event>
<event>
12    2  0.3555611E-008  0.1293626E+04  0.7818608E-02  0.9034635E-01
          1   -1    0    0  501    0  0.00000000000E+00  0.00000000000E+00  0.28387415468E+04  0.28387415468E+04  0.00000000000E+00 0. -1.
         -1   -1    0    0    0  501 -0.00000000000E+00 -0.00000000000E+00 -0.14737759664E+03  0.14737759664E+03  0.00000000000E+00 0.  1.
         23    2    1    2    0    0  0.28309662745E+03  0.14412777838E+03  0.45893530778E+03  0.56534418722E+03  0.89866102147E+02 0.  0.
        254    2    1    2    0    0 -0.28309662745E+03 -0.14412777838E+03  0.22324286424E+04  0.24207749562E+04  0.88062320454E+03 0.  0.
         23    2    4    4    0    0 -0.58676035051E+03 -0.16343900459E+03  0.13918665823E+04  0.15219942309E+04  0.90409285575E+02 0.  0.
         23    2    4    4    0    0  0.30366372306E+03  0.19311226207E+02  0.84056206007E+03  0.89878072528E+03  0.93153825158E+02 0.  0.
          2    1    3    3  502    0  0.30380684697E+02  0.51728882030E+02  0.66999507473E+02  0.89932181339E+02  0.00000000000E+00 0. -1.
         -2    1    3    3    0  502  0.25271594275E+03  0.92398896355E+02  0.39193580031E+03  0.47541200588E+03  0.00000000000E+00 0.  1.
         11    1    5    5    0    0 -0.25964350570E+03 -0.11860974854E+03  0.66183126301E+03  0.72076601141E+03  0.00000000000E+00 0. -1.
        -11    1    5    5    0    0 -0.32711684480E+03 -0.44829256054E+02  0.73003531930E+03  0.80122821953E+03  0.00000000000E+00 0.  1.
          4    1    6    6  503    0  0.17161049277E+03 -0.31090183671E+02  0.40804185413E+03  0.44375096110E+03  0.00000000000E+00 0. -1.
         -4    1    6    6    0  503  0.13205323029E+03  0.50401409877E+02  0.43252020594E+03  0.45502976418E+03  0.00000000000E+00 0.  1.
<mgrwt>
<rscale>  0 0.12936258E+04</rscale>
<asrwt>0</asrwt>
<pdfrwt beam="1">  1        1 0.43672943E+00 0.12936258E+04</pdfrwt>
<pdfrwt beam="2">  1       -1 0.22673478E-01 0.12936258E+04</pdfrwt>
<totfact> 0.12826487E+01</totfact>
</mgrwt>
</event>
<event>
12    2  0.3555611E-008  0.1253248E+04  0.7818608E-02  0.9067484E-01
         -2   -1    0    0    0  501 -0.00000000000E+00  0.00000000000E+00  0.19317118759E+03  0.19317118759E+03  0.00000000000E+00 0.  1.
          2   -1    0    0  501    0  0.00000000000E+00 -0.00000000000E+00 -0.20326938223E+04  0.20326938223E+04  0.00000000000E+00 0. -1.
         23    2    1    2    0    0 -0.17422695996E+03 -0.20028453598E+03 -0.23306062526E+03  0.36497827966E+03  0.91776688997E+02 0.  0.
        254    2    1    2    0    0  0.17422695996E+03  0.20028453598E+03 -0.16064620095E+04  0.18608867302E+04  0.90094966897E+03 0.  0.
         23    2    4    4    0    0 -0.19725390872E+03  0.29448566919E+03 -0.23635412209E+03  0.43534671082E+03  0.89624626793E+02 0.  0.
         23    2    4    4    0    0  0.37148086867E+03 -0.94201133210E+02 -0.13701078874E+04  0.14255400194E+04  0.89982413038E+02 0.  0.
          4    1    3    3  502    0 -0.18378346320E+02 -0.52980160966E+02 -0.93790149406E+02  0.10927604127E+03  0.00000000000E+00 0. -1.
         -4    1    3    3    0  502 -0.15584861364E+03 -0.14730437502E+03 -0.13927047586E+03  0.25570223839E+03  0.00000000000E+00 0.  1.
         11    1    5    5    0    0 -0.16314607519E+03  0.28358415170E+03 -0.22741632328E+03  0.39844045607E+03  0.00000000000E+00 0. -1.
        -11    1    5    5    0    0 -0.34107833530E+02  0.10901517497E+02 -0.89377988156E+01  0.36906254748E+02  0.00000000000E+00 0.  1.
          4    1    6    6  503    0  0.25876655813E+03 -0.10505094222E+03 -0.92383998795E+03  0.96513012356E+03  0.00000000000E+00 0. -1.
         -4    1    6    6    0  503  0.11271431054E+03  0.10849809005E+02 -0.44626789941E+03  0.46040989586E+03  0.00000000000E+00 0.  1.
<mgrwt>
<rscale>  0 0.12532484E+04</rscale>
<asrwt>0</asrwt>
<pdfrwt beam="1">  1        2 0.31272211E+00 0.12532484E+04</pdfrwt>
<pdfrwt beam="2">  1       -2 0.29718646E-01 0.12532484E+04</pdfrwt>
<totfact> 0.65830624E+01</totfact>
</mgrwt>
</event>
<event>
12    2  0.3555611E-008  0.2375992E+04  0.7818608E-02  0.8448547E-01
          2   -1    0    0  501    0  0.00000000000E+00  0.00000000000E+00  0.19767169109E+04  0.19767169109E+04  0.00000000000E+00 0. -1.
         -2   -1    0    0    0  501 -0.00000000000E+00 -0.00000000000E+00 -0.71397903644E+03  0.71397903644E+03  0.00000000000E+00 0.  1.
         23    2    1    2    0    0  0.22339163992E+03 -0.67686636426E+01 -0.58181667774E+03  0.62932436843E+03  0.87114147028E+02 0.  0.
        254    2    1    2    0    0 -0.22339163992E+03  0.67686636426E+01  0.18445545522E+04  0.20613715789E+04  0.89270468282E+03 0.  0.
         23    2    4    4    0    0  0.15464075865E+03 -0.22391033775E+03  0.13900646309E+04  0.14198662289E+04  0.98441993759E+02 0.  0.
         23    2    4    4    0    0 -0.37803239857E+03  0.23067900139E+03  0.45448992128E+03  0.64150535006E+03  0.94057054766E+02 0.  0.
          4    1    3    3  502    0  0.73171140402E+00 -0.43462387934E+01 -0.82368969960E+02  0.82486801402E+02  0.00000000000E+00 0. -1.
         -4    1    3    3    0  502  0.22265992852E+03 -0.24224248491E+01 -0.49944770778E+03  0.54683756703E+03  0.00000000000E+00 0.  1.
         11    1    5    5    0    0  0.78989445536E+02 -0.11301568455E+03  0.94471710489E+03  0.95472628839E+03  0.00000000000E+00 0.  1.
        -11    1    5    5    0    0  0.75651313118E+02 -0.11089465320E+03  0.44534752603E+03  0.46513994048E+03  0.00000000000E+00 0. -1.
          4    1    6    6  503    0 -0.23283269263E+03  0.16249649645E+03  0.34723641033E+03  0.44854130108E+03  0.00000000000E+00 0. -1.
         -4    1    6    6    0  503 -0.14519970594E+03  0.68182504947E+02  0.10725351095E+03  0.19296404897E+03  0.00000000000E+00 0.  1.
<mgrwt>
<rscale>  0 0.23759919E+04</rscale>
<asrwt>0</asrwt>
<pdfrwt beam="1">  1        2 0.30411029E+00 0.23759919E+04</pdfrwt>
<pdfrwt beam="2">  1       -2 0.10984293E+00 0.23759919E+04</pdfrwt>
<totfact> 0.40888905E+00</totfact>
</mgrwt>
</event>
<event>
12    2  0.3555611E-008  0.2102995E+04  0.7818608E-02  0.8559925E-01
         -2   -1    0    0    0  501 -0.00000000000E+00  0.00000000000E+00  0.46756647629E+03  0.46756647629E+03  0.00000000000E+00 0.  1.
          2   -1    0    0  501    0  0.00000000000E+00 -0.00000000000E+00 -0.23646833178E+04  0.23646833178E+04  0.00000000000E+00 0. -1.
         23    2    1    2    0    0  0.39245810555E+03 -0.28553927794E+02  0.24642135568E+03  0.47260141493E+03  0.88260531678E+02 0.  0.
        254    2    1    2    0    0 -0.39245810555E+03  0.28553927794E+02 -0.21435381972E+04  0.23596483792E+04  0.90462466201E+03 0.  0.
         23    2    4    4    0    0 -0.99814856978E+02  0.36798601216E+03 -0.16073567918E+04  0.16545456696E+04  0.92459752762E+02 0.  0.
         23    2    4    4    0    0 -0.29264324857E+03 -0.33943208437E+03 -0.53618140539E+03  0.70510270956E+03  0.93942113571E+02 0.  0.
          4    1    3    3  502    0  0.75362486823E+02 -0.26140383609E+02  0.17947119139E+02  0.81761379396E+02  0.00000000000E+00 0. -1.
         -4    1    3    3    0  502  0.31709561873E+03 -0.24135441847E+01  0.22847423654E+03  0.39084003553E+03  0.00000000000E+00 0.  1.
         11    1    5    5    0    0 -0.23005016676E+02  0.52634874708E+02 -0.40892773396E+03  0.41294255342E+03  0.00000000000E+00 0.  1.
        -11    1    5    5    0    0 -0.76809840302E+02  0.31535113745E+03 -0.11984290579E+04  0.12416031162E+04  0.00000000000E+00 0. -1.
          1    1    6    6  503    0 -0.20058426043E+02  0.16837588586E+01 -0.35113217015E+02  0.40473614965E+02  0.00000000000E+00 0. -1.
         -1    1    6    6    0  503 -0.27258482253E+03 -0.34111584323E+03 -0.50106818838E+03  0.66462909459E+03  0.00000000000E+00 0.  1.
<mgrwt>
<rscale>  0 0.21029947E+04</rscale>
<asrwt>0</asrwt>
<pdfrwt beam="1">  1        2 0.36379743E+00 0.21029947E+04</pdfrwt>
<pdfrwt beam="2">  1       -2 0.71933304E-01 0.21029947E+04</pdfrwt>
<totfact> 0.67200217E+00</totfact>
</mgrwt>
</event>
<event>
12    2  0.3555611E-008  0.3535184E+04  0.7818608E-02  0.8105502E-01
          2   -1    0    0  501    0  0.00000000000E+00  0.00000000000E+00  0.11631007287E+04  0.11631007287E+04  0.00000000000E+00 0. -1.
         -2   -1    0    0    0  501 -0.00000000000E+00 -0.00000000000E+00 -0.26862520594E+04  0.26862520594E+04  0.00000000000E+00 0.  1.
         23    2    1    2    0    0 -0.24596795242E+03  0.56126357664E+03  0.95797030734E+03  0.11408642351E+04  0.91362230119E+02 0.  0.
        254    2    1    2    0    0  0.24596795242E+03 -0.56126357664E+03 -0.24811216380E+04  0.27084885530E+04  0.89689944970E+03 0.  0.
         23    2    4    4    0    0  0.24131918698E+02 -0.40684515236E+03 -0.31354341100E+03  0.52228949484E+03  0.91496001751E+02 0.  0.
         23    2    4    4    0    0  0.22183603372E+03 -0.15441842427E+03 -0.21675782270E+04  0.21861990581E+04  0.89524722460E+02 0.  0.
          4    1    3    3  502    0 -0.25115313837E+03  0.55978629703E+03  0.94375402986E+03  0.11256599247E+04  0.00000000000E+00 0. -1.
         -4    1    3    3    0  502  0.51851859499E+01  0.14772796077E+01  0.14216277482E+02  0.15204310370E+02  0.00000000000E+00 0.  1.
         11    1    5    5    0    0  0.11296657833E+02 -0.24424924478E+03 -0.24255125407E+03  0.34440734444E+03  0.00000000000E+00 0.  1.
        -11    1    5    5    0    0  0.12835260864E+02 -0.16259590758E+03 -0.70992156925E+02  0.17788215040E+03  0.00000000000E+00 0. -1.
          3    1    6    6  503    0  0.16532301176E+03 -0.15426876595E+03 -0.16182961068E+04  0.16340173927E+04  0.00000000000E+00 0. -1.
         -3    1    6    6    0  503  0.56513021960E+02 -0.14965831873E+00 -0.54928212023E+03  0.55218166544E+03  0.00000000000E+00 0.  1.
<mgrwt>
<rscale>  0 0.35351841E+04</rscale>
<asrwt>0</asrwt>
<pdfrwt beam="1">  1        2 0.17893858E+00 0.35351841E+04</pdfrwt>
<pdfrwt beam="2">  1       -2 0.41326954E+00 0.35351841E+04</pdfrwt>
<totfact> 0.99105421E-02</totfact>
</mgrwt>
</event>
<event>
12    2  0.3555611E-008  0.1771722E+04  0.7818608E-02  0.8721484E-01
          2   -1    0    0  501    0  0.00000000000E+00  0.00000000000E+00  0.10940684683E+04  0.10940684683E+04  0.00000000000E+00 0. -1.
         -2   -1    0    0    0  501 -0.00000000000E+00 -0.00000000000E+00 -0.71727665523E+03  0.71727665523E+03  0.00000000000E+00 0.  1.
         23    2    1    2    0    0  0.55535192715E+03  0.18842177890E+03 -0.15658452701E+03  0.61367653859E+03  0.90341851666E+02 0.  0.
        254    2    1    2    0    0 -0.55535192715E+03 -0.18842177890E+03  0.53337634004E+03  0.11976685849E+04  0.89777568992E+03 0.  0.
         23    2    4    4    0    0 -0.91661800041E+02  0.33376004902E+03  0.25308057080E+03  0.43959777335E+03  0.96947259406E+02 0.  0.
         23    2    4    4    0    0 -0.46369012710E+03 -0.52218182792E+03  0.28029576924E+03  0.75807081156E+03  0.91778220162E+02 0.  0.
          4    1    3    3  502    0  0.20718724190E+03  0.63279563734E+02 -0.10289380750E+03  0.23982908917E+03  0.00000000000E+00 0. -1.
         -4    1    3    3    0  502  0.34816468525E+03  0.12514221517E+03 -0.53690719509E+02  0.37384744941E+03  0.00000000000E+00 0.  1.
         11    1    5    5    0    0 -0.74026892396E+02  0.21850670398E+03  0.11164764009E+03  0.25630129930E+03  0.00000000000E+00 0. -1.
        -11    1    5    5    0    0 -0.17634907644E+02  0.11525334504E+03  0.14143293071E+03  0.18329647405E+03  0.00000000000E+00 0.  1.
          3    1    6    6  503    0 -0.31138731087E+03 -0.39766662548E+03  0.17231400786E+03  0.53365992888E+03  0.00000000000E+00 0. -1.
         -3    1    6    6    0  503 -0.15230281624E+03 -0.12451520245E+03  0.10798176138E+03  0.22441088268E+03  0.00000000000E+00 0.  1.
<mgrwt>
<rscale>  0 0.17717221E+04</rscale>
<asrwt>0</asrwt>
<pdfrwt beam="1">  1        2 0.16831823E+00 0.17717221E+04</pdfrwt>
<pdfrwt beam="2">  1       -2 0.11035025E+00 0.17717221E+04</pdfrwt>
<totfact> 0.13555884E+01</totfact>
</mgrwt>
</event>
<event>
12    2  0.3555611E-008  0.1820966E+04  0.7818608E-02  0.8695229E-01
         -2   -1    0    0    0  501 -0.00000000000E+00  0.00000000000E+00  0.25136347273E+03  0.25136347273E+03  0.00000000000E+00 0.  1.
          2   -1    0    0  501    0  0.00000000000E+00 -0.00000000000E+00 -0.32979294144E+04  0.32979294144E+04  0.00000000000E+00 0. -1.
         23    2    1    2    0    0  0.18809469589E+03 -0.51379781350E+03 -0.19613718680E+04  0.20383554582E+04  0.92442206737E+02 0.  0.
        254    2    1    2    0    0 -0.18809469589E+03  0.51379781350E+03 -0.10851940737E+04  0.15109374290E+04  0.89772931828E+03 0.  0.
         23    2    4    4    0    0 -0.10306318870E+03  0.64459585874E+03 -0.33553870794E+03  0.73955608694E+03  0.90725626076E+02 0.  0.
         23    2    4    4    0    0 -0.85031507192E+02 -0.13079804524E+03 -0.74965536580E+03  0.77138134206E+03  0.93314101618E+02 0.  0.
          1    1    3    3  502    0  0.15784901346E+03 -0.30486522884E+03 -0.12553970345E+04  0.13014917721E+04  0.00000000000E+00 0. -1.
         -1    1    3    3    0  502  0.30245682428E+02 -0.20893258466E+03 -0.70597483352E+03  0.73686368603E+03  0.00000000000E+00 0.  1.
         11    1    5    5    0    0 -0.10432869710E+03  0.36916573114E+03 -0.19543285147E+03  0.43053665758E+03  0.00000000000E+00 0. -1.
        -11    1    5    5    0    0  0.12655084014E+01  0.27543012760E+03 -0.14010585646E+03  0.30901942936E+03  0.00000000000E+00 0.  1.
          3    1    6    6  503    0  0.39140915571E+01 -0.45252132880E+00  0.12034283557E+01  0.41198456376E+01  0.00000000000E+00 0. -1.
         -3    1    6    6    0  503 -0.88945598749E+02 -0.13034552391E+03 -0.75085879415E+03  0.76726149643E+03  0.00000000000E+00 0.  1.
<mgrwt>
<rscale>  0 0.18209657E+04</rscale>
<asrwt>0</asrwt>
<pdfrwt beam="1">  1        2 0.50737373E+00 0.18209657E+04</pdfrwt>
<pdfrwt beam="2">  1       -2 0.38671305E-01 0.18209657E+04</pdfrwt>
<totfact> 0.66936548E+00</totfact>
</mgrwt>
</event>
<event>
12    2  0.4506989E-008  0.2587086E+04  0.7818608E-02  0.8372601E-01
          1   -1    0    0  501    0  0.00000000000E+00  0.00000000000E+00  0.14419614548E+04  0.14419614548E+04  0.00000000000E+00 0. -1.
         -1   -1    0    0    0  501 -0.00000000000E+00 -0.00000000000E+00 -0.11604008966E+04  0.11604008966E+04  0.00000000000E+00 0.  1.
         23    2    1    2    0    0 -0.72938847451E+02 -0.93949134010E+03 -0.51540161536E+03  0.10775692027E+04  0.86905166001E+02 0.  0.
        254    2    1    2    0    0  0.72938847451E+02  0.93949134010E+03  0.79696217355E+03  0.15247931487E+04  0.89547830057E+03 0.  0.
         23    2    4    4    0    0 -0.19765977770E+03  0.74317052722E+03  0.14740352158E+03  0.78850387931E+03  0.92944872116E+02 0.  0.
         23    2    4    4    0    0  0.27059862515E+03  0.19632081287E+03  0.64955865197E+03  0.73628926943E+03  0.91814859527E+02 0.  0.
          2    1    3    3  502    0 -0.66700673612E+01 -0.31343474643E+02 -0.37115871973E+02  0.49035611076E+02  0.00000000000E+00 0.  1.
         -2    1    3    3    0  502 -0.66268780090E+02 -0.90814786545E+03 -0.47828574339E+03  0.10285335916E+04  0.00000000000E+00 0. -1.
         11    1    5    5    0    0 -0.58921874113E+02  0.99747242568E+02  0.32663107930E+02  0.12036684871E+03  0.00000000000E+00 0. -1.
        -11    1    5    5    0    0 -0.13873790359E+03  0.64342328466E+03  0.11474041365E+03  0.66813703060E+03  0.00000000000E+00 0.  1.
          3    1    6    6  503    0  0.45093766529E+02  0.54880949285E+02  0.76315458901E+02  0.10425648968E+03  0.00000000000E+00 0. -1.
         -3    1    6    6    0  503  0.22550485862E+03  0.14143986359E+03  0.57324319307E+03  0.63203277975E+03  0.00000000000E+00 0.  1.
<mgrwt>
<rscale>  0 0.25870859E+04</rscale>
<asrwt>0</asrwt>
<pdfrwt beam="1">  1        1 0.22184022E+00 0.25870859E+04</pdfrwt>
<pdfrwt beam="2">  1       -1 0.17852322E+00 0.25870859E+04</pdfrwt>
<totfact> 0.13501980E+00</totfact>
</mgrwt>
</event>
<event>
12    2  0.3555611E-008  0.1234430E+04  0.7818608E-02  0.9083242E-01
         -1   -1    0    0    0  501 -0.00000000000E+00  0.00000000000E+00  0.69045792822E+03  0.69045792822E+03  0.00000000000E+00 0. -1.
          1   -1    0    0  501    0  0.00000000000E+00 -0.00000000000E+00 -0.55174198812E+03  0.55174198812E+03  0.00000000000E+00 0.  1.
         23    2    1    2    0    0  0.19290116731E+03  0.18663638651E+03  0.16520074464E+02  0.29560025711E+03  0.12272977644E+03 0.  0.
        254    2    1    2    0    0 -0.19290116731E+03 -0.18663638651E+03  0.12219586564E+03  0.94659965924E+03  0.89948601111E+03 0.  0.
         23    2    4    4    0    0 -0.10473990864E+03 -0.54323451658E+03  0.67013887814E+02  0.56505131308E+03  0.93369892284E+02 0.  0.
         23    2    4    4    0    0 -0.88161258664E+02  0.35659813008E+03  0.55181977821E+02  0.38154834616E+03  0.87174858063E+02 0.  0.
          4    1    3    3  502    0  0.56902117325E+02  0.10043273861E+02 -0.34016304725E+02  0.67050930591E+02  0.00000000000E+00 0. -1.
         -4    1    3    3    0  502  0.13599904998E+03  0.17659311265E+03  0.50536379189E+02  0.22854932652E+03  0.00000000000E+00 0.  1.
         11    1    5    5    0    0 -0.10321509193E+03 -0.54690534290E+03  0.64352834038E+02  0.56026787927E+03  0.00000000000E+00 0. -1.
        -11    1    5    5    0    0 -0.15248167090E+01  0.36708263145E+01  0.26610537764E+01  0.47834338114E+01  0.00000000000E+00 0.  1.
          3    1    6    6  503    0 -0.69188584859E+02  0.34520711416E+03  0.39193551806E+02  0.35424729561E+03  0.00000000000E+00 0. -1.
         -3    1    6    6    0  503 -0.18972673805E+02  0.11391015917E+02  0.15988426015E+02  0.27301050554E+02  0.00000000000E+00 0.  1.
<mgrwt>
<rscale>  0 0.12344304E+04</rscale>
<asrwt>0</asrwt>
<pdfrwt beam="1">  1        1 0.84883382E-01 0.12344304E+04</pdfrwt>
<pdfrwt beam="2">  1       -1 0.10622430E+00 0.12344304E+04</pdfrwt>
<totfact> 0.31608058E+01</totfact>
</mgrwt>
</event>
<event>
12    2  0.3555611E-008  0.3359695E+04  0.7818608E-02  0.8147870E-01
          2   -1    0    0  501    0  0.00000000000E+00  0.00000000000E+00  0.24983522960E+04  0.24983522960E+04  0.00000000000E+00 0. -1.
         -2   -1    0    0    0  501 -0.00000000000E+00 -0.00000000000E+00 -0.11294995256E+04  0.11294995256E+04  0.00000000000E+00 0.  1.
         23    2    1    2    0    0 -0.57791529396E+02  0.14818269922E+04  0.11751449346E+03  0.14904368805E+04  0.91876780262E+02 0.  0.
        254    2    1    2    0    0  0.57791529396E+02 -0.14818269922E+04  0.12513382769E+04  0.21374149411E+04  0.89640618675E+03 0.  0.
         23    2    4    4    0    0 -0.16375210047E+03 -0.99250959242E+03  0.12304936993E+04  0.15919406933E+04  0.90941660337E+02 0.  0.
         23    2    4    4    0    0  0.22154362987E+03 -0.48931739981E+03  0.20844577555E+02  0.54547424780E+03  0.92706854674E+02 0.  0.
          4    1    3    3  502    0  0.10284913041E+02  0.24537142961E+03 -0.83487762940E+01  0.24572875283E+03  0.00000000000E+00 0. -1.
         -4    1    3    3    0  502 -0.68076442437E+02  0.12364555626E+04  0.12586326975E+03  0.12447081277E+04  0.00000000000E+00 0.  1.
         11    1    5    5    0    0  0.94788762082E+01 -0.68468105447E+02  0.10081030579E+03  0.12223112661E+03  0.00000000000E+00 0. -1.
        -11    1    5    5    0    0 -0.17323097668E+03 -0.92404148697E+03  0.11296833935E+04  0.14697095667E+04  0.00000000000E+00 0.  1.
          1    1    6    6  503    0  0.21879940465E+03 -0.40674710519E+03  0.84914751080E+01  0.46193992272E+03  0.00000000000E+00 0.  1.
         -1    1    6    6    0  503  0.27442252218E+01 -0.82570294620E+02  0.12353102447E+02  0.83534325075E+02  0.00000000000E+00 0. -1.
<mgrwt>
<rscale>  0 0.33596951E+04</rscale>
<asrwt>0</asrwt>
<pdfrwt beam="1">  1        2 0.38436189E+00 0.33596951E+04</pdfrwt>
<pdfrwt beam="2">  1       -2 0.17376916E+00 0.33596951E+04</pdfrwt>
<totfact> 0.58113255E-01</totfact>
</mgrwt>
</event>
<event>
12    2  0.3555611E-008  0.3066508E+04  0.7818608E-02  0.8224990E-01
         -1   -1    0    0    0  501 -0.00000000000E+00  0.00000000000E+00  0.56105863994E+03  0.56105863994E+03  0.00000000000E+00 0.  1.
          1   -1    0    0  501    0  0.00000000000E+00 -0.00000000000E+00 -0.41900573208E+04  0.41900573208E+04  0.00000000000E+00 0. -1.
         23    2    1    2    0    0  0.49250965726E+03 -0.13108586553E+04 -0.17131272639E+04  0.22145079364E+04  0.91237061681E+02 0.  0.
        254    2    1    2    0    0 -0.49250965726E+03  0.13108586553E+04 -0.19158714169E+04  0.25366080243E+04  0.89604732366E+03 0.  0.
         23    2    4    4    0    0 -0.24646879386E+03  0.30529482237E+03 -0.56884820723E+02  0.40687346135E+03  0.91423934557E+02 0.  0.
         23    2    4    4    0    0 -0.24604086341E+03  0.10055638329E+04 -0.18589865962E+04  0.21297345630E+04  0.90793255904E+02 0.  0.
          3    1    3    3  502    0  0.15567393182E+03 -0.38289864965E+03 -0.57029977825E+03  0.70433485362E+03  0.00000000000E+00 0. -1.
         -3    1    3    3    0  502  0.33683572545E+03 -0.92796000562E+03 -0.11428274856E+04  0.15101730828E+04  0.00000000000E+00 0.  1.
         11    1    5    5    0    0 -0.18950720520E+03  0.27905333851E+03 -0.65346278303E+02  0.34358970101E+03  0.00000000000E+00 0.  1.
        -11    1    5    5    0    0 -0.56961588660E+02  0.26241483864E+02  0.84614575797E+01  0.63283760337E+02  0.00000000000E+00 0. -1.
          4    1    6    6  503    0 -0.23850504397E+03  0.88303804914E+03 -0.16767561415E+04  0.19100136152E+04  0.00000000000E+00 0.  1.
         -4    1    6    6    0  503 -0.75358194396E+01  0.12252578376E+03 -0.18223045469E+03  0.21972094774E+03  0.00000000000E+00 0. -1.
<mgrwt>
<rscale>  0 0.30665080E+04</rscale>
<asrwt>0</asrwt>
<pdfrwt beam="1">  1        1 0.64462421E+00 0.30665080E+04</pdfrwt>
<pdfrwt beam="2">  1       -1 0.86316713E-01 0.30665080E+04</pdfrwt>
<totfact> 0.72314862E-02</totfact>
</mgrwt>
</event>
<event>
12    2  0.3555611E-008  0.2671123E+04  0.7818608E-02  0.8344436E-01
          1   -1    0    0  501    0  0.00000000000E+00  0.00000000000E+00  0.12739515909E+04  0.12739515909E+04  0.00000000000E+00 0. -1.
         -1   -1    0    0    0  501 -0.00000000000E+00 -0.00000000000E+00 -0.14001512215E+04  0.14001512215E+04  0.00000000000E+00 0.  1.
         23    2    1    2    0    0 -0.49453260238E+03 -0.24223407221E+03 -0.11020826038E+04  0.12353462303E+04  0.90853743656E+02 0.  0.
        254    2    1    2    0    0  0.49453260238E+03  0.24223407221E+03  0.97588297315E+03  0.14387565821E+04  0.90245946428E+03 0.  0.
         23    2    4    4    0    0 -0.18645708873E+03  0.27945839197E+03  0.19878663629E+03  0.40100387277E+03  0.91786384739E+02 0.  0.
         23    2    4    4    0    0  0.68098969111E+03 -0.37224319761E+02  0.77709633685E+03  0.10377527093E+04  0.88990783618E+02 0.  0.
          3    1    3    3  502    0 -0.11483409961E+03 -0.24254431479E+02 -0.28805837997E+03  0.31105108608E+03  0.00000000000E+00 0. -1.
         -3    1    3    3    0  502 -0.37969850277E+03 -0.21797964073E+03 -0.81402422378E+03  0.92429514425E+03  0.00000000000E+00 0.  1.
         11    1    5    5    0    0 -0.18839055318E+03  0.28458660912E+03  0.18991050559E+03  0.39057206601E+03  0.00000000000E+00 0. -1.
        -11    1    5    5    0    0  0.19334644438E+01 -0.51282171480E+01  0.88761307056E+01  0.10431806755E+02  0.00000000000E+00 0.  1.
          4    1    6    6  503    0  0.19611315361E+03  0.31888538553E+01  0.28281948572E+03  0.34417640726E+03  0.00000000000E+00 0. -1.
         -4    1    6    6    0  503  0.48487653750E+03 -0.40413173616E+02  0.49427685113E+03  0.69357630206E+03  0.00000000000E+00 0.  1.
<mgrwt>
<rscale>  0 0.26711233E+04</rscale>
<asrwt>0</asrwt>
<pdfrwt beam="1">  1        1 0.19599255E+00 0.26711233E+04</pdfrwt>
<pdfrwt beam="2">  1       -1 0.21540788E+00 0.26711233E+04</pdfrwt>
<totfact> 0.97675823E-01</totfact>
</mgrwt>
</event>
